<event>
 7    0  0.4748297E-002  0.4380861E+03  0.7546771E-02  0.1031336E+00
         21   -1    0    0  502  501  0.00000000000E+00  0.00000000000E+00  0.47832184867E+03  0.47832184867E+03  0.00000000000E+00 0. -1.
         21   -1    0    0  501  502 -0.00000000000E+00 -0.00000000000E+00 -0.10030871517E+03  0.10030871517E+03  0.00000000000E+00 0. -1.
      99926    2    1    2    0    0 -0.10547118734E-14  0.00000000000E+00  0.37801313350E+03  0.57863056385E+03  0.43808606496E+03 0.  0.
      99925    2    3    3    0    0 -0.19190379496E+00  0.77009860666E+02  0.31846187009E+03  0.42012372948E+03  0.26297420007E+03 0.  0.
         25    1    3    3    0    0  0.19190379496E+00 -0.77009860666E+02  0.59551263412E+02  0.15850683437E+03  0.12509000000E+03 0.  0.
         25    1    4    4    0    0 -0.23295346424E+02  0.11376178390E+02  0.18199848809E+03  0.22235792850E+03  0.12509000000E+03 0.  0.
         25    1    4    4    0    0  0.23103442629E+02  0.65633682275E+02  0.13646338201E+03  0.19776580098E+03  0.12509000000E+03 0.  0.
<mgrwt>
<rscale>  2 0.43808606E+03</rscale>
<asrwt>0</asrwt>
<pdfrwt beam="1">  1       21 0.70341447E-01 0.43808606E+03</pdfrwt>
<pdfrwt beam="2">  1       21 0.14751282E-01 0.43808606E+03</pdfrwt>
<totfact> 0.68755999E+04</totfact>
</mgrwt>
</event>
<event>
 7    0  0.4748297E-002  0.4398731E+03  0.7546771E-02  0.1030786E+00
         21   -1    0    0  502  501  0.00000000000E+00  0.00000000000E+00  0.35567421959E+03  0.35567421959E+03  0.00000000000E+00 0. -1.
         21   -1    0    0  501  502 -0.00000000000E+00 -0.00000000000E+00 -0.13600108825E+03  0.13600108825E+03  0.00000000000E+00 0. -1.
      99926    2    1    2    0    0  0.00000000000E+00  0.00000000000E+00  0.21967313133E+03  0.49167530784E+03  0.43987307682E+03 0.  0.
      99925    2    3    3    0    0 -0.55896171587E+02  0.81492752498E+02  0.12869618308E+03  0.30812759219E+03  0.26194361000E+03 0.  0.
         25    1    4    4    0    0 -0.35718650995E+02  0.80518494871E+02  0.63755892773E+02  0.16574490040E+03  0.12509000000E+03 0.  0.
         25    1    4    4    0    0 -0.20177520592E+02  0.97425762758E+00  0.64940290306E+02  0.14238269179E+03  0.12509000000E+03 0.  0.
         25    1    3    3    0    0  0.55896171587E+02 -0.81492752498E+02  0.90976948255E+02  0.18354771565E+03  0.12509000000E+03 0.  0.
<mgrwt>
<rscale>  2 0.43987308E+03</rscale>
<asrwt>0</asrwt>
<pdfrwt beam="1">  1       21 0.52305032E-01 0.43987308E+03</pdfrwt>
<pdfrwt beam="2">  1       21 0.20000160E-01 0.43987308E+03</pdfrwt>
<totfact> 0.74399821E+04</totfact>
</mgrwt>
</event>
<event>
 7    0  0.4748297E-002  0.4764289E+03  0.7546771E-02  0.1020121E+00
         21   -1    0    0  502  501  0.00000000000E+00  0.00000000000E+00  0.86920871503E+02  0.86920871503E+02  0.00000000000E+00 0.  1.
         21   -1    0    0  501  502 -0.00000000000E+00 -0.00000000000E+00 -0.65284812054E+03  0.65284812054E+03  0.00000000000E+00 0.  1.
      99926    2    1    2    0    0  0.00000000000E+00 -0.71054273576E-14 -0.56592724904E+03  0.73976899204E+03  0.47642891430E+03 0.  0.
      99925    2    3    3    0    0  0.28737641347E+02 -0.28289527862E+02 -0.54497644660E+03  0.60668032370E+03  0.26350623978E+03 0.  0.
         25    1    3    3    0    0 -0.28737641347E+02  0.28289527862E+02 -0.20950802435E+02  0.13308866834E+03  0.12509000000E+03 0.  0.
         25    1    4    4    0    0  0.28652043440E+02 -0.51337268251E+02 -0.31196488126E+03  0.34121261692E+03  0.12509000000E+03 0.  0.
         25    1    4    4    0    0  0.85597907239E-01  0.23047740388E+02 -0.23301156534E+03  0.26546770678E+03  0.12509000000E+03 0.  0.
<mgrwt>
<rscale>  2 0.47642891E+03</rscale>
<asrwt>0</asrwt>
<pdfrwt beam="1">  1       21 0.12782481E-01 0.47642891E+03</pdfrwt>
<pdfrwt beam="2">  1       21 0.96007080E-01 0.47642891E+03</pdfrwt>
<totfact> 0.43068618E+04</totfact>
</mgrwt>
</event>
<event>
 7    0  0.4748297E-002  0.4587566E+03  0.7546771E-02  0.1025142E+00
         21   -1    0    0  502  501  0.00000000000E+00  0.00000000000E+00  0.15091505197E+03  0.15091505197E+03  0.00000000000E+00 0. -1.
         21   -1    0    0  501  502 -0.00000000000E+00 -0.00000000000E+00 -0.34863594673E+03  0.34863594673E+03  0.00000000000E+00 0. -1.
      99926    2    1    2    0    0  0.00000000000E+00  0.00000000000E+00 -0.19772089476E+03  0.49955099870E+03  0.45875663274E+03 0.  0.
      99925    2    3    3    0    0  0.64464334104E+02 -0.12853765854E+02 -0.19081653198E+02  0.27177840072E+03  0.26301809812E+03 0.  0.
         25    1    3    3    0    0 -0.64464334104E+02  0.12853765854E+02 -0.17863924156E+03  0.22777259799E+03  0.12509000000E+03 0.  0.
         25    1    4    4    0    0  0.17428083635E+01 -0.21341670678E+02 -0.32329864814E+02  0.13096271434E+03  0.12509000000E+03 0.  0.
         25    1    4    4    0    0  0.62721525740E+02  0.84879048239E+01  0.13248211615E+02  0.14081568638E+03  0.12509000000E+03 0.  0.
<mgrwt>
<rscale>  2 0.45875663E+03</rscale>
<asrwt>0</asrwt>
<pdfrwt beam="1">  1       21 0.22193390E-01 0.45875663E+03</pdfrwt>
<pdfrwt beam="2">  1       21 0.51269992E-01 0.45875663E+03</pdfrwt>
<totfact> 0.63390622E+04</totfact>
</mgrwt>
</event>
<event>
 7    0  0.4748297E-002  0.4549714E+03  0.7546771E-02  0.1026250E+00
         21   -1    0    0  502  501  0.00000000000E+00  0.00000000000E+00  0.25087578423E+02  0.25087578423E+02  0.00000000000E+00 0. -1.
         21   -1    0    0  501  502 -0.00000000000E+00 -0.00000000000E+00 -0.20627639721E+04  0.20627639721E+04  0.00000000000E+00 0. -1.
      99926    2    1    2    0    0 -0.35527136788E-14  0.00000000000E+00 -0.20376763937E+04  0.20878515505E+04  0.45497144050E+03 0.  0.
      99925    2    3    3    0    0 -0.10625001766E+02 -0.10797594812E+03 -0.11356406275E+04  0.11707431995E+04  0.26303670507E+03 0.  0.
         25    1    3    3    0    0  0.10625001766E+02  0.10797594812E+03 -0.90203576611E+03  0.91710835101E+03  0.12509000000E+03 0.  0.
         25    1    4    4    0    0 -0.36695035264E+02 -0.77504855815E+02 -0.66825018840E+03  0.68524400814E+03  0.12509000000E+03 0.  0.
         25    1    4    4    0    0  0.26070033499E+02 -0.30471092302E+02 -0.46739043914E+03  0.48549919136E+03  0.12509000000E+03 0.  0.
<mgrwt>
<rscale>  2 0.45497144E+03</rscale>
<asrwt>0</asrwt>
<pdfrwt beam="1">  1       21 0.36893480E-02 0.45497144E+03</pdfrwt>
<pdfrwt beam="2">  1       21 0.30334779E+00 0.45497144E+03</pdfrwt>
<totfact> 0.12330770E+04</totfact>
</mgrwt>
</event>
<event>
 7    0  0.4748297E-002  0.4515392E+03  0.7546771E-02  0.1027264E+00
         21   -1    0    0  502  501  0.00000000000E+00  0.00000000000E+00  0.37766241865E+02  0.37766241865E+02  0.00000000000E+00 0. -1.
         21   -1    0    0  501  502 -0.00000000000E+00 -0.00000000000E+00 -0.13496684271E+04  0.13496684271E+04  0.00000000000E+00 0. -1.
      99926    2    1    2    0    0 -0.14210854715E-13  0.00000000000E+00 -0.13119021852E+04  0.13874346689E+04  0.45153916443E+03 0.  0.
      99925    2    3    3    0    0  0.89136284714E+02  0.20884048826E+02 -0.64146113970E+03  0.69930668350E+03  0.26301335154E+03 0.  0.
         25    1    4    4    0    0  0.71356198290E+02 -0.20087178392E+02 -0.32006433154E+03  0.35154499882E+03  0.12509000000E+03 0.  0.
         25    1    4    4    0    0  0.17780086424E+02  0.40971227217E+02 -0.32139680816E+03  0.34776168467E+03  0.12509000000E+03 0.  0.
         25    1    3    3    0    0 -0.89136284714E+02 -0.20884048826E+02 -0.67044104549E+03  0.68812798543E+03  0.12509000000E+03 0.  0.
<mgrwt>
<rscale>  2 0.45153916E+03</rscale>
<asrwt>0</asrwt>
<pdfrwt beam="1">  1       21 0.55538603E-02 0.45153916E+03</pdfrwt>
<pdfrwt beam="2">  1       21 0.19848061E+00 0.45153916E+03</pdfrwt>
<totfact> 0.27398328E+04</totfact>
</mgrwt>
</event>
<event>
 7    0  0.4748297E-002  0.4562525E+03  0.7546771E-02  0.1025874E+00
         21   -1    0    0  502  501  0.00000000000E+00  0.00000000000E+00  0.60981708725E+03  0.60981708725E+03  0.00000000000E+00 0.  1.
         21   -1    0    0  501  502 -0.00000000000E+00 -0.00000000000E+00 -0.85339647699E+02  0.85339647699E+02  0.00000000000E+00 0.  1.
      99926    2    1    2    0    0  0.00000000000E+00  0.00000000000E+00  0.52447743955E+03  0.69515673495E+03  0.45625245374E+03 0.  0.
      99925    2    3    3    0    0  0.18183246542E+02  0.96880878903E+02  0.41795252853E+03  0.50355402119E+03  0.26299391818E+03 0.  0.
         25    1    3    3    0    0 -0.18183246542E+02 -0.96880878903E+02  0.10652491102E+03  0.19160271376E+03  0.12509000000E+03 0.  0.
         25    1    4    4    0    0 -0.30701289287E+02  0.55577722966E+02  0.21434347327E+03  0.25616807976E+03  0.12509000000E+03 0.  0.
         25    1    4    4    0    0  0.48884535829E+02  0.41303155937E+02  0.20360905527E+03  0.24738594144E+03  0.12509000000E+03 0.  0.
<mgrwt>
<rscale>  2 0.45625245E+03</rscale>
<asrwt>0</asrwt>
<pdfrwt beam="1">  1       21 0.89678981E-01 0.45625245E+03</pdfrwt>
<pdfrwt beam="2">  1       21 0.12549948E-01 0.45625245E+03</pdfrwt>
<totfact> 0.52645834E+04</totfact>
</mgrwt>
</event>
<event>
 7    0  0.4748297E-002  0.4574429E+03  0.7546771E-02  0.1025525E+00
         21   -1    0    0  502  501  0.00000000000E+00  0.00000000000E+00  0.68351080538E+03  0.68351080538E+03  0.00000000000E+00 0. -1.
         21   -1    0    0  501  502 -0.00000000000E+00 -0.00000000000E+00 -0.76536482183E+02  0.76536482183E+02  0.00000000000E+00 0. -1.
      99926    2    1    2    0    0  0.00000000000E+00  0.00000000000E+00  0.60697432320E+03  0.76004728756E+03  0.45744294760E+03 0.  0.
      99925    2    3    3    0    0  0.19874300497E+02 -0.17021148446E+02  0.19171270539E+03  0.32556549664E+03  0.26182899741E+03 0.  0.
         25    1    4    4    0    0  0.70656532137E+01  0.86650549358E+01  0.52214655475E+02  0.13601060613E+03  0.12509000000E+03 0.  0.
         25    1    4    4    0    0  0.12808647283E+02 -0.25686203382E+02  0.13949804991E+03  0.18955489052E+03  0.12509000000E+03 0.  0.
         25    1    3    3    0    0 -0.19874300497E+02  0.17021148446E+02  0.41526161781E+03  0.43448179092E+03  0.12509000000E+03 0.  0.
<mgrwt>
<rscale>  2 0.45744295E+03</rscale>
<asrwt>0</asrwt>
<pdfrwt beam="1">  1       21 0.10051629E+00 0.45744295E+03</pdfrwt>
<pdfrwt beam="2">  1       21 0.11255365E-01 0.45744295E+03</pdfrwt>
<totfact> 0.48814499E+04</totfact>
</mgrwt>
</event>
<event>
 7    0  0.4748297E-002  0.4502370E+03  0.7546771E-02  0.1027651E+00
         21   -1    0    0  502  501  0.00000000000E+00  0.00000000000E+00  0.51884043257E+03  0.51884043257E+03  0.00000000000E+00 0. -1.
         21   -1    0    0  501  502 -0.00000000000E+00 -0.00000000000E+00 -0.97676151239E+02  0.97676151239E+02  0.00000000000E+00 0. -1.
      99926    2    1    2    0    0  0.00000000000E+00 -0.14210854715E-13  0.42116428133E+03  0.61651658381E+03  0.45023698898E+03 0.  0.
      99925    2    3    3    0    0 -0.30868474027E+02 -0.91019433251E+02  0.19641566571E+03  0.34193171852E+03  0.26287028451E+03 0.  0.
         25    1    4    4    0    0 -0.55413280252E+02 -0.40952360636E+02  0.10532322239E+03  0.17744919483E+03  0.12509000000E+03 0.  0.
         25    1    4    4    0    0  0.24544806225E+02 -0.50067072614E+02  0.91092443313E+02  0.16448252370E+03  0.12509000000E+03 0.  0.
         25    1    3    3    0    0  0.30868474027E+02  0.91019433251E+02  0.22474861562E+03  0.27458486528E+03  0.12509000000E+03 0.  0.
<mgrwt>
<rscale>  2 0.45023699E+03</rscale>
<asrwt>0</asrwt>
<pdfrwt beam="1">  1       21 0.76300063E-01 0.45023699E+03</pdfrwt>
<pdfrwt beam="2">  1       21 0.14364140E-01 0.45023699E+03</pdfrwt>
<totfact> 0.59894256E+04</totfact>
</mgrwt>
</event>
<event>
 7    0  0.4748297E-002  0.4524177E+03  0.7546771E-02  0.1027004E+00
         21   -1    0    0  502  501  0.00000000000E+00  0.00000000000E+00  0.54320422010E+02  0.54320422010E+02  0.00000000000E+00 0. -1.
         21   -1    0    0  501  502 -0.00000000000E+00 -0.00000000000E+00 -0.94201119327E+03  0.94201119327E+03  0.00000000000E+00 0. -1.
      99926    2    1    2    0    0  0.00000000000E+00  0.00000000000E+00 -0.88769077126E+03  0.99633161528E+03  0.45241770768E+03 0.  0.
      99925    2    3    3    0    0 -0.92545548342E+02  0.77498894066E+01 -0.69301621277E+03  0.74699162425E+03  0.26286931398E+03 0.  0.
         25    1    4    4    0    0 -0.83372146215E+02  0.15756762389E+02 -0.33392106859E+03  0.36653782680E+03  0.12509000000E+03 0.  0.
         25    1    3    3    0    0  0.92545548342E+02 -0.77498894066E+01 -0.19467455849E+03  0.24933999103E+03  0.12509000000E+03 0.  0.
         25    1    4    4    0    0 -0.91734021275E+01 -0.80068729825E+01 -0.35909514418E+03  0.38045379746E+03  0.12509000000E+03 0.  0.
<mgrwt>
<rscale>  2 0.45241771E+03</rscale>
<asrwt>0</asrwt>
<pdfrwt beam="1">  1       21 0.79882984E-02 0.45241771E+03</pdfrwt>
<pdfrwt beam="2">  1       21 0.13853104E+00 0.45241771E+03</pdfrwt>
<totfact> 0.40112691E+04</totfact>
</mgrwt>
</event>
<event>
 7    0  0.4748297E-002  0.4477435E+03  0.7546771E-02  0.1028397E+00
         21   -1    0    0  502  501  0.00000000000E+00  0.00000000000E+00  0.18421468511E+04  0.18421468511E+04  0.00000000000E+00 0.  1.
         21   -1    0    0  501  502 -0.00000000000E+00 -0.00000000000E+00 -0.27206601526E+02  0.27206601526E+02  0.00000000000E+00 0.  1.
      99926    2    1    2    0    0  0.44408920985E-15  0.00000000000E+00  0.18149402496E+04  0.18693534527E+04  0.44774347715E+03 0.  0.
      99925    2    3    3    0    0  0.10101017496E+01 -0.10593872621E+03  0.11128879447E+04  0.11484172690E+04  0.26290418827E+03 0.  0.
         25    1    4    4    0    0  0.88870517720E+01 -0.49617037626E+02  0.39201991069E+03  0.41456959439E+03  0.12509000000E+03 0.  0.
         25    1    3    3    0    0 -0.10101017496E+01  0.10593872621E+03  0.70205230492E+03  0.72093618369E+03  0.12509000000E+03 0.  0.
         25    1    4    4    0    0 -0.78769500224E+01 -0.56321688583E+02  0.72086803401E+03  0.73384767459E+03  0.12509000000E+03 0.  0.
<mgrwt>
<rscale>  2 0.44774348E+03</rscale>
<asrwt>0</asrwt>
<pdfrwt beam="1">  1       21 0.27090386E+00 0.44774348E+03</pdfrwt>
<pdfrwt beam="2">  1       21 0.40009721E-02 0.44774348E+03</pdfrwt>
<totfact> 0.16893929E+04</totfact>
</mgrwt>
</event>
<event>
 7    0  0.4748297E-002  0.4306507E+03  0.7546771E-02  0.1033655E+00
         21   -1    0    0  502  501  0.00000000000E+00  0.00000000000E+00  0.34962173934E+03  0.34962173934E+03  0.00000000000E+00 0.  1.
         21   -1    0    0  501  502 -0.00000000000E+00 -0.00000000000E+00 -0.13261474256E+03  0.13261474256E+03  0.00000000000E+00 0.  1.
      99926    2    1    2    0    0  0.00000000000E+00  0.00000000000E+00  0.21700699678E+03  0.48223648190E+03  0.43065065636E+03 0.  0.
      99925    2    3    3    0    0 -0.58016308493E+01  0.87176591558E+02  0.15320980356E+03  0.31685508331E+03  0.26323085472E+03 0.  0.
         25    1    3    3    0    0  0.58016308493E+01 -0.87176591558E+02  0.63797193226E+02  0.16538139859E+03  0.12509000000E+03 0.  0.
         25    1    4    4    0    0  0.35400136148E+02  0.32095972142E+02  0.62999422917E+02  0.14798566300E+03  0.12509000000E+03 0.  0.
         25    1    4    4    0    0 -0.41201766998E+02  0.55080619415E+02  0.90210380642E+02  0.16886942031E+03  0.12509000000E+03 0.  0.
<mgrwt>
<rscale>  2 0.43065066E+03</rscale>
<asrwt>0</asrwt>
<pdfrwt beam="1">  1       21 0.51414962E-01 0.43065066E+03</pdfrwt>
<pdfrwt beam="2">  1       21 0.19502168E-01 0.43065066E+03</pdfrwt>
<totfact> 0.81119356E+04</totfact>
</mgrwt>
</event>
<event>
 7    0  0.4748297E-002  0.4500604E+03  0.7546771E-02  0.1027704E+00
         21   -1    0    0  502  501  0.00000000000E+00  0.00000000000E+00  0.17645062321E+03  0.17645062321E+03  0.00000000000E+00 0. -1.
         21   -1    0    0  501  502 -0.00000000000E+00 -0.00000000000E+00 -0.28698450704E+03  0.28698450704E+03  0.00000000000E+00 0. -1.
      99926    2    1    2    0    0  0.00000000000E+00  0.00000000000E+00 -0.11053388383E+03  0.46343513025E+03  0.45006041869E+03 0.  0.
      99925    2    3    3    0    0 -0.54254914159E+02  0.73875491121E+02 -0.10246197719E+02  0.27875618726E+03  0.26305673051E+03 0.  0.
         25    1    4    4    0    0 -0.38635159730E+01  0.50904208545E+02  0.25203427050E+02  0.13743684382E+03  0.12509000000E+03 0.  0.
         25    1    4    4    0    0 -0.50391398186E+02  0.22971282576E+02 -0.35449624768E+02  0.14131934344E+03  0.12509000000E+03 0.  0.
         25    1    3    3    0    0  0.54254914159E+02 -0.73875491121E+02 -0.10028768611E+03  0.18467894299E+03  0.12509000000E+03 0.  0.
<mgrwt>
<rscale>  2 0.45006042E+03</rscale>
<asrwt>0</asrwt>
<pdfrwt beam="1">  1       21 0.25948621E-01 0.45006042E+03</pdfrwt>
<pdfrwt beam="2">  1       21 0.42203603E-01 0.45006042E+03</pdfrwt>
<totfact> 0.70655350E+04</totfact>
</mgrwt>
</event>
<event>
 7    0  0.4748297E-002  0.4596710E+03  0.7546771E-02  0.1024877E+00
         21   -1    0    0  502  501  0.00000000000E+00  0.00000000000E+00  0.24433020807E+03  0.24433020807E+03  0.00000000000E+00 0.  1.
         21   -1    0    0  501  502 -0.00000000000E+00 -0.00000000000E+00 -0.21620068782E+03  0.21620068782E+03  0.00000000000E+00 0.  1.
      99926    2    1    2    0    0 -0.71054273576E-14  0.00000000000E+00  0.28129520245E+02  0.46053089589E+03  0.45967100862E+03 0.  0.
      99925    2    3    3    0    0 -0.63779782685E+02 -0.69642908762E+02  0.87603727442E+02  0.29289234173E+03  0.26304660302E+03 0.  0.
         25    1    4    4    0    0 -0.65583296045E+02 -0.16392770570E+02  0.59049639924E+02  0.15396187750E+03  0.12509000000E+03 0.  0.
         25    1    3    3    0    0  0.63779782685E+02  0.69642908762E+02 -0.59474207197E+02  0.16763855416E+03  0.12509000000E+03 0.  0.
         25    1    4    4    0    0  0.18035133599E+01 -0.53250138192E+02  0.28554087518E+02  0.13893046423E+03  0.12509000000E+03 0.  0.
<mgrwt>
<rscale>  2 0.45967101E+03</rscale>
<asrwt>0</asrwt>
<pdfrwt beam="1">  1       21 0.35930913E-01 0.45967101E+03</pdfrwt>
<pdfrwt beam="2">  1       21 0.31794219E-01 0.45967101E+03</pdfrwt>
<totfact> 0.65661061E+04</totfact>
</mgrwt>
</event>
<event>
 7    0  0.4748297E-002  0.4537607E+03  0.7546771E-02  0.1026606E+00
         21   -1    0    0  502  501  0.00000000000E+00  0.00000000000E+00  0.23088694638E+03  0.23088694638E+03  0.00000000000E+00 0.  1.
         21   -1    0    0  501  502 -0.00000000000E+00 -0.00000000000E+00 -0.22294327767E+03  0.22294327767E+03  0.00000000000E+00 0.  1.
      99926    2    1    2    0    0  0.00000000000E+00  0.00000000000E+00  0.79436687076E+01  0.45383022404E+03  0.45376069726E+03 0.  0.
      99925    2    3    3    0    0 -0.98218900915E+02  0.51918460860E+02 -0.88541548147E+01  0.28568696949E+03  0.26305164779E+03 0.  0.
         25    1    4    4    0    0 -0.18712840675E+02  0.29233587361E+02  0.24424432523E+02  0.13209403484E+03  0.12509000000E+03 0.  0.
         25    1    4    4    0    0 -0.79506060241E+02  0.22684873498E+02 -0.33278587338E+02  0.15359293465E+03  0.12509000000E+03 0.  0.
         25    1    3    3    0    0  0.98218900915E+02 -0.51918460860E+02  0.16797823522E+02  0.16814325455E+03  0.12509000000E+03 0.  0.
<mgrwt>
<rscale>  2 0.45376070E+03</rscale>
<asrwt>0</asrwt>
<pdfrwt beam="1">  1       21 0.33953963E-01 0.45376070E+03</pdfrwt>
<pdfrwt beam="2">  1       21 0.32785776E-01 0.45376070E+03</pdfrwt>
<totfact> 0.69314449E+04</totfact>
</mgrwt>
</event>
<event>
 7    0  0.4748297E-002  0.4532646E+03  0.7546771E-02  0.1026753E+00
         21   -1    0    0  502  501  0.00000000000E+00  0.00000000000E+00  0.40506981098E+03  0.40506981098E+03  0.00000000000E+00 0.  1.
         21   -1    0    0  501  502 -0.00000000000E+00 -0.00000000000E+00 -0.12679841141E+03  0.12679841141E+03  0.00000000000E+00 0.  1.
      99926    2    1    2    0    0  0.71054273576E-14  0.14210854715E-13  0.27827139957E+03  0.53186822239E+03  0.45326464032E+03 0.  0.
      99925    2    3    3    0    0 -0.60763501779E+02 -0.85208635356E+02  0.22058056068E+03  0.35886979558E+03  0.26301907106E+03 0.  0.
         25    1    3    3    0    0  0.60763501779E+02  0.85208635356E+02  0.57690838892E+02  0.17299842681E+03  0.12509000000E+03 0.  0.
         25    1    4    4    0    0 -0.60393497683E+02 -0.66689927136E+02  0.14480901575E+03  0.21145231161E+03  0.12509000000E+03 0.  0.
         25    1    4    4    0    0 -0.37000409618E+00 -0.18518708220E+02  0.75771544934E+02  0.14741748397E+03  0.12509000000E+03 0.  0.
<mgrwt>
<rscale>  2 0.45326464E+03</rscale>
<asrwt>0</asrwt>
<pdfrwt beam="1">  1       21 0.59569089E-01 0.45326464E+03</pdfrwt>
<pdfrwt beam="2">  1       21 0.18646825E-01 0.45326464E+03</pdfrwt>
<totfact> 0.63954794E+04</totfact>
</mgrwt>
</event>
<event>
 7    0  0.4748297E-002  0.4463727E+03  0.7546771E-02  0.1028809E+00
         21   -1    0    0  502  501  0.00000000000E+00  0.00000000000E+00  0.45226503615E+03  0.45226503615E+03  0.00000000000E+00 0. -1.
         21   -1    0    0  501  502 -0.00000000000E+00 -0.00000000000E+00 -0.11013929241E+03  0.11013929241E+03  0.00000000000E+00 0. -1.
      99926    2    1    2    0    0 -0.71054273576E-14  0.35527136788E-14  0.34212574374E+03  0.56240432856E+03  0.44637271898E+03 0.  0.
      99925    2    3    3    0    0 -0.47309882099E+02  0.12848447789E+02  0.33372535989E+03  0.42778864558E+03  0.26311062672E+03 0.  0.
         25    1    4    4    0    0  0.90879685983E+01 -0.15057083198E+02  0.13738204326E+03  0.18662968906E+03  0.12509000000E+03 0.  0.
         25    1    3    3    0    0  0.47309882099E+02 -0.12848447789E+02  0.84003838488E+01  0.13461568298E+03  0.12509000000E+03 0.  0.
         25    1    4    4    0    0 -0.56397850697E+02  0.27905530987E+02  0.19634331663E+03  0.24115895652E+03  0.12509000000E+03 0.  0.
<mgrwt>
<rscale>  2 0.44637272E+03</rscale>
<asrwt>0</asrwt>
<pdfrwt beam="1">  1       21 0.66509564E-01 0.44637272E+03</pdfrwt>
<pdfrwt beam="2">  1       21 0.16196955E-01 0.44637272E+03</pdfrwt>
<totfact> 0.65404115E+04</totfact>
</mgrwt>
</event>
<event>
 7    0  0.4748297E-002  0.4544009E+03  0.7546771E-02  0.1026418E+00
         21   -1    0    0  502  501  0.00000000000E+00  0.00000000000E+00  0.44939423283E+03  0.44939423283E+03  0.00000000000E+00 0. -1.
         21   -1    0    0  501  502 -0.00000000000E+00 -0.00000000000E+00 -0.11486582011E+03  0.11486582011E+03  0.00000000000E+00 0. -1.
      99926    2    1    2    0    0  0.00000000000E+00 -0.35527136788E-14  0.33452841272E+03  0.56426005295E+03  0.45440086756E+03 0.  0.
      99925    2    3    3    0    0 -0.17773454114E+02  0.16330631818E+02  0.34682763019E+03  0.43627035001E+03  0.26355232504E+03 0.  0.
         25    1    3    3    0    0  0.17773454114E+02 -0.16330631818E+02 -0.12299217467E+02  0.12798970293E+03  0.12509000000E+03 0.  0.
         25    1    4    4    0    0 -0.74782800890E+01  0.40808828251E+02  0.13378755545E+03  0.18779750592E+03  0.12509000000E+03 0.  0.
         25    1    4    4    0    0 -0.10295174025E+02 -0.24478196433E+02  0.21304007473E+03  0.24847284409E+03  0.12509000000E+03 0.  0.
<mgrwt>
<rscale>  2 0.45440087E+03</rscale>
<asrwt>0</asrwt>
<pdfrwt beam="1">  1       21 0.66087387E-01 0.45440087E+03</pdfrwt>
<pdfrwt beam="2">  1       21 0.16892032E-01 0.45440087E+03</pdfrwt>
<totfact> 0.61223511E+04</totfact>
</mgrwt>
</event>
<event>
 7    0  0.4748297E-002  0.4482366E+03  0.7546771E-02  0.1028249E+00
         21   -1    0    0  502  501  0.00000000000E+00  0.00000000000E+00  0.66196936061E+03  0.66196936061E+03  0.00000000000E+00 0.  1.
         21   -1    0    0  501  502 -0.00000000000E+00 -0.00000000000E+00 -0.75878142757E+02  0.75878142757E+02  0.00000000000E+00 0.  1.
      99926    2    1    2    0    0  0.35527136788E-14  0.17763568394E-14  0.58609121786E+03  0.73784750337E+03  0.44823656988E+03 0.  0.
      99925    2    3    3    0    0  0.27282144039E+02  0.80300558016E+01  0.54035373226E+03  0.60165564286E+03  0.26305619066E+03 0.  0.
         25    1    4    4    0    0  0.42652083438E+02 -0.16365397290E+02  0.32054454047E+03  0.34710709727E+03  0.12509000000E+03 0.  0.
         25    1    3    3    0    0 -0.27282144039E+02 -0.80300558016E+01  0.45737485598E+02  0.13619186051E+03  0.12509000000E+03 0.  0.
         25    1    4    4    0    0 -0.15369939399E+02  0.24395453091E+02  0.21980919178E+03  0.25454854559E+03  0.12509000000E+03 0.  0.
<mgrwt>
<rscale>  2 0.44823657E+03</rscale>
<asrwt>0</asrwt>
<pdfrwt beam="1">  1       21 0.97348432E-01 0.44823657E+03</pdfrwt>
<pdfrwt beam="2">  1       21 0.11158551E-01 0.44823657E+03</pdfrwt>
<totfact> 0.53694447E+04</totfact>
</mgrwt>
</event>
<event>
 7    0  0.4748297E-002  0.4572410E+03  0.7546771E-02  0.1025584E+00
         21   -1    0    0  502  501  0.00000000000E+00  0.00000000000E+00  0.65420708063E+03  0.65420708063E+03  0.00000000000E+00 0. -1.
         21   -1    0    0  501  502 -0.00000000000E+00 -0.00000000000E+00 -0.79894178212E+02  0.79894178212E+02  0.00000000000E+00 0. -1.
      99926    2    1    2    0    0  0.00000000000E+00 -0.17763568394E-14  0.57431290242E+03  0.73410125884E+03  0.45724101779E+03 0.  0.
      99925    2    3    3    0    0 -0.70192408639E+02 -0.13296004658E+02  0.50581998799E+03  0.57459406340E+03  0.26306029627E+03 0.  0.
         25    1    4    4    0    0 -0.41309413954E+02 -0.28808077831E+02  0.32874903951E+03  0.35533056737E+03  0.12509000000E+03 0.  0.
         25    1    4    4    0    0 -0.28882994685E+02  0.15512073173E+02  0.17707094849E+03  0.21926349604E+03  0.12509000000E+03 0.  0.
         25    1    3    3    0    0  0.70192408639E+02  0.13296004658E+02  0.68492914427E+02  0.15950719544E+03  0.12509000000E+03 0.  0.
<mgrwt>
<rscale>  2 0.45724102E+03</rscale>
<asrwt>0</asrwt>
<pdfrwt beam="1">  1       21 0.96206921E-01 0.45724102E+03</pdfrwt>
<pdfrwt beam="2">  1       21 0.11749144E-01 0.45724102E+03</pdfrwt>
<totfact> 0.50199893E+04</totfact>
</mgrwt>
</event>
<event>
 7    0  0.4748297E-002  0.4556775E+03  0.7546771E-02  0.1026042E+00
         21   -1    0    0  502  501  0.00000000000E+00  0.00000000000E+00  0.34160022766E+03  0.34160022766E+03  0.00000000000E+00 0.  1.
         21   -1    0    0  501  502 -0.00000000000E+00 -0.00000000000E+00 -0.15196274163E+03  0.15196274163E+03  0.00000000000E+00 0.  1.
      99926    2    1    2    0    0  0.00000000000E+00  0.00000000000E+00  0.18963748604E+03  0.49356296929E+03  0.45567754887E+03 0.  0.
      99925    2    3    3    0    0 -0.29684054788E+02  0.88185238995E+02  0.48096290118E+02  0.28299422107E+03  0.26289674123E+03 0.  0.
         25    1    4    4    0    0 -0.45150228838E+02  0.17636913705E+02  0.29506292306E+02  0.13735986777E+03  0.12509000000E+03 0.  0.
         25    1    4    4    0    0  0.15466174050E+02  0.70548325290E+02  0.18589997812E+02  0.14563435329E+03  0.12509000000E+03 0.  0.
         25    1    3    3    0    0  0.29684054788E+02 -0.88185238995E+02  0.14154119592E+03  0.21056874822E+03  0.12509000000E+03 0.  0.
<mgrwt>
<rscale>  2 0.45567755E+03</rscale>
<asrwt>0</asrwt>
<pdfrwt beam="1">  1       21 0.50235327E-01 0.45567755E+03</pdfrwt>
<pdfrwt beam="2">  1       21 0.22347462E-01 0.45567755E+03</pdfrwt>
<totfact> 0.65372947E+04</totfact>
</mgrwt>
</event>
<event>
 7    0  0.4748297E-002  0.4542699E+03  0.7546771E-02  0.1026456E+00
         21   -1    0    0  502  501  0.00000000000E+00  0.00000000000E+00  0.10164956691E+03  0.10164956691E+03  0.00000000000E+00 0. -1.
         21   -1    0    0  501  502 -0.00000000000E+00 -0.00000000000E+00 -0.50753087763E+03  0.50753087763E+03  0.00000000000E+00 0. -1.
      99926    2    1    2    0    0  0.00000000000E+00  0.00000000000E+00 -0.40588131071E+03  0.60918044454E+03  0.45426993696E+03 0.  0.
      99925    2    3    3    0    0  0.23636189183E+02  0.53185035348E+02 -0.38461392429E+03  0.46958414355E+03  0.26304767571E+03 0.  0.
         25    1    3    3    0    0 -0.23636189183E+02 -0.53185035348E+02 -0.21267386425E+02  0.13959630099E+03  0.12509000000E+03 0.  0.
         25    1    4    4    0    0  0.21957758422E+02 -0.94012248046E+01 -0.21318113590E+03  0.24832283622E+03  0.12509000000E+03 0.  0.
         25    1    4    4    0    0  0.16784307607E+01  0.62586260153E+02 -0.17143278839E+03  0.22126130734E+03  0.12509000000E+03 0.  0.
<mgrwt>
<rscale>  2 0.45426994E+03</rscale>
<asrwt>0</asrwt>
<pdfrwt beam="1">  1       21 0.14948466E-01 0.45426994E+03</pdfrwt>
<pdfrwt beam="2">  1       21 0.74636895E-01 0.45426994E+03</pdfrwt>
<totfact> 0.58453078E+04</totfact>
</mgrwt>
</event>
<event>
 7    0  0.4748297E-002  0.4494191E+03  0.7546771E-02  0.1027895E+00
         21   -1    0    0  502  501  0.00000000000E+00  0.00000000000E+00  0.41808971222E+03  0.41808971222E+03  0.00000000000E+00 0. -1.
         21   -1    0    0  501  502 -0.00000000000E+00 -0.00000000000E+00 -0.12077405428E+03  0.12077405428E+03  0.00000000000E+00 0. -1.
      99926    2    1    2    0    0 -0.14210854715E-13  0.71054273576E-14  0.29731565794E+03  0.53886376651E+03  0.44941913443E+03 0.  0.
      99925    2    3    3    0    0 -0.93331059315E+02  0.50955351200E+02  0.16643347125E+03  0.32889998548E+03  0.26299803355E+03 0.  0.
         25    1    4    4    0    0 -0.68241301753E+02 -0.26150583385E+01  0.10743366755E+03  0.17847468957E+03  0.12509000000E+03 0.  0.
         25    1    3    3    0    0  0.93331059315E+02 -0.50955351200E+02  0.13088218669E+03  0.20996378102E+03  0.12509000000E+03 0.  0.
         25    1    4    4    0    0 -0.25089757562E+02  0.53570409538E+02  0.58999803702E+02  0.15042529591E+03  0.12509000000E+03 0.  0.
<mgrwt>
<rscale>  2 0.44941913E+03</rscale>
<asrwt>0</asrwt>
<pdfrwt beam="1">  1       21 0.61483781E-01 0.44941913E+03</pdfrwt>
<pdfrwt beam="2">  1       21 0.17760891E-01 0.44941913E+03</pdfrwt>
<totfact> 0.65451737E+04</totfact>
</mgrwt>
</event>
<event>
 7    0  0.4748297E-002  0.4259373E+03  0.7546771E-02  0.1035151E+00
         21   -1    0    0  502  501  0.00000000000E+00  0.00000000000E+00  0.38863036651E+03  0.38863036651E+03  0.00000000000E+00 0. -1.
         21   -1    0    0  501  502 -0.00000000000E+00 -0.00000000000E+00 -0.11670636901E+03  0.11670636901E+03  0.00000000000E+00 0. -1.
      99926    2    1    2    0    0 -0.14210854715E-13  0.00000000000E+00  0.27192399750E+03  0.50533673551E+03  0.42593726750E+03 0.  0.
      99925    2    3    3    0    0  0.82227728180E+02  0.95613036513E+01  0.18331489786E+03  0.33111877304E+03  0.26302561144E+03 0.  0.
         25    1    3    3    0    0 -0.82227728180E+02 -0.95613036513E+01  0.88609099647E+02  0.17421796248E+03  0.12509000000E+03 0.  0.
         25    1    4    4    0    0  0.69485615609E+00 -0.72158205808E+01  0.89488045217E+02  0.15397457332E+03  0.12509000000E+03 0.  0.
         25    1    4    4    0    0  0.81532872024E+02  0.16777124232E+02  0.93826852640E+02  0.17714419972E+03  0.12509000000E+03 0.  0.
<mgrwt>
<rscale>  2 0.42593727E+03</rscale>
<asrwt>0</asrwt>
<pdfrwt beam="1">  1       21 0.57151524E-01 0.42593727E+03</pdfrwt>
<pdfrwt beam="2">  1       21 0.17162701E-01 0.42593727E+03</pdfrwt>
<totfact> 0.82286472E+04</totfact>
</mgrwt>
</event>
<event>
 7    0  0.4748297E-002  0.4639796E+03  0.7546771E-02  0.1023633E+00
         21   -1    0    0  502  501  0.00000000000E+00  0.00000000000E+00  0.15227914020E+04  0.15227914020E+04  0.00000000000E+00 0.  1.
         21   -1    0    0  501  502 -0.00000000000E+00 -0.00000000000E+00 -0.35342511493E+02  0.35342511493E+02  0.00000000000E+00 0.  1.
      99926    2    1    2    0    0  0.22204460493E-15  0.00000000000E+00  0.14874488906E+04  0.15581339135E+04  0.46397962295E+03 0.  0.
      99925    2    3    3    0    0 -0.12370584198E+01  0.65697854421E+02  0.12713745686E+04  0.12999607951E+04  0.26303428799E+03 0.  0.
         25    1    4    4    0    0 -0.35430462007E+01  0.56078747123E+02  0.82353456038E+03  0.83487367865E+03  0.12509000000E+03 0.  0.
         25    1    3    3    0    0  0.12370584198E+01 -0.65697854421E+02  0.21607432194E+03  0.25817311845E+03  0.12509000000E+03 0.  0.
         25    1    4    4    0    0  0.23059877809E+01  0.96191072987E+01  0.44784000823E+03  0.46508711644E+03  0.12509000000E+03 0.  0.
<mgrwt>
<rscale>  2 0.46397962E+03</rscale>
<asrwt>0</asrwt>
<pdfrwt beam="1">  1       21 0.22393987E+00 0.46397962E+03</pdfrwt>
<pdfrwt beam="2">  1       21 0.51974292E-02 0.46397962E+03</pdfrwt>
<totfact> 0.20894165E+04</totfact>
</mgrwt>
</event>
<event>
 7    0  0.4748297E-002  0.4423950E+03  0.7546771E-02  0.1030015E+00
         21   -1    0    0  502  501  0.00000000000E+00  0.00000000000E+00  0.38760607201E+02  0.38760607201E+02  0.00000000000E+00 0.  1.
         21   -1    0    0  501  502 -0.00000000000E+00 -0.00000000000E+00 -0.12623210422E+04  0.12623210422E+04  0.00000000000E+00 0.  1.
      99926    2    1    2    0    0  0.00000000000E+00  0.00000000000E+00 -0.12235604350E+04  0.13010816494E+04  0.44239498224E+03 0.  0.
      99925    2    3    3    0    0  0.86180033272E+02  0.32670724102E+02 -0.65855153236E+03  0.71509791028E+03  0.26302191196E+03 0.  0.
         25    1    3    3    0    0 -0.86180033272E+02 -0.32670724102E+02 -0.56500890259E+03  0.58598373907E+03  0.12509000000E+03 0.  0.
         25    1    4    4    0    0  0.89549385283E+01  0.32494986423E+02 -0.35297683728E+03  0.37600036014E+03  0.12509000000E+03 0.  0.
         25    1    4    4    0    0  0.77225094744E+02  0.17573767866E+00 -0.30557469507E+03  0.33909755014E+03  0.12509000000E+03 0.  0.
<mgrwt>
<rscale>  2 0.44239498E+03</rscale>
<asrwt>0</asrwt>
<pdfrwt beam="1">  1       21 0.57000889E-02 0.44239498E+03</pdfrwt>
<pdfrwt beam="2">  1       21 0.18563546E+00 0.44239498E+03</pdfrwt>
<totfact> 0.32118307E+04</totfact>
</mgrwt>
</event>
<event>
 7    0  0.4748297E-002  0.4567414E+03  0.7546771E-02  0.1025731E+00
         21   -1    0    0  502  501  0.00000000000E+00  0.00000000000E+00  0.34124123835E+03  0.34124123835E+03  0.00000000000E+00 0.  1.
         21   -1    0    0  501  502 -0.00000000000E+00 -0.00000000000E+00 -0.15283372980E+03  0.15283372980E+03  0.00000000000E+00 0.  1.
      99926    2    1    2    0    0  0.14210854715E-13 -0.71054273576E-14  0.18840750855E+03  0.49407496814E+03  0.45674137635E+03 0.  0.
      99925    2    3    3    0    0 -0.99042405335E+02  0.48789856278E+02  0.15237415253E+03  0.32338296781E+03  0.26299964521E+03 0.  0.
         25    1    3    3    0    0  0.99042405335E+02 -0.48789856278E+02  0.36033356023E+02  0.17069200033E+03  0.12509000000E+03 0.  0.
         25    1    4    4    0    0 -0.87927269668E+02  0.42899772526E+02  0.96312609198E+02  0.18572889389E+03  0.12509000000E+03 0.  0.
         25    1    4    4    0    0 -0.11115135667E+02  0.58900837514E+01  0.56061543328E+02  0.13765407392E+03  0.12509000000E+03 0.  0.
<mgrwt>
<rscale>  2 0.45674138E+03</rscale>
<asrwt>0</asrwt>
<pdfrwt beam="1">  1       21 0.50182535E-01 0.45674138E+03</pdfrwt>
<pdfrwt beam="2">  1       21 0.22475549E-01 0.45674138E+03</pdfrwt>
<totfact> 0.64788653E+04</totfact>
</mgrwt>
</event>
<event>
 7    0  0.4748297E-002  0.4525670E+03  0.7546771E-02  0.1026959E+00
         21   -1    0    0  502  501  0.00000000000E+00  0.00000000000E+00  0.83979171455E+03  0.83979171455E+03  0.00000000000E+00 0. -1.
         21   -1    0    0  501  502 -0.00000000000E+00 -0.00000000000E+00 -0.60972539470E+02  0.60972539470E+02  0.00000000000E+00 0. -1.
      99926    2    1    2    0    0  0.00000000000E+00  0.00000000000E+00  0.77881917508E+03  0.90076425402E+03  0.45256704901E+03 0.  0.
      99925    2    3    3    0    0  0.28990015798E+02 -0.57669870869E+02  0.67054894333E+03  0.72317994670E+03  0.26303443670E+03 0.  0.
         25    1    3    3    0    0 -0.28990015798E+02  0.57669870869E+02  0.10827023175E+03  0.17758430731E+03  0.12509000000E+03 0.  0.
         25    1    4    4    0    0 -0.32453155039E+01 -0.58247591280E+02  0.40509426871E+03  0.42796283554E+03  0.12509000000E+03 0.  0.
         25    1    4    4    0    0  0.32235331302E+02  0.57772041153E+00  0.26545467462E+03  0.29521711117E+03  0.12509000000E+03 0.  0.
<mgrwt>
<rscale>  2 0.45256705E+03</rscale>
<asrwt>0</asrwt>
<pdfrwt beam="1">  1       21 0.12349877E+00 0.45256705E+03</pdfrwt>
<pdfrwt beam="2">  1       21 0.89665504E-02 0.45256705E+03</pdfrwt>
<totfact> 0.44033460E+04</totfact>
</mgrwt>
</event>
<event>
 7    0  0.4748297E-002  0.4577272E+03  0.7546771E-02  0.1025442E+00
         21   -1    0    0  502  501  0.00000000000E+00  0.00000000000E+00  0.59946179194E+03  0.59946179194E+03  0.00000000000E+00 0. -1.
         21   -1    0    0  501  502 -0.00000000000E+00 -0.00000000000E+00 -0.87375967930E+02  0.87375967930E+02  0.00000000000E+00 0. -1.
      99926    2    1    2    0    0  0.00000000000E+00  0.00000000000E+00  0.51208582401E+03  0.68683775987E+03  0.45772723016E+03 0.  0.
      99925    2    3    3    0    0  0.10156688346E+03 -0.20492127677E+02  0.39863022728E+03  0.48870790437E+03  0.26304676120E+03 0.  0.
         25    1    4    4    0    0  0.23814821521E+02  0.21292496007E+02  0.19712869698E+03  0.23564326297E+03  0.12509000000E+03 0.  0.
         25    1    3    3    0    0 -0.10156688346E+03  0.20492127677E+02  0.11345559673E+03  0.19812985550E+03  0.12509000000E+03 0.  0.
         25    1    4    4    0    0  0.77752061937E+02 -0.41784623684E+02  0.20150153030E+03  0.25306464139E+03  0.12509000000E+03 0.  0.
<mgrwt>
<rscale>  2 0.45772723E+03</rscale>
<asrwt>0</asrwt>
<pdfrwt beam="1">  1       21 0.88156144E-01 0.45772723E+03</pdfrwt>
<pdfrwt beam="2">  1       21 0.12849407E-01 0.45772723E+03</pdfrwt>
<totfact> 0.52487542E+04</totfact>
</mgrwt>
</event>
<event>
 6    0  0.4748297E-002  0.4079239E+03  0.7546771E-02  0.1041070E+00
         21   -1    0    0  502  501  0.00000000000E+00  0.00000000000E+00  0.20287704163E+02  0.20287704163E+02  0.00000000000E+00 0.  1.
         21   -1    0    0  501  502 -0.00000000000E+00 -0.00000000000E+00 -0.20505267344E+04  0.20505267344E+04  0.00000000000E+00 0.  1.
      99926    2    1    2    0    0 -0.35527136788E-14  0.00000000000E+00 -0.20302390303E+04  0.20708144386E+04  0.40792391333E+03 0.  0.
         25    1    3    3    0    0  0.14441366510E+02 -0.48311773148E+02 -0.66609614993E+03  0.67961324997E+03  0.12509000000E+03 0.  0.
         25    1    3    3    0    0  0.23994392930E+02  0.32005883913E+02 -0.86585159478E+03  0.87575487425E+03  0.12509000000E+03 0.  0.
         25    1    3    3    0    0 -0.38435759440E+02  0.16305889235E+02 -0.49829128556E+03  0.51544631437E+03  0.12509000000E+03 0.  0.
<mgrwt>
<rscale>  2 0.40792391E+03</rscale>
<asrwt>0</asrwt>
<pdfrwt beam="1">  1       21 0.29834848E-02 0.40792391E+03</pdfrwt>
<pdfrwt beam="2">  1       21 0.30154816E+00 0.40792391E+03</pdfrwt>
<totfact> 0.18474646E+04</totfact>
</mgrwt>
</event>
<event>
 7    0  0.4748297E-002  0.4489570E+03  0.7546771E-02  0.1028034E+00
         21   -1    0    0  502  501  0.00000000000E+00  0.00000000000E+00  0.15857831572E+03  0.15857831572E+03  0.00000000000E+00 0.  1.
         21   -1    0    0  501  502 -0.00000000000E+00 -0.00000000000E+00 -0.31776475588E+03  0.31776475588E+03  0.00000000000E+00 0.  1.
      99926    2    1    2    0    0  0.00000000000E+00  0.00000000000E+00 -0.15918644015E+03  0.47634307160E+03  0.44895701256E+03 0.  0.
      99925    2    3    3    0    0  0.69222744355E+02  0.82402731824E+02 -0.10248429738E+03  0.30185914786E+03  0.26274305964E+03 0.  0.
         25    1    4    4    0    0  0.64352801710E+02  0.72370001188E+02 -0.52308239677E+02  0.16662040751E+03  0.12509000000E+03 0.  0.
         25    1    4    4    0    0  0.48699426449E+01  0.10032730635E+02 -0.50176057701E+02  0.13523874035E+03  0.12509000000E+03 0.  0.
         25    1    3    3    0    0 -0.69222744355E+02 -0.82402731824E+02 -0.56702142775E+02  0.17448392374E+03  0.12509000000E+03 0.  0.
<mgrwt>
<rscale>  2 0.44895701E+03</rscale>
<asrwt>0</asrwt>
<pdfrwt beam="1">  1       21 0.23320341E-01 0.44895701E+03</pdfrwt>
<pdfrwt beam="2">  1       21 0.46730111E-01 0.44895701E+03</pdfrwt>
<totfact> 0.70278185E+04</totfact>
</mgrwt>
</event>
<event>
 7    0  0.4748297E-002  0.4527862E+03  0.7546771E-02  0.1026894E+00
         21   -1    0    0  502  501  0.00000000000E+00  0.00000000000E+00  0.14956086152E+03  0.14956086152E+03  0.00000000000E+00 0.  1.
         21   -1    0    0  501  502 -0.00000000000E+00 -0.00000000000E+00 -0.34269555692E+03  0.34269555692E+03  0.00000000000E+00 0.  1.
      99926    2    1    2    0    0  0.00000000000E+00  0.00000000000E+00 -0.19313469540E+03  0.49225641844E+03  0.45278623094E+03 0.  0.
      99925    2    3    3    0    0  0.99160887595E+02  0.20240584694E+02 -0.72454377044E+02  0.29112509259E+03  0.26317602453E+03 0.  0.
         25    1    4    4    0    0  0.55990933801E+02  0.37936572266E+02 -0.67793347630E+02  0.15753607290E+03  0.12509000000E+03 0.  0.
         25    1    3    3    0    0 -0.99160887595E+02 -0.20240584694E+02 -0.12068031835E+03  0.20113132584E+03  0.12509000000E+03 0.  0.
         25    1    4    4    0    0  0.43169953794E+02 -0.17695987572E+02 -0.46610294144E+01  0.13358901969E+03  0.12509000000E+03 0.  0.
<mgrwt>
<rscale>  2 0.45278623E+03</rscale>
<asrwt>0</asrwt>
<pdfrwt beam="1">  1       21 0.21994245E-01 0.45278623E+03</pdfrwt>
<pdfrwt beam="2">  1       21 0.50396404E-01 0.45278623E+03</pdfrwt>
<totfact> 0.66987705E+04</totfact>
</mgrwt>
</event>
<event>
 7    0  0.4748297E-002  0.4459484E+03  0.7546771E-02  0.1028937E+00
         21   -1    0    0  502  501  0.00000000000E+00  0.00000000000E+00  0.14014096129E+03  0.14014096129E+03  0.00000000000E+00 0. -1.
         21   -1    0    0  501  502 -0.00000000000E+00 -0.00000000000E+00 -0.35476773194E+03  0.35476773194E+03  0.00000000000E+00 0. -1.
      99926    2    1    2    0    0 -0.14210854715E-13  0.00000000000E+00 -0.21462677065E+03  0.49490869323E+03  0.44594838709E+03 0.  0.
      99925    2    3    3    0    0  0.64810332741E+02 -0.81052991772E+02 -0.12808150841E+03  0.31076864538E+03  0.26344318448E+03 0.  0.
         25    1    3    3    0    0 -0.64810332741E+02  0.81052991772E+02 -0.86545262240E+02  0.18414004785E+03  0.12509000000E+03 0.  0.
         25    1    4    4    0    0  0.28742903993E+02 -0.18136738808E+02 -0.99424893823E+02  0.16336435791E+03  0.12509000000E+03 0.  0.
         25    1    4    4    0    0  0.36067428748E+02 -0.62916252964E+02 -0.28656614588E+02  0.14740428747E+03  0.12509000000E+03 0.  0.
<mgrwt>
<rscale>  2 0.44594839E+03</rscale>
<asrwt>0</asrwt>
<pdfrwt beam="1">  1       21 0.20608965E-01 0.44594839E+03</pdfrwt>
<pdfrwt beam="2">  1       21 0.52171724E-01 0.44594839E+03</pdfrwt>
<totfact> 0.70565414E+04</totfact>
</mgrwt>
</event>
<event>
 7    0  0.4748297E-002  0.4565984E+03  0.7546771E-02  0.1025772E+00
         21   -1    0    0  502  501  0.00000000000E+00  0.00000000000E+00  0.47663367344E+02  0.47663367344E+02  0.00000000000E+00 0.  1.
         21   -1    0    0  501  502 -0.00000000000E+00 -0.00000000000E+00 -0.10935132957E+04  0.10935132957E+04  0.00000000000E+00 0.  1.
      99926    2    1    2    0    0  0.00000000000E+00  0.00000000000E+00 -0.10458499283E+04  0.11411766630E+04  0.45659840520E+03 0.  0.
      99925    2    3    3    0    0  0.29598167042E+02 -0.14454523126E+02 -0.93160308474E+03  0.96859383043E+03  0.26306789263E+03 0.  0.
         25    1    4    4    0    0  0.45587295973E+02 -0.23529400750E+02 -0.55924909235E+03  0.57535979148E+03  0.12509000000E+03 0.  0.
         25    1    4    4    0    0 -0.15989128931E+02  0.90748776241E+01 -0.37235399239E+03  0.39323403896E+03  0.12509000000E+03 0.  0.
         25    1    3    3    0    0 -0.29598167042E+02  0.14454523126E+02 -0.11424684358E+03  0.17258283258E+03  0.12509000000E+03 0.  0.
<mgrwt>
<rscale>  2 0.45659841E+03</rscale>
<asrwt>0</asrwt>
<pdfrwt beam="1">  1       21 0.70093195E-02 0.45659841E+03</pdfrwt>
<pdfrwt beam="2">  1       21 0.16081076E+00 0.45659841E+03</pdfrwt>
<totfact> 0.33657055E+04</totfact>
</mgrwt>
</event>
<event>
 7    0  0.4748297E-002  0.4546144E+03  0.7546771E-02  0.1026355E+00
         21   -1    0    0  502  501  0.00000000000E+00  0.00000000000E+00  0.76624697374E+03  0.76624697374E+03  0.00000000000E+00 0. -1.
         21   -1    0    0  501  502 -0.00000000000E+00 -0.00000000000E+00 -0.67430681056E+02  0.67430681056E+02  0.00000000000E+00 0. -1.
      99926    2    1    2    0    0 -0.71054273576E-14  0.71054273576E-14  0.69881629268E+03  0.83367765480E+03  0.45461436535E+03 0.  0.
      99925    2    3    3    0    0  0.54798571273E+02 -0.60379501627E+02  0.58277348351E+03  0.64456919572E+03  0.26305122575E+03 0.  0.
         25    1    4    4    0    0  0.13888985085E+02 -0.38134491236E+02  0.20160058931E+03  0.24070199218E+03  0.12509000000E+03 0.  0.
         25    1    3    3    0    0 -0.54798571273E+02  0.60379501627E+02  0.11604280918E+03  0.18910845907E+03  0.12509000000E+03 0.  0.
         25    1    4    4    0    0  0.40909586188E+02 -0.22245010391E+02  0.38117289420E+03  0.40386720355E+03  0.12509000000E+03 0.  0.
<mgrwt>
<rscale>  2 0.45461437E+03</rscale>
<asrwt>0</asrwt>
<pdfrwt beam="1">  1       21 0.11268337E+00 0.45461437E+03</pdfrwt>
<pdfrwt beam="2">  1       21 0.99162771E-02 0.45461437E+03</pdfrwt>
<totfact> 0.46318579E+04</totfact>
</mgrwt>
</event>
<event>
 7    0  0.4748297E-002  0.4528072E+03  0.7546771E-02  0.1026888E+00
         21   -1    0    0  502  501  0.00000000000E+00  0.00000000000E+00  0.92814799899E+03  0.92814799899E+03  0.00000000000E+00 0.  1.
         21   -1    0    0  501  502 -0.00000000000E+00 -0.00000000000E+00 -0.55226748682E+02  0.55226748682E+02  0.00000000000E+00 0.  1.
      99926    2    1    2    0    0  0.26645352591E-14  0.14210854715E-13  0.87292125031E+03  0.98337474767E+03  0.45280722733E+03 0.  0.
      99925    2    3    3    0    0 -0.70196210667E+01  0.64907908227E+02  0.35531535764E+03  0.44688087086E+03  0.26304219763E+03 0.  0.
         25    1    4    4    0    0 -0.33545384103E+02  0.28248824562E+02  0.13279130822E+03  0.18762816559E+03  0.12509000000E+03 0.  0.
         25    1    3    3    0    0  0.70196210667E+01 -0.64907908227E+02  0.51760589267E+03  0.53649387681E+03  0.12509000000E+03 0.  0.
         25    1    4    4    0    0  0.26525763036E+02  0.36659083666E+02  0.22252404942E+03  0.25925270527E+03  0.12509000000E+03 0.  0.
<mgrwt>
<rscale>  2 0.45280723E+03</rscale>
<asrwt>0</asrwt>
<pdfrwt beam="1">  1       21 0.13649234E+00 0.45280723E+03</pdfrwt>
<pdfrwt beam="2">  1       21 0.81215813E-02 0.45280723E+03</pdfrwt>
<totfact> 0.40507723E+04</totfact>
</mgrwt>
</event>
<event>
 7    0  0.4748297E-002  0.4627910E+03  0.7546771E-02  0.1023975E+00
         21   -1    0    0  502  501  0.00000000000E+00  0.00000000000E+00  0.15896370776E+03  0.15896370776E+03  0.00000000000E+00 0.  1.
         21   -1    0    0  501  502 -0.00000000000E+00 -0.00000000000E+00 -0.33683088325E+03  0.33683088325E+03  0.00000000000E+00 0.  1.
      99926    2    1    2    0    0  0.00000000000E+00 -0.71054273576E-14 -0.17786717548E+03  0.49579459101E+03  0.46279103747E+03 0.  0.
      99925    2    3    3    0    0 -0.48711162754E+02  0.33309872865E+02  0.12077831833E+01  0.26952556103E+03  0.26298335366E+03 0.  0.
         25    1    4    4    0    0 -0.32142884124E+02  0.23136233205E+02 -0.38690306297E+02  0.13679509563E+03  0.12509000000E+03 0.  0.
         25    1    4    4    0    0 -0.16568278630E+02  0.10173639660E+02  0.39898089481E+02  0.13273046540E+03  0.12509000000E+03 0.  0.
         25    1    3    3    0    0  0.48711162754E+02 -0.33309872865E+02 -0.17907495867E+03  0.22626902998E+03  0.12509000000E+03 0.  0.
<mgrwt>
<rscale>  2 0.46279104E+03</rscale>
<asrwt>0</asrwt>
<pdfrwt beam="1">  1       21 0.23377016E-01 0.46279104E+03</pdfrwt>
<pdfrwt beam="2">  1       21 0.49533953E-01 0.46279104E+03</pdfrwt>
<totfact> 0.61664026E+04</totfact>
</mgrwt>
</event>
<event>
 7    0  0.4748297E-002  0.4606359E+03  0.7546771E-02  0.1024597E+00
         21   -1    0    0  502  501  0.00000000000E+00  0.00000000000E+00  0.73558773265E+03  0.73558773265E+03  0.00000000000E+00 0.  1.
         21   -1    0    0  501  502 -0.00000000000E+00 -0.00000000000E+00 -0.72114264366E+02  0.72114264366E+02  0.00000000000E+00 0.  1.
      99926    2    1    2    0    0  0.00000000000E+00 -0.17763568394E-14  0.66347346828E+03  0.80770199701E+03  0.46063594396E+03 0.  0.
      99925    2    3    3    0    0  0.52910282509E+02 -0.51581032338E+01  0.60089188945E+03  0.65806889194E+03  0.26297813543E+03 0.  0.
         25    1    4    4    0    0  0.93351482051E+01 -0.39234575382E+02  0.30305864714E+03  0.33033096828E+03  0.12509000000E+03 0.  0.
         25    1    3    3    0    0 -0.52910282509E+02  0.51581032338E+01  0.62581578836E+02  0.14963310507E+03  0.12509000000E+03 0.  0.
         25    1    4    4    0    0  0.43575134304E+02  0.34076472148E+02  0.29783324231E+03  0.32773792366E+03  0.12509000000E+03 0.  0.
<mgrwt>
<rscale>  2 0.46063594E+03</rscale>
<asrwt>0</asrwt>
<pdfrwt beam="1">  1       21 0.10817466E+00 0.46063594E+03</pdfrwt>
<pdfrwt beam="2">  1       21 0.10605039E-01 0.46063594E+03</pdfrwt>
<totfact> 0.45355083E+04</totfact>
</mgrwt>
</event>
<event>
 7    0  0.4748297E-002  0.4553347E+03  0.7546771E-02  0.1026143E+00
         21   -1    0    0  502  501  0.00000000000E+00  0.00000000000E+00  0.17580214888E+03  0.17580214888E+03  0.00000000000E+00 0.  1.
         21   -1    0    0  501  502 -0.00000000000E+00 -0.00000000000E+00 -0.29483381818E+03  0.29483381818E+03  0.00000000000E+00 0.  1.
      99926    2    1    2    0    0 -0.71054273576E-14  0.00000000000E+00 -0.11903166930E+03  0.47063596705E+03  0.45533468481E+03 0.  0.
      99925    2    3    3    0    0 -0.47981267222E+02 -0.66173430613E+02  0.63671082210E+01  0.27556293861E+03  0.26308414651E+03 0.  0.
         25    1    3    3    0    0  0.47981267222E+02  0.66173430613E+02 -0.12539877752E+03  0.19507302845E+03  0.12509000000E+03 0.  0.
         25    1    4    4    0    0 -0.11301229960E+02 -0.52485366993E+01  0.31251687215E+02  0.12953548159E+03  0.12509000000E+03 0.  0.
         25    1    4    4    0    0 -0.36680037262E+02 -0.60924893914E+02 -0.24884578994E+02  0.14602745702E+03  0.12509000000E+03 0.  0.
<mgrwt>
<rscale>  2 0.45533468E+03</rscale>
<asrwt>0</asrwt>
<pdfrwt beam="1">  1       21 0.25853258E-01 0.45533468E+03</pdfrwt>
<pdfrwt beam="2">  1       21 0.43357914E-01 0.45533468E+03</pdfrwt>
<totfact> 0.67209813E+04</totfact>
</mgrwt>
</event>
<event>
 7    0  0.4748297E-002  0.3926612E+03  0.7546771E-02  0.1046351E+00
         21   -1    0    0  502  501  0.00000000000E+00  0.00000000000E+00  0.13935241857E+03  0.13935241857E+03  0.00000000000E+00 0.  1.
         21   -1    0    0  501  502 -0.00000000000E+00 -0.00000000000E+00 -0.27660593361E+03  0.27660593361E+03  0.00000000000E+00 0.  1.
      99926    2    1    2    0    0  0.35527136788E-14  0.00000000000E+00 -0.13725351504E+03  0.41595835218E+03  0.39266120685E+03 0.  0.
      99925    2    3    3    0    0 -0.18504168636E+02  0.20289199374E+02 -0.96721923518E+02  0.28162900364E+03  0.26306978036E+03 0.  0.
         25    1    4    4    0    0  0.31334037789E+02  0.11962213858E+02 -0.50852007626E+02  0.13913429219E+03  0.12509000000E+03 0.  0.
         25    1    4    4    0    0 -0.49838206425E+02  0.83269855161E+01 -0.45869915891E+02  0.14249471145E+03  0.12509000000E+03 0.  0.
         25    1    3    3    0    0  0.18504168636E+02 -0.20289199374E+02 -0.40531591518E+02  0.13432934854E+03  0.12509000000E+03 0.  0.
<mgrwt>
<rscale>  2 0.39266121E+03</rscale>
<asrwt>0</asrwt>
<pdfrwt beam="1">  1       21 0.20493003E-01 0.39266121E+03</pdfrwt>
<pdfrwt beam="2">  1       21 0.40677342E-01 0.39266121E+03</pdfrwt>
<totfact> 0.12156163E+05</totfact>
</mgrwt>
</event>
<event>
 7    0  0.4748297E-002  0.4454062E+03  0.7546771E-02  0.1029101E+00
         21   -1    0    0  502  501  0.00000000000E+00  0.00000000000E+00  0.20758369661E+03  0.20758369661E+03  0.00000000000E+00 0. -1.
         21   -1    0    0  501  502 -0.00000000000E+00 -0.00000000000E+00 -0.23892372893E+03  0.23892372893E+03  0.00000000000E+00 0. -1.
      99926    2    1    2    0    0  0.00000000000E+00  0.44408920985E-15 -0.31340032320E+02  0.44650742553E+03  0.44540620048E+03 0.  0.
      99925    2    3    3    0    0  0.25543982030E+02 -0.12019918149E+01 -0.12095650278E+03  0.29051845259E+03  0.26290027754E+03 0.  0.
         25    1    4    4    0    0 -0.16286765252E+02 -0.25988072646E+02 -0.45774863025E+02  0.13668754452E+03  0.12509000000E+03 0.  0.
         25    1    4    4    0    0  0.41830747282E+02  0.24786080832E+02 -0.75181639753E+02  0.15383090807E+03  0.12509000000E+03 0.  0.
         25    1    3    3    0    0 -0.25543982030E+02  0.12019918149E+01  0.89616470459E+02  0.15598897294E+03  0.12509000000E+03 0.  0.
<mgrwt>
<rscale>  2 0.44540620E+03</rscale>
<asrwt>0</asrwt>
<pdfrwt beam="1">  1       21 0.30527015E-01 0.44540620E+03</pdfrwt>
<pdfrwt beam="2">  1       21 0.35135842E-01 0.44540620E+03</pdfrwt>
<totfact> 0.74731193E+04</totfact>
</mgrwt>
</event>
<event>
 7    0  0.4748297E-002  0.4478602E+03  0.7546771E-02  0.1028362E+00
         21   -1    0    0  502  501  0.00000000000E+00  0.00000000000E+00  0.22479440790E+03  0.22479440790E+03  0.00000000000E+00 0.  1.
         21   -1    0    0  501  502 -0.00000000000E+00 -0.00000000000E+00 -0.22306906567E+03  0.22306906567E+03  0.00000000000E+00 0.  1.
      99926    2    1    2    0    0  0.00000000000E+00  0.71054273576E-14  0.17253422344E+01  0.44786347357E+03  0.44786015022E+03 0.  0.
      99925    2    3    3    0    0  0.75313929650E+02  0.52594691308E+02  0.55739030465E+02  0.28353643329E+03  0.26238841425E+03 0.  0.
         25    1    3    3    0    0 -0.75313929650E+02 -0.52594691308E+02 -0.54013688231E+02  0.16432704029E+03  0.12509000000E+03 0.  0.
         25    1    4    4    0    0  0.77879064183E+02  0.35228581734E+02  0.25269002321E+02  0.15359763080E+03  0.12509000000E+03 0.  0.
         25    1    4    4    0    0 -0.25651345327E+01  0.17366109574E+02  0.30470028144E+02  0.12993880249E+03  0.12509000000E+03 0.  0.
<mgrwt>
<rscale>  2 0.44786015E+03</rscale>
<asrwt>0</asrwt>
<pdfrwt beam="1">  1       21 0.33058001E-01 0.44786015E+03</pdfrwt>
<pdfrwt beam="2">  1       21 0.32804274E-01 0.44786015E+03</pdfrwt>
<totfact> 0.73151137E+04</totfact>
</mgrwt>
</event>
<event>
 7    0  0.4748297E-002  0.4580984E+03  0.7546771E-02  0.1025334E+00
         21   -1    0    0  502  501  0.00000000000E+00  0.00000000000E+00  0.58725369250E+03  0.58725369250E+03  0.00000000000E+00 0. -1.
         21   -1    0    0  501  502 -0.00000000000E+00 -0.00000000000E+00 -0.89337082762E+02  0.89337082762E+02  0.00000000000E+00 0. -1.
      99926    2    1    2    0    0 -0.71054273576E-14  0.00000000000E+00  0.49791660974E+03  0.67659077527E+03  0.45809838126E+03 0.  0.
      99925    2    3    3    0    0 -0.31859839482E+02 -0.44390290294E+02  0.46363784586E+03  0.53584956240E+03  0.26303831312E+03 0.  0.
         25    1    4    4    0    0  0.75005701287E+01  0.11059258080E+02  0.23342073022E+03  0.26516280119E+03  0.12509000000E+03 0.  0.
         25    1    4    4    0    0 -0.39360409611E+02 -0.55449548374E+02  0.23021711565E+03  0.27068676121E+03  0.12509000000E+03 0.  0.
         25    1    3    3    0    0  0.31859839482E+02  0.44390290294E+02  0.34278763880E+02  0.14074121286E+03  0.12509000000E+03 0.  0.
<mgrwt>
<rscale>  2 0.45809838E+03</rscale>
<asrwt>0</asrwt>
<pdfrwt beam="1">  1       21 0.86360835E-01 0.45809838E+03</pdfrwt>
<pdfrwt beam="2">  1       21 0.13137807E-01 0.45809838E+03</pdfrwt>
<totfact> 0.52889524E+04</totfact>
</mgrwt>
</event>
<event>
 7    0  0.4748297E-002  0.4585128E+03  0.7546771E-02  0.1025213E+00
         21   -1    0    0  502  501  0.00000000000E+00  0.00000000000E+00  0.87326841190E+02  0.87326841190E+02  0.00000000000E+00 0.  1.
         21   -1    0    0  501  502 -0.00000000000E+00 -0.00000000000E+00 -0.60185957638E+03  0.60185957638E+03  0.00000000000E+00 0.  1.
      99926    2    1    2    0    0  0.00000000000E+00  0.00000000000E+00 -0.51453273519E+03  0.68918641757E+03  0.45851279435E+03 0.  0.
      99925    2    3    3    0    0 -0.96340920669E+02  0.59813865585E+02 -0.28252112459E+03  0.40224362350E+03  0.26291153512E+03 0.  0.
         25    1    4    4    0    0 -0.49101111948E+02 -0.10918777082E+02 -0.14122445545E+03  0.19524854367E+03  0.12509000000E+03 0.  0.
         25    1    3    3    0    0  0.96340920669E+02 -0.59813865585E+02 -0.23201161060E+03  0.28694279406E+03  0.12509000000E+03 0.  0.
         25    1    4    4    0    0 -0.47239808722E+02  0.70732642667E+02 -0.14129666913E+03  0.20699507983E+03  0.12509000000E+03 0.  0.
<mgrwt>
<rscale>  2 0.45851279E+03</rscale>
<asrwt>0</asrwt>
<pdfrwt beam="1">  1       21 0.12842183E-01 0.45851279E+03</pdfrwt>
<pdfrwt beam="2">  1       21 0.88508761E-01 0.45851279E+03</pdfrwt>
<totfact> 0.52040032E+04</totfact>
</mgrwt>
</event>
<event>
 7    0  0.4748297E-002  0.4551841E+03  0.7546771E-02  0.1026187E+00
         21   -1    0    0  502  501  0.00000000000E+00  0.00000000000E+00  0.70561059920E+03  0.70561059920E+03  0.00000000000E+00 0. -1.
         21   -1    0    0  501  502 -0.00000000000E+00 -0.00000000000E+00 -0.73408969119E+02  0.73408969119E+02  0.00000000000E+00 0. -1.
      99926    2    1    2    0    0  0.00000000000E+00  0.00000000000E+00  0.63220163009E+03  0.77901956832E+03  0.45518412401E+03 0.  0.
      99925    2    3    3    0    0  0.32458211016E+02 -0.16596055231E+02  0.58135382990E+03  0.63915545071E+03  0.26309399484E+03 0.  0.
         25    1    3    3    0    0 -0.32458211016E+02  0.16596055231E+02  0.50847800182E+02  0.13986411761E+03  0.12509000000E+03 0.  0.
         25    1    4    4    0    0 -0.22795609855E+02  0.14172447425E+01  0.29885423673E+03  0.32478148242E+03  0.12509000000E+03 0.  0.
         25    1    4    4    0    0  0.55253820872E+02 -0.18013299973E+02  0.28249959318E+03  0.31437396830E+03  0.12509000000E+03 0.  0.
<mgrwt>
<rscale>  2 0.45518412E+03</rscale>
<asrwt>0</asrwt>
<pdfrwt beam="1">  1       21 0.10376626E+00 0.45518412E+03</pdfrwt>
<pdfrwt beam="2">  1       21 0.10795437E-01 0.45518412E+03</pdfrwt>
<totfact> 0.48725929E+04</totfact>
</mgrwt>
</event>
<event>
 7    0  0.4748297E-002  0.4538796E+03  0.7546771E-02  0.1026571E+00
         21   -1    0    0  502  501  0.00000000000E+00  0.00000000000E+00  0.41242698937E+03  0.41242698937E+03  0.00000000000E+00 0. -1.
         21   -1    0    0  501  502 -0.00000000000E+00 -0.00000000000E+00 -0.12487462547E+03  0.12487462547E+03  0.00000000000E+00 0. -1.
      99926    2    1    2    0    0 -0.14210854715E-13  0.00000000000E+00  0.28755236391E+03  0.53730161484E+03  0.45387956918E+03 0.  0.
      99925    2    3    3    0    0 -0.82648848039E+02  0.75027852964E+02  0.19354094055E+03  0.34508905899E+03  0.26299876837E+03 0.  0.
         25    1    4    4    0    0 -0.51763320057E+02  0.17685808290E+02  0.54378071198E+02  0.14695819761E+03  0.12509000000E+03 0.  0.
         25    1    4    4    0    0 -0.30885527982E+02  0.57342044674E+02  0.13916286935E+03  0.19813086138E+03  0.12509000000E+03 0.  0.
         25    1    3    3    0    0  0.82648848039E+02 -0.75027852964E+02  0.94011423359E+02  0.19221255585E+03  0.12509000000E+03 0.  0.
<mgrwt>
<rscale>  2 0.45387957E+03</rscale>
<asrwt>0</asrwt>
<pdfrwt beam="1">  1       21 0.60651027E-01 0.45387957E+03</pdfrwt>
<pdfrwt beam="2">  1       21 0.18363916E-01 0.45387957E+03</pdfrwt>
<totfact> 0.63272725E+04</totfact>
</mgrwt>
</event>
<event>
 7    0  0.4748297E-002  0.4281435E+03  0.7546771E-02  0.1034448E+00
         21   -1    0    0  502  501  0.00000000000E+00  0.00000000000E+00  0.19298012732E+03  0.19298012732E+03  0.00000000000E+00 0. -1.
         21   -1    0    0  501  502 -0.00000000000E+00 -0.00000000000E+00 -0.23746853806E+03  0.23746853806E+03  0.00000000000E+00 0. -1.
      99926    2    1    2    0    0  0.00000000000E+00 -0.22204460493E-15 -0.44488410735E+02  0.43044866538E+03  0.42814347460E+03 0.  0.
      99925    2    3    3    0    0 -0.11894103406E+02 -0.69697660601E+00 -0.11394621038E+03  0.28687342551E+03  0.26300317096E+03 0.  0.
         25    1    4    4    0    0 -0.14709400331E+02 -0.39642996662E+02 -0.51788125450E+02  0.14183600276E+03  0.12509000000E+03 0.  0.
         25    1    4    4    0    0  0.28152969250E+01  0.38946020056E+02 -0.62158084932E+02  0.14503742275E+03  0.12509000000E+03 0.  0.
         25    1    3    3    0    0  0.11894103406E+02  0.69697660601E+00  0.69457799647E+02  0.14357523987E+03  0.12509000000E+03 0.  0.
<mgrwt>
<rscale>  2 0.42814347E+03</rscale>
<asrwt>0</asrwt>
<pdfrwt beam="1">  1       21 0.28379430E-01 0.42814347E+03</pdfrwt>
<pdfrwt beam="2">  1       21 0.34921844E-01 0.42814347E+03</pdfrwt>
<totfact> 0.87726974E+04</totfact>
</mgrwt>
</event>
<event>
 7    0  0.4748297E-002  0.4541885E+03  0.7546771E-02  0.1026480E+00
         21   -1    0    0  502  501  0.00000000000E+00  0.00000000000E+00  0.20231551367E+03  0.20231551367E+03  0.00000000000E+00 0.  1.
         21   -1    0    0  501  502 -0.00000000000E+00 -0.00000000000E+00 -0.25490781982E+03  0.25490781982E+03  0.00000000000E+00 0.  1.
      99926    2    1    2    0    0 -0.71054273576E-14  0.00000000000E+00 -0.52592306151E+02  0.45722333349E+03  0.45418853576E+03 0.  0.
      99925    2    3    3    0    0  0.48593398969E+02  0.71732736675E+02  0.38470994325E+02  0.27989049184E+03  0.26334723481E+03 0.  0.
         25    1    3    3    0    0 -0.48593398969E+02 -0.71732736675E+02 -0.91063300476E+02  0.17733284165E+03  0.12509000000E+03 0.  0.
         25    1    4    4    0    0  0.44734482410E+02  0.28408272061E+01  0.40328994969E+01  0.13293989843E+03  0.12509000000E+03 0.  0.
         25    1    4    4    0    0  0.38589165589E+01  0.68891909469E+02  0.34438094828E+02  0.14695059341E+03  0.12509000000E+03 0.  0.
<mgrwt>
<rscale>  2 0.45418854E+03</rscale>
<asrwt>0</asrwt>
<pdfrwt beam="1">  1       21 0.29752282E-01 0.45418854E+03</pdfrwt>
<pdfrwt beam="2">  1       21 0.37486444E-01 0.45418854E+03</pdfrwt>
<totfact> 0.68827657E+04</totfact>
</mgrwt>
</event>
<event>
 7    0  0.4748297E-002  0.4402380E+03  0.7546771E-02  0.1030674E+00
         21   -1    0    0  502  501  0.00000000000E+00  0.00000000000E+00  0.14461308047E+03  0.14461308047E+03  0.00000000000E+00 0. -1.
         21   -1    0    0  501  502 -0.00000000000E+00 -0.00000000000E+00 -0.33504836555E+03  0.33504836555E+03  0.00000000000E+00 0. -1.
      99926    2    1    2    0    0  0.00000000000E+00  0.00000000000E+00 -0.19043528508E+03  0.47966144602E+03  0.44023800949E+03 0.  0.
      99925    2    3    3    0    0  0.30743117858E+02  0.57349716872E+02 -0.20247936179E+03  0.33814573239E+03  0.26288878839E+03 0.  0.
         25    1    4    4    0    0  0.44287469285E+02  0.40643282142E+02 -0.72919886766E+02  0.15677395927E+03  0.12509000000E+03 0.  0.
         25    1    4    4    0    0 -0.13544351427E+02  0.16706434731E+02 -0.12955947502E+03  0.18137177312E+03  0.12509000000E+03 0.  0.
         25    1    3    3    0    0 -0.30743117858E+02 -0.57349716872E+02  0.12044076713E+02  0.14151571363E+03  0.12509000000E+03 0.  0.
<mgrwt>
<rscale>  2 0.44023801E+03</rscale>
<asrwt>0</asrwt>
<pdfrwt beam="1">  1       21 0.21266630E-01 0.44023801E+03</pdfrwt>
<pdfrwt beam="2">  1       21 0.49271817E-01 0.44023801E+03</pdfrwt>
<totfact> 0.75153143E+04</totfact>
</mgrwt>
</event>
<event>
 7    0  0.4748297E-002  0.3933683E+03  0.7546771E-02  0.1046100E+00
         21   -1    0    0  502  501  0.00000000000E+00  0.00000000000E+00  0.49838065547E+03  0.49838065547E+03  0.00000000000E+00 0.  1.
         21   -1    0    0  501  502 -0.00000000000E+00 -0.00000000000E+00 -0.77620697249E+02  0.77620697249E+02  0.00000000000E+00 0.  1.
      99926    2    1    2    0    0  0.00000000000E+00  0.39968028887E-14  0.42075995823E+03  0.57600135272E+03  0.39336829548E+03 0.  0.
      99925    2    3    3    0    0 -0.18967286894E+02  0.32550196813E+01  0.31768658358E+03  0.41277763574E+03  0.26285025785E+03 0.  0.
         25    1    4    4    0    0 -0.10267000116E+02  0.41829536454E+02  0.16408816663E+03  0.21077845227E+03  0.12509000000E+03 0.  0.
         25    1    3    3    0    0  0.18967286894E+02 -0.32550196813E+01  0.10307337464E+03  0.16322371698E+03  0.12509000000E+03 0.  0.
         25    1    4    4    0    0 -0.87002867782E+01 -0.38574516773E+02  0.15359841695E+03  0.20199918347E+03  0.12509000000E+03 0.  0.
<mgrwt>
<rscale>  2 0.39336830E+03</rscale>
<asrwt>0</asrwt>
<pdfrwt beam="1">  1       21 0.73291271E-01 0.39336830E+03</pdfrwt>
<pdfrwt beam="2">  1       21 0.11414809E-01 0.39336830E+03</pdfrwt>
<totfact> 0.10116731E+05</totfact>
</mgrwt>
</event>
<event>
 7    0  0.4748297E-002  0.4592441E+03  0.7546771E-02  0.1025001E+00
         21   -1    0    0  502  501  0.00000000000E+00  0.00000000000E+00  0.54955026446E+03  0.54955026446E+03  0.00000000000E+00 0.  1.
         21   -1    0    0  501  502 -0.00000000000E+00 -0.00000000000E+00 -0.95944437827E+02  0.95944437827E+02  0.00000000000E+00 0.  1.
      99926    2    1    2    0    0  0.71054273576E-14  0.00000000000E+00  0.45360582664E+03  0.64549470229E+03  0.45924412324E+03 0.  0.
      99925    2    3    3    0    0  0.60866445618E+02  0.96461543255E+02  0.24733642920E+03  0.37865368980E+03  0.26304705674E+03 0.  0.
         25    1    4    4    0    0  0.60799251745E+02  0.24304226307E+02  0.13893426226E+03  0.19808453185E+03  0.12509000000E+03 0.  0.
         25    1    3    3    0    0 -0.60866445618E+02 -0.96461543255E+02  0.20626939744E+03  0.26684101249E+03  0.12509000000E+03 0.  0.
         25    1    4    4    0    0  0.67193873054E-01  0.72157316948E+02  0.10840216694E+03  0.18056915795E+03  0.12509000000E+03 0.  0.
<mgrwt>
<rscale>  2 0.45924412E+03</rscale>
<asrwt>0</asrwt>
<pdfrwt beam="1">  1       21 0.80816214E-01 0.45924412E+03</pdfrwt>
<pdfrwt beam="2">  1       21 0.14109476E-01 0.45924412E+03</pdfrwt>
<totfact> 0.54126312E+04</totfact>
</mgrwt>
</event>
<event>
 7    0  0.4748297E-002  0.4551680E+03  0.7546771E-02  0.1026192E+00
         21   -1    0    0  502  501  0.00000000000E+00  0.00000000000E+00  0.63744834534E+02  0.63744834534E+02  0.00000000000E+00 0. -1.
         21   -1    0    0  501  502 -0.00000000000E+00 -0.00000000000E+00 -0.81252832547E+03  0.81252832547E+03  0.00000000000E+00 0. -1.
      99926    2    1    2    0    0  0.00000000000E+00  0.71054273576E-14 -0.74878349093E+03  0.87627316000E+03  0.45516802902E+03 0.  0.
      99925    2    3    3    0    0 -0.75464952913E+02  0.34363027798E+02 -0.32234781316E+03  0.42419941361E+03  0.26298527157E+03 0.  0.
         25    1    4    4    0    0 -0.68648941198E+02 -0.94894920580E+01 -0.16498916186E+03  0.21833840527E+03  0.12509000000E+03 0.  0.
         25    1    4    4    0    0 -0.68160117149E+01  0.43852519856E+02 -0.15735865130E+03  0.20586100834E+03  0.12509000000E+03 0.  0.
         25    1    3    3    0    0  0.75464952913E+02 -0.34363027798E+02 -0.42643567777E+03  0.45207374639E+03  0.12509000000E+03 0.  0.
<mgrwt>
<rscale>  2 0.45516803E+03</rscale>
<asrwt>0</asrwt>
<pdfrwt beam="1">  1       21 0.93742403E-02 0.45516803E+03</pdfrwt>
<pdfrwt beam="2">  1       21 0.11948946E+00 0.45516803E+03</pdfrwt>
<totfact> 0.44217265E+04</totfact>
</mgrwt>
</event>
<event>
 7    0  0.4748297E-002  0.4599382E+03  0.7546771E-02  0.1024799E+00
         21   -1    0    0  502  501  0.00000000000E+00  0.00000000000E+00  0.38040317073E+03  0.38040317073E+03  0.00000000000E+00 0. -1.
         21   -1    0    0  501  502 -0.00000000000E+00 -0.00000000000E+00 -0.13902562507E+03  0.13902562507E+03  0.00000000000E+00 0. -1.
      99926    2    1    2    0    0  0.00000000000E+00  0.14210854715E-13  0.24137754566E+03  0.51942879580E+03  0.45993820711E+03 0.  0.
      99925    2    3    3    0    0  0.51216381759E+02 -0.91368157149E+02  0.21208017546E+03  0.35366661102E+03  0.26292739117E+03 0.  0.
         25    1    3    3    0    0 -0.51216381759E+02  0.91368157149E+02  0.29297370196E+02  0.16576218478E+03  0.12509000000E+03 0.  0.
         25    1    4    4    0    0  0.64593972192E+01 -0.26333614360E+02  0.59476303735E+02  0.14113866183E+03  0.12509000000E+03 0.  0.
         25    1    4    4    0    0  0.44756984540E+02 -0.65034542789E+02  0.15260387173E+03  0.21252794919E+03  0.12509000000E+03 0.  0.
<mgrwt>
<rscale>  2 0.45993821E+03</rscale>
<asrwt>0</asrwt>
<pdfrwt beam="1">  1       21 0.55941643E-01 0.45993821E+03</pdfrwt>
<pdfrwt beam="2">  1       21 0.20444945E-01 0.45993821E+03</pdfrwt>
<totfact> 0.61481613E+04</totfact>
</mgrwt>
</event>
<event>
 7    0  0.4748297E-002  0.4445783E+03  0.7546771E-02  0.1029351E+00
         21   -1    0    0  502  501  0.00000000000E+00  0.00000000000E+00  0.23513704880E+03  0.23513704880E+03  0.00000000000E+00 0.  1.
         21   -1    0    0  501  502 -0.00000000000E+00 -0.00000000000E+00 -0.21014325308E+03  0.21014325308E+03  0.00000000000E+00 0.  1.
      99926    2    1    2    0    0  0.00000000000E+00  0.00000000000E+00  0.24993795722E+02  0.44528030188E+03  0.44457829166E+03 0.  0.
      99925    2    3    3    0    0  0.87474350361E+02 -0.27745163641E+02  0.63061705299E+02  0.28553603777E+03  0.26293058801E+03 0.  0.
         25    1    4    4    0    0  0.79066542258E+01  0.92654488391E+01  0.27907753688E+02  0.12874282325E+03  0.12509000000E+03 0.  0.
         25    1    4    4    0    0  0.79567696135E+02 -0.37010612480E+02  0.35153951611E+02  0.15679321452E+03  0.12509000000E+03 0.  0.
         25    1    3    3    0    0 -0.87474350361E+02  0.27745163641E+02 -0.38067909577E+02  0.15974426411E+03  0.12509000000E+03 0.  0.
<mgrwt>
<rscale>  2 0.44457829E+03</rscale>
<asrwt>0</asrwt>
<pdfrwt beam="1">  1       21 0.34578978E-01 0.44457829E+03</pdfrwt>
<pdfrwt beam="2">  1       21 0.30903420E-01 0.44457829E+03</pdfrwt>
<totfact> 0.75336050E+04</totfact>
</mgrwt>
</event>
<event>
 7    0  0.4748297E-002  0.4614265E+03  0.7546771E-02  0.1024368E+00
         21   -1    0    0  502  501  0.00000000000E+00  0.00000000000E+00  0.48745640297E+03  0.48745640297E+03  0.00000000000E+00 0.  1.
         21   -1    0    0  501  502 -0.00000000000E+00 -0.00000000000E+00 -0.10919666453E+03  0.10919666453E+03  0.00000000000E+00 0.  1.
      99926    2    1    2    0    0  0.00000000000E+00  0.14210854715E-13  0.37825973845E+03  0.59665306750E+03  0.46142654153E+03 0.  0.
      99925    2    3    3    0    0 -0.42439737376E+02  0.10303525284E+03  0.29097426889E+03  0.40775188717E+03  0.26301745512E+03 0.  0.
         25    1    3    3    0    0  0.42439737376E+02 -0.10303525284E+03  0.87285469555E+02  0.18890118033E+03  0.12509000000E+03 0.  0.
         25    1    4    4    0    0 -0.35132631306E+02  0.71203686486E+02  0.20323296927E+03  0.25150629147E+03  0.12509000000E+03 0.  0.
         25    1    4    4    0    0 -0.73071060702E+01  0.31831566354E+02  0.87741299622E+02  0.15624559570E+03  0.12509000000E+03 0.  0.
<mgrwt>
<rscale>  2 0.46142654E+03</rscale>
<asrwt>0</asrwt>
<pdfrwt beam="1">  1       21 0.71684764E-01 0.46142654E+03</pdfrwt>
<pdfrwt beam="2">  1       21 0.16058333E-01 0.46142654E+03</pdfrwt>
<totfact> 0.55986870E+04</totfact>
</mgrwt>
</event>
<event>
 7    0  0.4748297E-002  0.4546395E+03  0.7546771E-02  0.1026347E+00
         21   -1    0    0  502  501  0.00000000000E+00  0.00000000000E+00  0.11491311118E+03  0.11491311118E+03  0.00000000000E+00 0. -1.
         21   -1    0    0  501  502 -0.00000000000E+00 -0.00000000000E+00 -0.44968118555E+03  0.44968118555E+03  0.00000000000E+00 0. -1.
      99926    2    1    2    0    0 -0.14210854715E-13  0.31086244690E-14 -0.33476807437E+03  0.56459429674E+03  0.45463947947E+03 0.  0.
      99925    2    3    3    0    0  0.11060631439E+03 -0.24793510074E+01 -0.23821191777E+03  0.37169405454E+03  0.26300503502E+03 0.  0.
         25    1    4    4    0    0  0.41281518683E+02 -0.39374027580E+02 -0.10892918340E+03  0.17540682122E+03  0.12509000000E+03 0.  0.
         25    1    3    3    0    0 -0.11060631439E+03  0.24793510074E+01 -0.96556156598E+02  0.19290024220E+03  0.12509000000E+03 0.  0.
         25    1    4    4    0    0  0.69324795705E+02  0.36894676573E+02 -0.12928273437E+03  0.19628723332E+03  0.12509000000E+03 0.  0.
<mgrwt>
<rscale>  2 0.45463948E+03</rscale>
<asrwt>0</asrwt>
<pdfrwt beam="1">  1       21 0.16898987E-01 0.45463948E+03</pdfrwt>
<pdfrwt beam="2">  1       21 0.66129586E-01 0.45463948E+03</pdfrwt>
<totfact> 0.61086278E+04</totfact>
</mgrwt>
</event>
<event>
 7    0  0.4748297E-002  0.4482691E+03  0.7546771E-02  0.1028239E+00
         21   -1    0    0  502  501  0.00000000000E+00  0.00000000000E+00  0.65580857100E+03  0.65580857100E+03  0.00000000000E+00 0. -1.
         21   -1    0    0  501  502 -0.00000000000E+00 -0.00000000000E+00 -0.76602067698E+02  0.76602067698E+02  0.00000000000E+00 0. -1.
      99926    2    1    2    0    0  0.00000000000E+00  0.00000000000E+00  0.57920650330E+03  0.73241063870E+03  0.44826908237E+03 0.  0.
      99925    2    3    3    0    0 -0.69281904493E+02 -0.70829655726E+02  0.43173314238E+03  0.51512575036E+03  0.26295286655E+03 0.  0.
         25    1    4    4    0    0 -0.52083409015E+02 -0.58752214496E+02  0.28630444208E+03  0.32215251956E+03  0.12509000000E+03 0.  0.
         25    1    4    4    0    0 -0.17198495478E+02 -0.12077441229E+02  0.14542870030E+03  0.19297323080E+03  0.12509000000E+03 0.  0.
         25    1    3    3    0    0  0.69281904493E+02  0.70829655726E+02  0.14747336092E+03  0.21728488834E+03  0.12509000000E+03 0.  0.
<mgrwt>
<rscale>  2 0.44826908E+03</rscale>
<asrwt>0</asrwt>
<pdfrwt beam="1">  1       21 0.96442434E-01 0.44826908E+03</pdfrwt>
<pdfrwt beam="2">  1       21 0.11265010E-01 0.44826908E+03</pdfrwt>
<totfact> 0.53978983E+04</totfact>
</mgrwt>
</event>
<event>
 7    0  0.4748297E-002  0.4525907E+03  0.7546771E-02  0.1026952E+00
         21   -1    0    0  502  501  0.00000000000E+00  0.00000000000E+00  0.28183343131E+03  0.28183343131E+03  0.00000000000E+00 0. -1.
         21   -1    0    0  501  502 -0.00000000000E+00 -0.00000000000E+00 -0.18170158114E+03  0.18170158114E+03  0.00000000000E+00 0. -1.
      99926    2    1    2    0    0 -0.88817841970E-15  0.00000000000E+00  0.10013185018E+03  0.46353501245E+03  0.45259067638E+03 0.  0.
      99925    2    3    3    0    0 -0.59639658767E+00  0.11083407890E+03  0.68681368156E+02  0.29347270136E+03  0.26291547572E+03 0.  0.
         25    1    3    3    0    0  0.59639658767E+00 -0.11083407890E+03  0.31450482021E+02  0.17006231109E+03  0.12509000000E+03 0.  0.
         25    1    4    4    0    0  0.34741840873E+02  0.38138397335E+02  0.19971829594E+02  0.13677688012E+03  0.12509000000E+03 0.  0.
         25    1    4    4    0    0 -0.35338237461E+02  0.72695681569E+02  0.48709538562E+02  0.15669582124E+03  0.12509000000E+03 0.  0.
<mgrwt>
<rscale>  2 0.45259068E+03</rscale>
<asrwt>0</asrwt>
<pdfrwt beam="1">  1       21 0.41446093E-01 0.45259068E+03</pdfrwt>
<pdfrwt beam="2">  1       21 0.26720821E-01 0.45259068E+03</pdfrwt>
<totfact> 0.69233730E+04</totfact>
</mgrwt>
</event>
<event>
 7    0  0.4748297E-002  0.4624234E+03  0.7546771E-02  0.1024081E+00
         21   -1    0    0  502  501  0.00000000000E+00  0.00000000000E+00  0.51169740834E+03  0.51169740834E+03  0.00000000000E+00 0.  1.
         21   -1    0    0  501  502 -0.00000000000E+00 -0.00000000000E+00 -0.10447356566E+03  0.10447356566E+03  0.00000000000E+00 0.  1.
      99926    2    1    2    0    0  0.00000000000E+00  0.88817841970E-15  0.40722384267E+03  0.61617097400E+03  0.46242341113E+03 0.  0.
      99925    2    3    3    0    0 -0.11630550472E+03 -0.22685323522E+01  0.29381932692E+03  0.41113388233E+03  0.26300029594E+03 0.  0.
         25    1    3    3    0    0  0.11630550472E+03  0.22685323522E+01  0.11340451575E+03  0.20503709167E+03  0.12509000000E+03 0.  0.
         25    1    4    4    0    0 -0.78763618631E+02 -0.27986994716E+02  0.18983362123E+03  0.24222157489E+03  0.12509000000E+03 0.  0.
         25    1    4    4    0    0 -0.37541886087E+02  0.25718462363E+02  0.10398570570E+03  0.16891230745E+03  0.12509000000E+03 0.  0.
<mgrwt>
<rscale>  2 0.46242341E+03</rscale>
<asrwt>0</asrwt>
<pdfrwt beam="1">  1       21 0.75249618E-01 0.46242341E+03</pdfrwt>
<pdfrwt beam="2">  1       21 0.15363760E-01 0.46242341E+03</pdfrwt>
<totfact> 0.54431639E+04</totfact>
</mgrwt>
</event>
<event>
 7    0  0.4748297E-002  0.4578890E+03  0.7546771E-02  0.1025395E+00
         21   -1    0    0  502  501  0.00000000000E+00  0.00000000000E+00  0.70014703406E+03  0.70014703406E+03  0.00000000000E+00 0. -1.
         21   -1    0    0  501  502 -0.00000000000E+00 -0.00000000000E+00 -0.74863697120E+02  0.74863697120E+02  0.00000000000E+00 0. -1.
      99926    2    1    2    0    0  0.00000000000E+00  0.00000000000E+00  0.62528333694E+03  0.77501073118E+03  0.45788904987E+03 0.  0.
      99925    2    3    3    0    0  0.61856465531E+02  0.59844550497E+02  0.26071941869E+03  0.38009054793E+03  0.26284333126E+03 0.  0.
         25    1    4    4    0    0  0.37116252434E+02 -0.10575924391E+02  0.12401628422E+03  0.18032474379E+03  0.12509000000E+03 0.  0.
         25    1    4    4    0    0  0.24740213097E+02  0.70420474888E+02  0.13670313447E+03  0.19976580413E+03  0.12509000000E+03 0.  0.
         25    1    3    3    0    0 -0.61856465531E+02 -0.59844550497E+02  0.36456391824E+03  0.39492018325E+03  0.12509000000E+03 0.  0.
<mgrwt>
<rscale>  2 0.45788905E+03</rscale>
<asrwt>0</asrwt>
<pdfrwt beam="1">  1       21 0.10296280E+00 0.45788905E+03</pdfrwt>
<pdfrwt beam="2">  1       21 0.11009368E-01 0.45788905E+03</pdfrwt>
<totfact> 0.47901696E+04</totfact>
</mgrwt>
</event>
<event>
 7    0  0.4748297E-002  0.4549274E+03  0.7546771E-02  0.1026263E+00
         21   -1    0    0  502  501  0.00000000000E+00  0.00000000000E+00  0.22969326097E+03  0.22969326097E+03  0.00000000000E+00 0. -1.
         21   -1    0    0  501  502 -0.00000000000E+00 -0.00000000000E+00 -0.22525580380E+03  0.22525580380E+03  0.00000000000E+00 0. -1.
      99926    2    1    2    0    0  0.00000000000E+00  0.00000000000E+00  0.44374571636E+01  0.45494906477E+03  0.45492742334E+03 0.  0.
      99925    2    3    3    0    0 -0.61436640544E+02  0.93387906427E+02  0.20164833897E+02  0.28645390060E+03  0.26297044468E+03 0.  0.
         25    1    3    3    0    0  0.61436640544E+02 -0.93387906427E+02 -0.15727376733E+02  0.16849516417E+03  0.12509000000E+03 0.  0.
         25    1    4    4    0    0 -0.40746681291E+02  0.49303464357E+02 -0.29077996476E+02  0.14347181470E+03  0.12509000000E+03 0.  0.
         25    1    4    4    0    0 -0.20689959253E+02  0.44084442071E+02  0.49242830373E+02  0.14298208590E+03  0.12509000000E+03 0.  0.
<mgrwt>
<rscale>  2 0.45492742E+03</rscale>
<asrwt>0</asrwt>
<pdfrwt beam="1">  1       21 0.33778421E-01 0.45492742E+03</pdfrwt>
<pdfrwt beam="2">  1       21 0.33125853E-01 0.45492742E+03</pdfrwt>
<totfact> 0.68589233E+04</totfact>
</mgrwt>
</event>
<event>
 7    0  0.4748297E-002  0.4545169E+03  0.7546771E-02  0.1026384E+00
         21   -1    0    0  502  501  0.00000000000E+00  0.00000000000E+00  0.87524074421E+02  0.87524074421E+02  0.00000000000E+00 0.  1.
         21   -1    0    0  501  502 -0.00000000000E+00 -0.00000000000E+00 -0.59008235459E+03  0.59008235459E+03  0.00000000000E+00 0.  1.
      99926    2    1    2    0    0  0.00000000000E+00  0.71054273576E-14 -0.50255828017E+03  0.67760642901E+03  0.45451693881E+03 0.  0.
      99925    2    3    3    0    0  0.94853832544E+02  0.60518452684E+02 -0.30680444931E+03  0.41948474635E+03  0.26301853478E+03 0.  0.
         25    1    3    3    0    0 -0.94853832544E+02 -0.60518452684E+02 -0.19575383086E+03  0.25812168266E+03  0.12509000000E+03 0.  0.
         25    1    4    4    0    0  0.20725900913E+02  0.46839925568E+02 -0.18612814262E+03  0.23003203075E+03  0.12509000000E+03 0.  0.
         25    1    4    4    0    0  0.74127931631E+02  0.13678527115E+02 -0.12067630669E+03  0.18945271560E+03  0.12509000000E+03 0.  0.
<mgrwt>
<rscale>  2 0.45451694E+03</rscale>
<asrwt>0</asrwt>
<pdfrwt beam="1">  1       21 0.12871187E-01 0.45451694E+03</pdfrwt>
<pdfrwt beam="2">  1       21 0.86776817E-01 0.45451694E+03</pdfrwt>
<totfact> 0.54342693E+04</totfact>
</mgrwt>
</event>
<event>
 7    0  0.4748297E-002  0.4478496E+03  0.7546771E-02  0.1028365E+00
         21   -1    0    0  502  501  0.00000000000E+00  0.00000000000E+00  0.57028636844E+03  0.57028636844E+03  0.00000000000E+00 0. -1.
         21   -1    0    0  501  502 -0.00000000000E+00 -0.00000000000E+00 -0.87924806244E+02  0.87924806244E+02  0.00000000000E+00 0. -1.
      99926    2    1    2    0    0 -0.35527136788E-14  0.00000000000E+00  0.48236156220E+03  0.65821117469E+03  0.44784961069E+03 0.  0.
      99925    2    3    3    0    0  0.16664862523E+02  0.84915094431E+02  0.21463412631E+03  0.35029271318E+03  0.26296175735E+03 0.  0.
         25    1    3    3    0    0 -0.16664862523E+02 -0.84915094431E+02  0.26772743589E+03  0.30791846150E+03  0.12509000000E+03 0.  0.
         25    1    4    4    0    0  0.47030051830E+02  0.51550912208E+02  0.99570454777E+02  0.17444513719E+03  0.12509000000E+03 0.  0.
         25    1    4    4    0    0 -0.30365189308E+02  0.33364182222E+02  0.11506367153E+03  0.17584757599E+03  0.12509000000E+03 0.  0.
<mgrwt>
<rscale>  2 0.44784961E+03</rscale>
<asrwt>0</asrwt>
<pdfrwt beam="1">  1       21 0.83865640E-01 0.44784961E+03</pdfrwt>
<pdfrwt beam="2">  1       21 0.12930119E-01 0.44784961E+03</pdfrwt>
<totfact> 0.58457719E+04</totfact>
</mgrwt>
</event>
<event>
 7    0  0.4748297E-002  0.4449544E+03  0.7546771E-02  0.1029237E+00
         21   -1    0    0  502  501  0.00000000000E+00  0.00000000000E+00  0.63985991766E+03  0.63985991766E+03  0.00000000000E+00 0.  1.
         21   -1    0    0  501  502 -0.00000000000E+00 -0.00000000000E+00 -0.77354586289E+02  0.77354586289E+02  0.00000000000E+00 0.  1.
      99926    2    1    2    0    0  0.00000000000E+00  0.00000000000E+00  0.56250533138E+03  0.71721450395E+03  0.44495437615E+03 0.  0.
      99925    2    3    3    0    0  0.53294563368E+02  0.88145776058E+02  0.37555002040E+03  0.46980839101E+03  0.26281574937E+03 0.  0.
         25    1    4    4    0    0 -0.14214659342E+02  0.40287899546E+02  0.18252236376E+03  0.22535991827E+03  0.12509000000E+03 0.  0.
         25    1    3    3    0    0 -0.53294563368E+02 -0.88145776058E+02  0.18695531097E+03  0.24740611294E+03  0.12509000000E+03 0.  0.
         25    1    4    4    0    0  0.67509222710E+02  0.47857876512E+02  0.19302765665E+03  0.24444847274E+03  0.12509000000E+03 0.  0.
<mgrwt>
<rscale>  2 0.44495438E+03</rscale>
<asrwt>0</asrwt>
<pdfrwt beam="1">  1       21 0.94097044E-01 0.44495438E+03</pdfrwt>
<pdfrwt beam="2">  1       21 0.11375675E-01 0.44495438E+03</pdfrwt>
<totfact> 0.56296681E+04</totfact>
</mgrwt>
</event>
<event>
 7    0  0.4748297E-002  0.4534373E+03  0.7546771E-02  0.1026702E+00
         21   -1    0    0  502  501  0.00000000000E+00  0.00000000000E+00  0.98464718793E+02  0.98464718793E+02  0.00000000000E+00 0.  1.
         21   -1    0    0  501  502 -0.00000000000E+00 -0.00000000000E+00 -0.52202807460E+03  0.52202807460E+03  0.00000000000E+00 0.  1.
      99926    2    1    2    0    0  0.00000000000E+00  0.00000000000E+00 -0.42356335580E+03  0.62049279339E+03  0.45343730578E+03 0.  0.
      99925    2    3    3    0    0  0.65604895416E+02  0.88374869389E+02 -0.24152842130E+03  0.37371689237E+03  0.26308595080E+03 0.  0.
         25    1    4    4    0    0  0.70006617845E+00  0.27502353990E+02 -0.13957155458E+03  0.18943230061E+03  0.12509000000E+03 0.  0.
         25    1    3    3    0    0 -0.65604895416E+02 -0.88374869389E+02 -0.18203493451E+03  0.24677590102E+03  0.12509000000E+03 0.  0.
         25    1    4    4    0    0  0.64904829238E+02  0.60872515398E+02 -0.10195686672E+03  0.18428459176E+03  0.12509000000E+03 0.  0.
<mgrwt>
<rscale>  2 0.45343731E+03</rscale>
<asrwt>0</asrwt>
<pdfrwt beam="1">  1       21 0.14480106E-01 0.45343731E+03</pdfrwt>
<pdfrwt beam="2">  1       21 0.76768834E-01 0.45343731E+03</pdfrwt>
<totfact> 0.58148498E+04</totfact>
</mgrwt>
</event>
<event>
 7    0  0.4748297E-002  0.4552743E+03  0.7546771E-02  0.1026161E+00
         21   -1    0    0  502  501  0.00000000000E+00  0.00000000000E+00  0.12246830207E+03  0.12246830207E+03  0.00000000000E+00 0.  1.
         21   -1    0    0  501  502 -0.00000000000E+00 -0.00000000000E+00 -0.42311904065E+03  0.42311904065E+03  0.00000000000E+00 0.  1.
      99926    2    1    2    0    0  0.00000000000E+00 -0.35527136788E-14 -0.30065073858E+03  0.54558734271E+03  0.45527429306E+03 0.  0.
      99925    2    3    3    0    0 -0.79661787340E+02  0.17647160003E+02 -0.28373282207E+03  0.39528382772E+03  0.26284513981E+03 0.  0.
         25    1    3    3    0    0  0.79661787340E+02 -0.17647160003E+02 -0.16917916505E+02  0.15030351499E+03  0.12509000000E+03 0.  0.
         25    1    4    4    0    0 -0.54967267609E+02 -0.22088264389E+02 -0.17465423407E+03  0.22284726050E+03  0.12509000000E+03 0.  0.
         25    1    4    4    0    0 -0.24694519731E+02  0.39735424392E+02 -0.10907858800E+03  0.17243656723E+03  0.12509000000E+03 0.  0.
<mgrwt>
<rscale>  2 0.45527429E+03</rscale>
<asrwt>0</asrwt>
<pdfrwt beam="1">  1       21 0.18010045E-01 0.45527429E+03</pdfrwt>
<pdfrwt beam="2">  1       21 0.62223387E-01 0.45527429E+03</pdfrwt>
<totfact> 0.62024321E+04</totfact>
</mgrwt>
</event>
<event>
 7    0  0.4748297E-002  0.4572170E+03  0.7546771E-02  0.1025591E+00
         21   -1    0    0  502  501  0.00000000000E+00  0.00000000000E+00  0.89001503302E+03  0.89001503302E+03  0.00000000000E+00 0. -1.
         21   -1    0    0  501  502 -0.00000000000E+00 -0.00000000000E+00 -0.58720172277E+02  0.58720172277E+02  0.00000000000E+00 0. -1.
      99926    2    1    2    0    0  0.00000000000E+00  0.00000000000E+00  0.83129486074E+03  0.94873520530E+03  0.45721695536E+03 0.  0.
      99925    2    3    3    0    0  0.20950681390E+02  0.84765429742E+01  0.75653650187E+03  0.80126621482E+03  0.26300054281E+03 0.  0.
         25    1    4    4    0    0 -0.25340257689E+02  0.22932536271E+02  0.35910433636E+03  0.38180029121E+03  0.12509000000E+03 0.  0.
         25    1    4    4    0    0  0.46290939079E+02 -0.14455993296E+02  0.39743216551E+03  0.41946592360E+03  0.12509000000E+03 0.  0.
         25    1    3    3    0    0 -0.20950681390E+02 -0.84765429742E+01  0.74758358875E+02  0.14746899048E+03  0.12509000000E+03 0.  0.
<mgrwt>
<rscale>  2 0.45721696E+03</rscale>
<asrwt>0</asrwt>
<pdfrwt beam="1">  1       21 0.13088456E+00 0.45721696E+03</pdfrwt>
<pdfrwt beam="2">  1       21 0.86353200E-02 0.45721696E+03</pdfrwt>
<totfact> 0.40485617E+04</totfact>
</mgrwt>
</event>
<event>
 7    0  0.4748297E-002  0.4617900E+03  0.7546771E-02  0.1024263E+00
         21   -1    0    0  502  501  0.00000000000E+00  0.00000000000E+00  0.29300478524E+02  0.29300478524E+02  0.00000000000E+00 0.  1.
         21   -1    0    0  501  502 -0.00000000000E+00 -0.00000000000E+00 -0.18195091978E+04  0.18195091978E+04  0.00000000000E+00 0.  1.
      99926    2    1    2    0    0  0.00000000000E+00  0.00000000000E+00 -0.17902087192E+04  0.18488096763E+04  0.46178995300E+03 0.  0.
      99925    2    3    3    0    0 -0.30564260844E+02 -0.32732634069E+02 -0.15628418611E+04  0.15854680812E+04  0.26311357744E+03 0.  0.
         25    1    4    4    0    0 -0.11200607284E+02 -0.11040183699E+02 -0.53606627938E+03  0.55069220372E+03  0.12509000000E+03 0.  0.
         25    1    3    3    0    0  0.30564260844E+02  0.32732634069E+02 -0.22736685818E+03  0.26334159503E+03  0.12509000000E+03 0.  0.
         25    1    4    4    0    0 -0.19363653559E+02 -0.21692450370E+02 -0.10267755817E+04  0.10347758775E+04  0.12509000000E+03 0.  0.
<mgrwt>
<rscale>  2 0.46178995E+03</rscale>
<asrwt>0</asrwt>
<pdfrwt beam="1">  1       21 0.43088943E-02 0.46178995E+03</pdfrwt>
<pdfrwt beam="2">  1       21 0.26757486E+00 0.46178995E+03</pdfrwt>
<totfact> 0.15505954E+04</totfact>
</mgrwt>
</event>
<event>
 7    0  0.4748297E-002  0.4542770E+03  0.7546771E-02  0.1026454E+00
         21   -1    0    0  502  501  0.00000000000E+00  0.00000000000E+00  0.29302633271E+03  0.29302633271E+03  0.00000000000E+00 0. -1.
         21   -1    0    0  501  502 -0.00000000000E+00 -0.00000000000E+00 -0.17606575868E+03  0.17606575868E+03  0.00000000000E+00 0. -1.
      99926    2    1    2    0    0  0.26645352591E-14  0.00000000000E+00  0.11696057403E+03  0.46909209140E+03  0.45427702378E+03 0.  0.
      99925    2    3    3    0    0  0.74688175541E+01  0.93404689017E+02  0.94136753520E+01  0.27937107864E+03  0.26301970103E+03 0.  0.
         25    1    4    4    0    0 -0.99172606705E+01  0.75551966347E+01 -0.62250559807E+01  0.12586378541E+03  0.12509000000E+03 0.  0.
         25    1    3    3    0    0 -0.74688175541E+01 -0.93404689017E+02  0.10754689868E+03  0.18972101276E+03  0.12509000000E+03 0.  0.
         25    1    4    4    0    0  0.17386078225E+02  0.85849492382E+02  0.15638731333E+02  0.15350729323E+03  0.12509000000E+03 0.  0.
<mgrwt>
<rscale>  2 0.45427702E+03</rscale>
<asrwt>0</asrwt>
<pdfrwt beam="1">  1       21 0.43092108E-01 0.45427702E+03</pdfrwt>
<pdfrwt beam="2">  1       21 0.25892023E-01 0.45427702E+03</pdfrwt>
<totfact> 0.67891853E+04</totfact>
</mgrwt>
</event>
<event>
 7    0  0.4748297E-002  0.4536581E+03  0.7546771E-02  0.1026637E+00
         21   -1    0    0  502  501  0.00000000000E+00  0.00000000000E+00  0.87870906617E+02  0.87870906617E+02  0.00000000000E+00 0. -1.
         21   -1    0    0  501  502 -0.00000000000E+00 -0.00000000000E+00 -0.58553413890E+03  0.58553413890E+03  0.00000000000E+00 0. -1.
      99926    2    1    2    0    0  0.00000000000E+00  0.00000000000E+00 -0.49766323228E+03  0.67340504552E+03  0.45365808993E+03 0.  0.
      99925    2    3    3    0    0  0.90088087549E+02 -0.47394848163E+02 -0.24446184593E+03  0.37320413728E+03  0.26297832386E+03 0.  0.
         25    1    3    3    0    0 -0.90088087549E+02  0.47394848163E+02 -0.25320138636E+03  0.30020090823E+03  0.12509000000E+03 0.  0.
         25    1    4    4    0    0  0.18555355853E+02 -0.21609002132E+02 -0.15672454148E+03  0.20253725634E+03  0.12509000000E+03 0.  0.
         25    1    4    4    0    0  0.71532731697E+02 -0.25785846032E+02 -0.87737304447E+02  0.17066688094E+03  0.12509000000E+03 0.  0.
<mgrwt>
<rscale>  2 0.45365809E+03</rscale>
<asrwt>0</asrwt>
<pdfrwt beam="1">  1       21 0.12922193E-01 0.45365809E+03</pdfrwt>
<pdfrwt beam="2">  1       21 0.86107959E-01 0.45365809E+03</pdfrwt>
<totfact> 0.54950010E+04</totfact>
</mgrwt>
</event>
<event>
 7    0  0.4748297E-002  0.4534850E+03  0.7546771E-02  0.1026688E+00
         21   -1    0    0  502  501  0.00000000000E+00  0.00000000000E+00  0.92249411571E+02  0.92249411571E+02  0.00000000000E+00 0. -1.
         21   -1    0    0  501  502 -0.00000000000E+00 -0.00000000000E+00 -0.55731686572E+03  0.55731686572E+03  0.00000000000E+00 0. -1.
      99926    2    1    2    0    0  0.71054273576E-14 -0.35527136788E-14 -0.46506745415E+03  0.64956627730E+03  0.45348496302E+03 0.  0.
      99925    2    3    3    0    0  0.63137467979E+02 -0.17412425430E+02 -0.42268670211E+03  0.50214453987E+03  0.26305048633E+03 0.  0.
         25    1    3    3    0    0 -0.63137467979E+02  0.17412425430E+02 -0.42380752046E+02  0.14742173743E+03  0.12509000000E+03 0.  0.
         25    1    4    4    0    0  0.47816906375E+02 -0.19091049465E+02 -0.28505588864E+03  0.31552383817E+03  0.12509000000E+03 0.  0.
         25    1    4    4    0    0  0.15320561604E+02  0.16786240355E+01 -0.13763081346E+03  0.18662070170E+03  0.12509000000E+03 0.  0.
<mgrwt>
<rscale>  2 0.45348496E+03</rscale>
<asrwt>0</asrwt>
<pdfrwt beam="1">  1       21 0.13566090E-01 0.45348496E+03</pdfrwt>
<pdfrwt beam="2">  1       21 0.81958364E-01 0.45348496E+03</pdfrwt>
<totfact> 0.56397534E+04</totfact>
</mgrwt>
</event>
<event>
 7    0  0.4748297E-002  0.4554660E+03  0.7546771E-02  0.1026104E+00
         21   -1    0    0  502  501  0.00000000000E+00  0.00000000000E+00  0.26944334960E+03  0.26944334960E+03  0.00000000000E+00 0.  1.
         21   -1    0    0  501  502 -0.00000000000E+00 -0.00000000000E+00 -0.19247946412E+03  0.19247946412E+03  0.00000000000E+00 0.  1.
      99926    2    1    2    0    0  0.00000000000E+00  0.71054273576E-14  0.76963885478E+02  0.46192281372E+03  0.45546596598E+03 0.  0.
      99925    2    3    3    0    0  0.25450259425E+02  0.33080723930E+02  0.15562672460E+03  0.30837347194E+03  0.26293054366E+03 0.  0.
         25    1    3    3    0    0 -0.25450259425E+02 -0.33080723930E+02 -0.78662839126E+02  0.15354934178E+03  0.12509000000E+03 0.  0.
         25    1    4    4    0    0  0.31707561450E+02  0.53003039799E+01  0.11732340032E+03  0.17448710851E+03  0.12509000000E+03 0.  0.
         25    1    4    4    0    0 -0.62573020253E+01  0.27780419950E+02  0.38303324285E+02  0.13388636343E+03  0.12509000000E+03 0.  0.
<mgrwt>
<rscale>  2 0.45546597E+03</rscale>
<asrwt>0</asrwt>
<pdfrwt beam="1">  1       21 0.39624022E-01 0.45546597E+03</pdfrwt>
<pdfrwt beam="2">  1       21 0.28305803E-01 0.45546597E+03</pdfrwt>
<totfact> 0.67787677E+04</totfact>
</mgrwt>
</event>
<event>
 6    0  0.4748297E-002  0.4609661E+03  0.7546771E-02  0.1024501E+00
         21   -1    0    0  502  501  0.00000000000E+00  0.00000000000E+00  0.22599725684E+04  0.22599725684E+04  0.00000000000E+00 0. -1.
         21   -1    0    0  501  502 -0.00000000000E+00 -0.00000000000E+00 -0.23505785599E+02  0.23505785599E+02  0.00000000000E+00 0. -1.
      99926    2    1    2    0    0 -0.88817841970E-15  0.00000000000E+00  0.22364667828E+04  0.22834783540E+04  0.46096607533E+03 0.  0.
         25    1    3    3    0    0  0.63953097338E+01  0.96947755019E+02  0.51464723137E+03  0.53846917094E+03  0.12509000000E+03 0.  0.
         25    1    3    3    0    0 -0.46198248233E+02 -0.38266531601E+02  0.77168096764E+03  0.78405205790E+03  0.12509000000E+03 0.  0.
         25    1    3    3    0    0  0.39802938500E+02 -0.58681223417E+02  0.95013858380E+03  0.96095712518E+03  0.12509000000E+03 0.  0.
<mgrwt>
<rscale>  2 0.46096608E+03</rscale>
<asrwt>0</asrwt>
<pdfrwt beam="1">  1       21 0.33234876E+00 0.46096608E+03</pdfrwt>
<pdfrwt beam="2">  1       21 0.34567347E-02 0.46096608E+03</pdfrwt>
<totfact> 0.91762542E+03</totfact>
</mgrwt>
</event>
<event>
 7    0  0.4748297E-002  0.4526253E+03  0.7546771E-02  0.1026942E+00
         21   -1    0    0  502  501  0.00000000000E+00  0.00000000000E+00  0.10901154217E+03  0.10901154217E+03  0.00000000000E+00 0.  1.
         21   -1    0    0  501  502 -0.00000000000E+00 -0.00000000000E+00 -0.46983470548E+03  0.46983470548E+03  0.00000000000E+00 0.  1.
      99926    2    1    2    0    0  0.14210854715E-13 -0.35527136788E-14 -0.36082316331E+03  0.57884624765E+03  0.45262525696E+03 0.  0.
      99925    2    3    3    0    0 -0.10136494831E+03 -0.26460130523E+02 -0.27376431752E+03  0.39390911784E+03  0.26313969734E+03 0.  0.
         25    1    3    3    0    0  0.10136494831E+03  0.26460130523E+02 -0.87058845782E+02  0.18493712981E+03  0.12509000000E+03 0.  0.
         25    1    4    4    0    0 -0.45171374215E+02 -0.50578780247E+02 -0.15989972445E+03  0.21404227629E+03  0.12509000000E+03 0.  0.
         25    1    4    4    0    0 -0.56193574096E+02  0.24118649723E+02 -0.11386459307E+03  0.17986684155E+03  0.12509000000E+03 0.  0.
<mgrwt>
<rscale>  2 0.45262526E+03</rscale>
<asrwt>0</asrwt>
<pdfrwt beam="1">  1       21 0.16031109E-01 0.45262526E+03</pdfrwt>
<pdfrwt beam="2">  1       21 0.69093338E-01 0.45262526E+03</pdfrwt>
<totfact> 0.61139401E+04</totfact>
</mgrwt>
</event>
<event>
 7    0  0.4748297E-002  0.4534116E+03  0.7546771E-02  0.1026710E+00
         21   -1    0    0  502  501  0.00000000000E+00  0.00000000000E+00  0.40839785843E+03  0.40839785843E+03  0.00000000000E+00 0.  1.
         21   -1    0    0  501  502 -0.00000000000E+00 -0.00000000000E+00 -0.12584666809E+03  0.12584666809E+03  0.00000000000E+00 0.  1.
      99926    2    1    2    0    0  0.00000000000E+00  0.00000000000E+00  0.28255119034E+03  0.53424452653E+03  0.45341155583E+03 0.  0.
      99925    2    3    3    0    0 -0.22391777403E+02 -0.85151952451E+02  0.97055649844E+02  0.29381085512E+03  0.26296914785E+03 0.  0.
         25    1    3    3    0    0  0.22391777403E+02  0.85151952451E+02  0.18549554049E+03  0.24043367140E+03  0.12509000000E+03 0.  0.
         25    1    4    4    0    0 -0.71710193222E+01 -0.84088062622E+02  0.60769935828E+02  0.16267365796E+03  0.12509000000E+03 0.  0.
         25    1    4    4    0    0 -0.15220758081E+02 -0.10638898288E+01  0.36285714016E+02  0.13113719716E+03  0.12509000000E+03 0.  0.
<mgrwt>
<rscale>  2 0.45341156E+03</rscale>
<asrwt>0</asrwt>
<pdfrwt beam="1">  1       21 0.60058508E-01 0.45341156E+03</pdfrwt>
<pdfrwt beam="2">  1       21 0.18506863E-01 0.45341156E+03</pdfrwt>
<totfact> 0.63717127E+04</totfact>
</mgrwt>
</event>
<event>
 6    0  0.4748297E-002  0.4608885E+03  0.7546771E-02  0.1024524E+00
         21   -1    0    0  502  501  0.00000000000E+00  0.00000000000E+00  0.25098513186E+03  0.25098513186E+03  0.00000000000E+00 0. -1.
         21   -1    0    0  501  502 -0.00000000000E+00 -0.00000000000E+00 -0.21158445974E+03  0.21158445974E+03  0.00000000000E+00 0. -1.
      99926    2    1    2    0    0  0.00000000000E+00  0.00000000000E+00  0.39400672123E+02  0.46256959160E+03  0.46088850508E+03 0.  0.
         25    1    3    3    0    0 -0.36261886241E+01 -0.10206615018E+02 -0.17838357746E+02  0.12681892343E+03  0.12509000000E+03 0.  0.
         25    1    3    3    0    0  0.10211649503E+03 -0.44921271846E+01  0.68506859971E+02  0.17546696477E+03  0.12509000000E+03 0.  0.
         25    1    3    3    0    0 -0.98490306405E+02  0.14698742202E+02 -0.11267830102E+02  0.16028370339E+03  0.12509000000E+03 0.  0.
<mgrwt>
<rscale>  2 0.46088851E+03</rscale>
<asrwt>0</asrwt>
<pdfrwt beam="1">  1       21 0.36909578E-01 0.46088851E+03</pdfrwt>
<pdfrwt beam="2">  1       21 0.31115362E-01 0.46088851E+03</pdfrwt>
<totfact> 0.64891999E+04</totfact>
</mgrwt>
</event>
<event>
 7    0  0.4748297E-002  0.4424619E+03  0.7546771E-02  0.1029994E+00
         21   -1    0    0  502  501  0.00000000000E+00  0.00000000000E+00  0.81718688760E+02  0.81718688760E+02  0.00000000000E+00 0. -1.
         21   -1    0    0  501  502 -0.00000000000E+00 -0.00000000000E+00 -0.59892213810E+03  0.59892213810E+03  0.00000000000E+00 0. -1.
      99926    2    1    2    0    0  0.00000000000E+00  0.14210854715E-13 -0.51720344934E+03  0.68064082686E+03  0.44246189348E+03 0.  0.
      99925    2    3    3    0    0  0.33608705363E+02  0.75626470637E+02 -0.23871592338E+03  0.36433129752E+03  0.26249398877E+03 0.  0.
         25    1    3    3    0    0 -0.33608705363E+02 -0.75626470637E+02 -0.27848752596E+03  0.31630952934E+03  0.12509000000E+03 0.  0.
         25    1    4    4    0    0  0.40545484707E+02  0.32531196426E+02 -0.78988217283E+02  0.15680835960E+03  0.12509000000E+03 0.  0.
         25    1    4    4    0    0 -0.69367793434E+01  0.43095274211E+02 -0.15972770609E+03  0.20752293791E+03  0.12509000000E+03 0.  0.
<mgrwt>
<rscale>  2 0.44246189E+03</rscale>
<asrwt>0</asrwt>
<pdfrwt beam="1">  1       21 0.12017454E-01 0.44246189E+03</pdfrwt>
<pdfrwt beam="2">  1       21 0.88076789E-01 0.44246189E+03</pdfrwt>
<totfact> 0.59640413E+04</totfact>
</mgrwt>
</event>
<event>
 7    0  0.4748297E-002  0.4578397E+03  0.7546771E-02  0.1025410E+00
         21   -1    0    0  502  501  0.00000000000E+00  0.00000000000E+00  0.15589119349E+03  0.15589119349E+03  0.00000000000E+00 0. -1.
         21   -1    0    0  501  502 -0.00000000000E+00 -0.00000000000E+00 -0.33615941897E+03  0.33615941897E+03  0.00000000000E+00 0. -1.
      99926    2    1    2    0    0  0.14210854715E-13  0.00000000000E+00 -0.18026822548E+03  0.49205061245E+03  0.45783967947E+03 0.  0.
      99925    2    3    3    0    0  0.95706048824E+02  0.48150454689E+01 -0.43108721434E+02  0.28314137356E+03  0.26292174333E+03 0.  0.
         25    1    3    3    0    0 -0.95706048824E+02 -0.48150454689E+01 -0.13715950405E+03  0.20890923889E+03  0.12509000000E+03 0.  0.
         25    1    4    4    0    0  0.43242438572E+02 -0.36586427667E+02 -0.31210018822E+02  0.14081920522E+03  0.12509000000E+03 0.  0.
         25    1    4    4    0    0  0.52463610251E+02  0.41401473136E+02 -0.11898702612E+02  0.14232216834E+03  0.12509000000E+03 0.  0.
<mgrwt>
<rscale>  2 0.45783968E+03</rscale>
<asrwt>0</asrwt>
<pdfrwt beam="1">  1       21 0.22925175E-01 0.45783968E+03</pdfrwt>
<pdfrwt beam="2">  1       21 0.49435209E-01 0.45783968E+03</pdfrwt>
<totfact> 0.64369430E+04</totfact>
</mgrwt>
</event>
<event>
 7    0  0.4748297E-002  0.4559341E+03  0.7546771E-02  0.1025967E+00
         21   -1    0    0  502  501  0.00000000000E+00  0.00000000000E+00  0.76019343180E+02  0.76019343180E+02  0.00000000000E+00 0.  1.
         21   -1    0    0  501  502 -0.00000000000E+00 -0.00000000000E+00 -0.68362828347E+03  0.68362828347E+03  0.00000000000E+00 0.  1.
      99926    2    1    2    0    0 -0.71054273576E-14  0.00000000000E+00 -0.60760894029E+03  0.75964762665E+03  0.45593408773E+03 0.  0.
      99925    2    3    3    0    0  0.34596677546E+02  0.61584704913E+02 -0.53105345996E+03  0.59686600716E+03  0.26313807627E+03 0.  0.
         25    1    3    3    0    0 -0.34596677546E+02 -0.61584704913E+02 -0.76555480326E+02  0.16278161949E+03  0.12509000000E+03 0.  0.
         25    1    4    4    0    0  0.55676897704E+02  0.17021809599E+02 -0.26488239922E+03  0.29866344345E+03  0.12509000000E+03 0.  0.
         25    1    4    4    0    0 -0.21080220159E+02  0.44562895314E+02 -0.26617106074E+03  0.29820256370E+03  0.12509000000E+03 0.  0.
<mgrwt>
<rscale>  2 0.45593409E+03</rscale>
<asrwt>0</asrwt>
<pdfrwt beam="1">  1       21 0.11179316E-01 0.45593409E+03</pdfrwt>
<pdfrwt beam="2">  1       21 0.10053357E+00 0.45593409E+03</pdfrwt>
<totfact> 0.49414660E+04</totfact>
</mgrwt>
</event>
<event>
 7    0  0.4748297E-002  0.4124123E+03  0.7546771E-02  0.1039565E+00
         21   -1    0    0  502  501  0.00000000000E+00  0.00000000000E+00  0.76170721771E+02  0.76170721771E+02  0.00000000000E+00 0. -1.
         21   -1    0    0  501  502 -0.00000000000E+00 -0.00000000000E+00 -0.55823245298E+03  0.55823245298E+03  0.00000000000E+00 0. -1.
      99926    2    1    2    0    0  0.35527136788E-14  0.17763568394E-14 -0.48206173121E+03  0.63440317476E+03  0.41241226393E+03 0.  0.
      99925    2    3    3    0    0  0.27734586325E+02 -0.12920764786E+02 -0.40567169698E+03  0.48467308803E+03  0.26344320656E+03 0.  0.
         25    1    4    4    0    0  0.43937790802E+02 -0.22097437553E+02 -0.16519669810E+03  0.21297014666E+03  0.12509000000E+03 0.  0.
         25    1    3    3    0    0 -0.27734586325E+02  0.12920764786E+02 -0.76390034230E+02  0.14973008673E+03  0.12509000000E+03 0.  0.
         25    1    4    4    0    0 -0.16203204477E+02  0.91766727670E+01 -0.24047499888E+03  0.27170294137E+03  0.12509000000E+03 0.  0.
<mgrwt>
<rscale>  2 0.41241226E+03</rscale>
<asrwt>0</asrwt>
<pdfrwt beam="1">  1       21 0.11201576E-01 0.41241226E+03</pdfrwt>
<pdfrwt beam="2">  1       21 0.82093010E-01 0.41241226E+03</pdfrwt>
<totfact> 0.80400066E+04</totfact>
</mgrwt>
</event>
<event>
 7    0  0.4748297E-002  0.4652716E+03  0.7546771E-02  0.1023263E+00
         21   -1    0    0  502  501  0.00000000000E+00  0.00000000000E+00  0.65057525668E+02  0.65057525668E+02  0.00000000000E+00 0.  1.
         21   -1    0    0  501  502 -0.00000000000E+00 -0.00000000000E+00 -0.83187002916E+03  0.83187002916E+03  0.00000000000E+00 0.  1.
      99926    2    1    2    0    0  0.00000000000E+00  0.00000000000E+00 -0.76681250349E+03  0.89692755483E+03  0.46527155845E+03 0.  0.
      99925    2    3    3    0    0  0.12191875447E+02 -0.73748662821E+02 -0.66546715302E+03  0.71942855411E+03  0.26295133698E+03 0.  0.
         25    1    4    4    0    0  0.35521164977E+02 -0.10977025114E+02 -0.28845384384E+03  0.31659970999E+03  0.12509000000E+03 0.  0.
         25    1    3    3    0    0 -0.12191875447E+02  0.73748662821E+02 -0.10134535047E+03  0.17749900072E+03  0.12509000000E+03 0.  0.
         25    1    4    4    0    0 -0.23329289530E+02 -0.62771637707E+02 -0.37701330919E+03  0.40282884412E+03  0.12509000000E+03 0.  0.
<mgrwt>
<rscale>  2 0.46527156E+03</rscale>
<asrwt>0</asrwt>
<pdfrwt beam="1">  1       21 0.95672839E-02 0.46527156E+03</pdfrwt>
<pdfrwt beam="2">  1       21 0.12233382E+00 0.46527156E+03</pdfrwt>
<totfact> 0.40047480E+04</totfact>
</mgrwt>
</event>
<event>
 7    0  0.4748297E-002  0.4519384E+03  0.7546771E-02  0.1027146E+00
         21   -1    0    0  502  501  0.00000000000E+00  0.00000000000E+00  0.35380707079E+03  0.35380707079E+03  0.00000000000E+00 0.  1.
         21   -1    0    0  501  502 -0.00000000000E+00 -0.00000000000E+00 -0.14432182613E+03  0.14432182613E+03  0.00000000000E+00 0.  1.
      99926    2    1    2    0    0  0.00000000000E+00  0.00000000000E+00  0.20948524465E+03  0.49812889692E+03  0.45193841419E+03 0.  0.
      99925    2    3    3    0    0  0.96644559592E+02  0.66162039796E+01  0.19029579740E+03  0.33875610112E+03  0.26298148316E+03 0.  0.
         25    1    4    4    0    0  0.71191741155E+02 -0.20304386083E+02  0.13011127928E+03  0.19508199609E+03  0.12509000000E+03 0.  0.
         25    1    3    3    0    0 -0.96644559592E+02 -0.66162039796E+01  0.19189447251E+02  0.15937279580E+03  0.12509000000E+03 0.  0.
         25    1    4    4    0    0  0.25452818437E+02  0.26920590062E+02  0.60184518123E+02  0.14367410503E+03  0.12509000000E+03 0.  0.
<mgrwt>
<rscale>  2 0.45193841E+03</rscale>
<asrwt>0</asrwt>
<pdfrwt beam="1">  1       21 0.52030452E-01 0.45193841E+03</pdfrwt>
<pdfrwt beam="2">  1       21 0.21223798E-01 0.45193841E+03</pdfrwt>
<totfact> 0.67016263E+04</totfact>
</mgrwt>
</event>
<event>
 7    0  0.4748297E-002  0.4511773E+03  0.7546771E-02  0.1027372E+00
         21   -1    0    0  502  501  0.00000000000E+00  0.00000000000E+00  0.47605104882E+03  0.47605104882E+03  0.00000000000E+00 0. -1.
         21   -1    0    0  501  502 -0.00000000000E+00 -0.00000000000E+00 -0.10690078750E+03  0.10690078750E+03  0.00000000000E+00 0. -1.
      99926    2    1    2    0    0  0.00000000000E+00  0.00000000000E+00  0.36915026132E+03  0.58295183632E+03  0.45117726897E+03 0.  0.
      99925    2    3    3    0    0 -0.92602288632E+02 -0.55816770961E+02  0.21263978883E+03  0.35528161016E+03  0.26328434618E+03 0.  0.
         25    1    4    4    0    0 -0.79293280001E+02 -0.23594984952E+02  0.81328419663E+02  0.17060471129E+03  0.12509000000E+03 0.  0.
         25    1    4    4    0    0 -0.13309008631E+02 -0.32221786009E+02  0.13131136916E+03  0.18467689887E+03  0.12509000000E+03 0.  0.
         25    1    3    3    0    0  0.92602288632E+02  0.55816770961E+02  0.15651047250E+03  0.22767022616E+03  0.12509000000E+03 0.  0.
<mgrwt>
<rscale>  2 0.45117727E+03</rscale>
<asrwt>0</asrwt>
<pdfrwt beam="1">  1       21 0.70007506E-01 0.45117727E+03</pdfrwt>
<pdfrwt beam="2">  1       21 0.15720704E-01 0.45117727E+03</pdfrwt>
<totfact> 0.61579956E+04</totfact>
</mgrwt>
</event>
<event>
 7    0  0.4748297E-002  0.4628835E+03  0.7546771E-02  0.1023948E+00
         21   -1    0    0  502  501  0.00000000000E+00  0.00000000000E+00  0.17588201523E+03  0.17588201523E+03  0.00000000000E+00 0.  1.
         21   -1    0    0  501  502 -0.00000000000E+00 -0.00000000000E+00 -0.30455233503E+03  0.30455233503E+03  0.00000000000E+00 0.  1.
      99926    2    1    2    0    0 -0.14210854715E-13  0.00000000000E+00 -0.12867031979E+03  0.48043435026E+03  0.46288347747E+03 0.  0.
      99925    2    3    3    0    0  0.99229218595E+02  0.53211416607E+02 -0.35396933290E+02  0.28801469063E+03  0.26271967276E+03 0.  0.
         25    1    4    4    0    0  0.46884021024E+02  0.26583762521E+02 -0.57903099353E+02  0.14800366506E+03  0.12509000000E+03 0.  0.
         25    1    3    3    0    0 -0.99229218595E+02 -0.53211416607E+02 -0.93273386504E+02  0.19241965963E+03  0.12509000000E+03 0.  0.
         25    1    4    4    0    0  0.52345197571E+02  0.26627654087E+02  0.22506166062E+02  0.14001102557E+03  0.12509000000E+03 0.  0.
<mgrwt>
<rscale>  2 0.46288348E+03</rscale>
<asrwt>0</asrwt>
<pdfrwt beam="1">  1       21 0.25865002E-01 0.46288348E+03</pdfrwt>
<pdfrwt beam="2">  1       21 0.44787108E-01 0.46288348E+03</pdfrwt>
<totfact> 0.62655791E+04</totfact>
</mgrwt>
</event>
<event>
 7    0  0.4748297E-002  0.4513091E+03  0.7546771E-02  0.1027332E+00
         21   -1    0    0  502  501  0.00000000000E+00  0.00000000000E+00  0.68902349131E+03  0.68902349131E+03  0.00000000000E+00 0. -1.
         21   -1    0    0  501  502 -0.00000000000E+00 -0.00000000000E+00 -0.73901659006E+02  0.73901659006E+02  0.00000000000E+00 0. -1.
      99926    2    1    2    0    0  0.00000000000E+00  0.00000000000E+00  0.61512183230E+03  0.76292515031E+03  0.45130911403E+03 0.  0.
      99925    2    3    3    0    0  0.80809248058E+02 -0.74089489342E+02  0.39208146225E+03  0.48469161212E+03  0.26301843817E+03 0.  0.
         25    1    4    4    0    0  0.82852718439E+02 -0.40866748275E+02  0.21272295469E+03  0.26350185506E+03  0.12509000000E+03 0.  0.
         25    1    4    4    0    0 -0.20434703812E+01 -0.33222741067E+02  0.17935850756E+03  0.22118975706E+03  0.12509000000E+03 0.  0.
         25    1    3    3    0    0 -0.80809248058E+02  0.74089489342E+02  0.22304037005E+03  0.27823353819E+03  0.12509000000E+03 0.  0.
<mgrwt>
<rscale>  2 0.45130911E+03</rscale>
<asrwt>0</asrwt>
<pdfrwt beam="1">  1       21 0.10132698E+00 0.45130911E+03</pdfrwt>
<pdfrwt beam="2">  1       21 0.10867891E-01 0.45130911E+03</pdfrwt>
<totfact> 0.51074039E+04</totfact>
</mgrwt>
</event>
<event>
 7    0  0.4748297E-002  0.4827194E+03  0.7546771E-02  0.1018390E+00
         21   -1    0    0  502  501  0.00000000000E+00  0.00000000000E+00  0.71495176931E+03  0.71495176931E+03  0.00000000000E+00 0. -1.
         21   -1    0    0  501  502 -0.00000000000E+00 -0.00000000000E+00 -0.81480330425E+02  0.81480330425E+02  0.00000000000E+00 0. -1.
      99926    2    1    2    0    0  0.14210854715E-13  0.00000000000E+00  0.63347143888E+03  0.79643209973E+03  0.48271940670E+03 0.  0.
      99925    2    3    3    0    0  0.10715664416E+03 -0.78561162989E+02  0.44811491145E+03  0.53631875313E+03  0.26301412202E+03 0.  0.
         25    1    4    4    0    0  0.83210746549E+02 -0.66739749547E+02  0.21791871441E+03  0.27297306955E+03  0.12509000000E+03 0.  0.
         25    1    3    3    0    0 -0.10715664416E+03  0.78561162989E+02  0.18535652743E+03  0.26011334660E+03  0.12509000000E+03 0.  0.
         25    1    4    4    0    0  0.23945897610E+02 -0.11821413442E+02  0.23019619704E+03  0.26334568358E+03  0.12509000000E+03 0.  0.
<mgrwt>
<rscale>  2 0.48271941E+03</rscale>
<asrwt>0</asrwt>
<pdfrwt beam="1">  1       21 0.10513996E+00 0.48271941E+03</pdfrwt>
<pdfrwt beam="2">  1       21 0.11982402E-01 0.48271941E+03</pdfrwt>
<totfact> 0.38786439E+04</totfact>
</mgrwt>
</event>
<event>
 7    0  0.4748297E-002  0.4625887E+03  0.7546771E-02  0.1024033E+00
         21   -1    0    0  502  501  0.00000000000E+00  0.00000000000E+00  0.16805717525E+04  0.16805717525E+04  0.00000000000E+00 0. -1.
         21   -1    0    0  501  502 -0.00000000000E+00 -0.00000000000E+00 -0.31832664385E+02  0.31832664385E+02  0.00000000000E+00 0. -1.
      99926    2    1    2    0    0  0.00000000000E+00  0.71054273576E-14  0.16487390881E+04  0.17124044169E+04  0.46258870100E+03 0.  0.
      99925    2    3    3    0    0 -0.93383624179E+02  0.59543572630E+02  0.85835174755E+03  0.90455195850E+03  0.26302202338E+03 0.  0.
         25    1    3    3    0    0  0.93383624179E+02 -0.59543572630E+02  0.79038734060E+03  0.80785245842E+03  0.12509000000E+03 0.  0.
         25    1    4    4    0    0 -0.30060634193E+02  0.62381555027E+02  0.37751094779E+03  0.40367948169E+03  0.12509000000E+03 0.  0.
         25    1    4    4    0    0 -0.63322989986E+02 -0.28379823972E+01  0.48084079976E+03  0.50087247680E+03  0.12509000000E+03 0.  0.
<mgrwt>
<rscale>  2 0.46258870E+03</rscale>
<asrwt>0</asrwt>
<pdfrwt beam="1">  1       21 0.24714285E+00 0.46258870E+03</pdfrwt>
<pdfrwt beam="2">  1       21 0.46812753E-02 0.46258870E+03</pdfrwt>
<totfact> 0.17925319E+04</totfact>
</mgrwt>
</event>
<event>
 7    0  0.4748297E-002  0.4427106E+03  0.7546771E-02  0.1029918E+00
         21   -1    0    0  502  501  0.00000000000E+00  0.00000000000E+00  0.30802011885E+03  0.30802011885E+03  0.00000000000E+00 0.  1.
         21   -1    0    0  501  502 -0.00000000000E+00 -0.00000000000E+00 -0.15907453999E+03  0.15907453999E+03  0.00000000000E+00 0.  1.
      99926    2    1    2    0    0  0.00000000000E+00  0.00000000000E+00  0.14894557886E+03  0.46709465884E+03  0.44271055426E+03 0.  0.
      99925    2    3    3    0    0 -0.63927172649E+02 -0.14641594841E+02  0.13479523113E+02  0.27139177163E+03  0.26300330124E+03 0.  0.
         25    1    4    4    0    0 -0.45288277084E+02 -0.35781815231E+02 -0.19126956148E+02  0.13908527921E+03  0.12509000000E+03 0.  0.
         25    1    4    4    0    0 -0.18638895566E+02  0.21140220390E+02  0.32606479261E+02  0.13230649242E+03  0.12509000000E+03 0.  0.
         25    1    3    3    0    0  0.63927172649E+02  0.14641594841E+02  0.13546605575E+03  0.19570288721E+03  0.12509000000E+03 0.  0.
<mgrwt>
<rscale>  2 0.44271055E+03</rscale>
<asrwt>0</asrwt>
<pdfrwt beam="1">  1       21 0.45297076E-01 0.44271055E+03</pdfrwt>
<pdfrwt beam="2">  1       21 0.23393315E-01 0.44271055E+03</pdfrwt>
<totfact> 0.74673098E+04</totfact>
</mgrwt>
</event>
<event>
 7    0  0.4748297E-002  0.4547615E+03  0.7546771E-02  0.1026312E+00
         21   -1    0    0  502  501  0.00000000000E+00  0.00000000000E+00  0.29773897129E+03  0.29773897129E+03  0.00000000000E+00 0. -1.
         21   -1    0    0  501  502 -0.00000000000E+00 -0.00000000000E+00 -0.17364873897E+03  0.17364873897E+03  0.00000000000E+00 0. -1.
      99926    2    1    2    0    0  0.00000000000E+00  0.00000000000E+00  0.12409023232E+03  0.47138771026E+03  0.45476146234E+03 0.  0.
      99925    2    3    3    0    0  0.44891424515E+02  0.87783212971E+02  0.13520416949E+03  0.31172506537E+03  0.26300421377E+03 0.  0.
         25    1    3    3    0    0 -0.44891424515E+02 -0.87783212971E+02 -0.11113937163E+02  0.15966264489E+03  0.12509000000E+03 0.  0.
         25    1    4    4    0    0  0.45903622801E+02  0.29236451283E+02  0.34261775775E+02  0.14065308404E+03  0.12509000000E+03 0.  0.
         25    1    4    4    0    0 -0.10121982858E+01  0.58546761688E+02  0.10094239371E+03  0.17107198133E+03  0.12509000000E+03 0.  0.
<mgrwt>
<rscale>  2 0.45476146E+03</rscale>
<asrwt>0</asrwt>
<pdfrwt beam="1">  1       21 0.43785143E-01 0.45476146E+03</pdfrwt>
<pdfrwt beam="2">  1       21 0.25536579E-01 0.45476146E+03</pdfrwt>
<totfact> 0.67460229E+04</totfact>
</mgrwt>
</event>
<event>
 7    0  0.4748297E-002  0.4503306E+03  0.7546771E-02  0.1027624E+00
         21   -1    0    0  502  501  0.00000000000E+00  0.00000000000E+00  0.44511204681E+02  0.44511204681E+02  0.00000000000E+00 0.  1.
         21   -1    0    0  501  502 -0.00000000000E+00 -0.00000000000E+00 -0.11390256938E+04  0.11390256938E+04  0.00000000000E+00 0.  1.
      99926    2    1    2    0    0 -0.35527136788E-14  0.00000000000E+00 -0.10945144891E+04  0.11835368984E+04  0.45033057099E+03 0.  0.
      99925    2    3    3    0    0 -0.17861339880E+02 -0.10723740407E+03 -0.68080619375E+03  0.73786779471E+03  0.26293139928E+03 0.  0.
         25    1    3    3    0    0  0.17861339880E+02  0.10723740407E+03 -0.41370829532E+03  0.44566910372E+03  0.12509000000E+03 0.  0.
         25    1    4    4    0    0 -0.92994116910E+01 -0.11032974708E+02 -0.32509167595E+03  0.34862632067E+03  0.12509000000E+03 0.  0.
         25    1    4    4    0    0 -0.85619281890E+01 -0.96204429364E+02 -0.35571451779E+03  0.38924147404E+03  0.12509000000E+03 0.  0.
<mgrwt>
<rscale>  2 0.45033057E+03</rscale>
<asrwt>0</asrwt>
<pdfrwt beam="1">  1       21 0.65457668E-02 0.45033057E+03</pdfrwt>
<pdfrwt beam="2">  1       21 0.16750374E+00 0.45033057E+03</pdfrwt>
<totfact> 0.33898697E+04</totfact>
</mgrwt>
</event>
<event>
 7    0  0.4748297E-002  0.4532561E+03  0.7546771E-02  0.1026755E+00
         21   -1    0    0  502  501  0.00000000000E+00  0.00000000000E+00  0.11665615331E+04  0.11665615331E+04  0.00000000000E+00 0. -1.
         21   -1    0    0  501  502 -0.00000000000E+00 -0.00000000000E+00 -0.44027068319E+02  0.44027068319E+02  0.00000000000E+00 0. -1.
      99926    2    1    2    0    0 -0.14210854715E-13  0.71054273576E-14  0.11225344648E+04  0.12105886014E+04  0.45325614972E+03 0.  0.
      99925    2    3    3    0    0  0.97807023462E+02 -0.46222217509E+02  0.77061762742E+03  0.82174971994E+03  0.26404235891E+03 0.  0.
         25    1    4    4    0    0  0.70899985341E+01 -0.20948314078E+02  0.30061389419E+03  0.32635153044E+03  0.12509000000E+03 0.  0.
         25    1    3    3    0    0 -0.97807023462E+02  0.46222217509E+02  0.35191683733E+03  0.38883888145E+03  0.12509000000E+03 0.  0.
         25    1    4    4    0    0  0.90717024928E+02 -0.25273903432E+02  0.47000373323E+03  0.49539818950E+03  0.12509000000E+03 0.  0.
<mgrwt>
<rscale>  2 0.45325615E+03</rscale>
<asrwt>0</asrwt>
<pdfrwt beam="1">  1       21 0.17155315E+00 0.45325615E+03</pdfrwt>
<pdfrwt beam="2">  1       21 0.64745696E-02 0.45325615E+03</pdfrwt>
<totfact> 0.32258087E+04</totfact>
</mgrwt>
</event>
<event>
 7    0  0.4748297E-002  0.4543655E+03  0.7546771E-02  0.1026428E+00
         21   -1    0    0  502  501  0.00000000000E+00  0.00000000000E+00  0.11773074012E+03  0.11773074012E+03  0.00000000000E+00 0. -1.
         21   -1    0    0  501  502 -0.00000000000E+00 -0.00000000000E+00 -0.43839015939E+03  0.43839015939E+03  0.00000000000E+00 0. -1.
      99926    2    1    2    0    0  0.00000000000E+00  0.00000000000E+00 -0.32065941927E+03  0.55612089951E+03  0.45436548252E+03 0.  0.
      99925    2    3    3    0    0 -0.61261996089E+02 -0.65324313300E+02 -0.28620586268E+03  0.39846667745E+03  0.26237682659E+03 0.  0.
         25    1    4    4    0    0 -0.57433531893E+02 -0.56801306866E+02 -0.12646528757E+03  0.19536114278E+03  0.12509000000E+03 0.  0.
         25    1    3    3    0    0  0.61261996089E+02  0.65324313300E+02 -0.34453556594E+02  0.15765422207E+03  0.12509000000E+03 0.  0.
         25    1    4    4    0    0 -0.38284641959E+01 -0.85230064341E+01 -0.15974057511E+03  0.20310553467E+03  0.12509000000E+03 0.  0.
<mgrwt>
<rscale>  2 0.45436548E+03</rscale>
<asrwt>0</asrwt>
<pdfrwt beam="1">  1       21 0.17313344E-01 0.45436548E+03</pdfrwt>
<pdfrwt beam="2">  1       21 0.64469141E-01 0.45436548E+03</pdfrwt>
<totfact> 0.61773326E+04</totfact>
</mgrwt>
</event>
<event>
 7    0  0.4748297E-002  0.4557050E+03  0.7546771E-02  0.1026034E+00
         21   -1    0    0  502  501  0.00000000000E+00  0.00000000000E+00  0.46064919578E+03  0.46064919578E+03  0.00000000000E+00 0.  1.
         21   -1    0    0  501  502 -0.00000000000E+00 -0.00000000000E+00 -0.11270346516E+03  0.11270346516E+03  0.00000000000E+00 0.  1.
      99926    2    1    2    0    0  0.00000000000E+00  0.71054273576E-14  0.34794573062E+03  0.57335266094E+03  0.45570499487E+03 0.  0.
      99925    2    3    3    0    0  0.10013380659E+03 -0.50297659794E+02  0.24419038839E+03  0.37594619462E+03  0.26296380296E+03 0.  0.
         25    1    4    4    0    0  0.17075913772E+02  0.13429384291E+01  0.12220893039E+03  0.17571545487E+03  0.12509000000E+03 0.  0.
         25    1    4    4    0    0  0.83057892814E+02 -0.51640598223E+02  0.12198145800E+03  0.20023073975E+03  0.12509000000E+03 0.  0.
         25    1    3    3    0    0 -0.10013380659E+03  0.50297659794E+02  0.10375534223E+03  0.19740646632E+03  0.12509000000E+03 0.  0.
<mgrwt>
<rscale>  2 0.45570499E+03</rscale>
<asrwt>0</asrwt>
<pdfrwt beam="1">  1       21 0.67742528E-01 0.45570499E+03</pdfrwt>
<pdfrwt beam="2">  1       21 0.16574039E-01 0.45570499E+03</pdfrwt>
<totfact> 0.60013965E+04</totfact>
</mgrwt>
</event>
<event>
 7    0  0.4748297E-002  0.4314371E+03  0.7546771E-02  0.1033407E+00
         21   -1    0    0  502  501  0.00000000000E+00  0.00000000000E+00  0.90057668854E+02  0.90057668854E+02  0.00000000000E+00 0. -1.
         21   -1    0    0  501  502 -0.00000000000E+00 -0.00000000000E+00 -0.51671879662E+03  0.51671879662E+03  0.00000000000E+00 0. -1.
      99926    2    1    2    0    0  0.35527136788E-14  0.00000000000E+00 -0.42666112777E+03  0.60677646548E+03  0.43143708824E+03 0.  0.
      99925    2    3    3    0    0  0.10247141494E+02  0.59358285007E+01 -0.15015355523E+03  0.30305918948E+03  0.26298012132E+03 0.  0.
         25    1    4    4    0    0  0.40364640227E+02 -0.47072318080E+01 -0.97073148794E+02  0.16346916079E+03  0.12509000000E+03 0.  0.
         25    1    3    3    0    0 -0.10247141494E+02 -0.59358285007E+01 -0.27650757254E+03  0.30371727600E+03  0.12509000000E+03 0.  0.
         25    1    4    4    0    0 -0.30117498733E+02  0.10643060309E+02 -0.53080406439E+02  0.13959002869E+03  0.12509000000E+03 0.  0.
<mgrwt>
<rscale>  2 0.43143709E+03</rscale>
<asrwt>0</asrwt>
<pdfrwt beam="1">  1       21 0.13243775E-01 0.43143709E+03</pdfrwt>
<pdfrwt beam="2">  1       21 0.75988058E-01 0.43143709E+03</pdfrwt>
<totfact> 0.70495475E+04</totfact>
</mgrwt>
</event>
<event>
 7    0  0.4748297E-002  0.4555816E+03  0.7546771E-02  0.1026071E+00
         21   -1    0    0  502  501  0.00000000000E+00  0.00000000000E+00  0.44871362352E+02  0.44871362352E+02  0.00000000000E+00 0.  1.
         21   -1    0    0  501  502 -0.00000000000E+00 -0.00000000000E+00 -0.11563866483E+04  0.11563866483E+04  0.00000000000E+00 0.  1.
      99926    2    1    2    0    0  0.00000000000E+00  0.00000000000E+00 -0.11115152860E+04  0.12012580107E+04  0.45558158134E+03 0.  0.
      99925    2    3    3    0    0 -0.42614496428E+02  0.55772878636E+02 -0.46322020329E+03  0.53728464402E+03  0.26301182990E+03 0.  0.
         25    1    3    3    0    0  0.42614496428E+02 -0.55772878636E+02 -0.64829508266E+03  0.66397336663E+03  0.12509000000E+03 0.  0.
         25    1    4    4    0    0 -0.30565713792E+02 -0.70563205031E+01 -0.18381634133E+03  0.22454400451E+03  0.12509000000E+03 0.  0.
         25    1    4    4    0    0 -0.12048782636E+02  0.62829199139E+02 -0.27940386196E+03  0.31274063952E+03  0.12509000000E+03 0.  0.
<mgrwt>
<rscale>  2 0.45558158E+03</rscale>
<asrwt>0</asrwt>
<pdfrwt beam="1">  1       21 0.65987303E-02 0.45558158E+03</pdfrwt>
<pdfrwt beam="2">  1       21 0.17005684E+00 0.45558158E+03</pdfrwt>
<totfact> 0.31971014E+04</totfact>
</mgrwt>
</event>
<event>
 7    0  0.4748297E-002  0.4702416E+03  0.7546771E-02  0.1021852E+00
         21   -1    0    0  502  501  0.00000000000E+00  0.00000000000E+00  0.36615572865E+03  0.36615572865E+03  0.00000000000E+00 0. -1.
         21   -1    0    0  501  502 -0.00000000000E+00 -0.00000000000E+00 -0.15097888058E+03  0.15097888058E+03  0.00000000000E+00 0. -1.
      99926    2    1    2    0    0  0.00000000000E+00 -0.17763568394E-14  0.21517684807E+03  0.51713460924E+03  0.47024156359E+03 0.  0.
      99925    2    3    3    0    0 -0.11487714313E+03  0.89941743855E+01  0.75040724857E+02  0.29676379829E+03  0.26298286712E+03 0.  0.
         25    1    4    4    0    0 -0.83983329146E+02 -0.54393994608E+01  0.71995163951E+02  0.16707363159E+03  0.12509000000E+03 0.  0.
         25    1    3    3    0    0  0.11487714313E+03 -0.89941743855E+01  0.14013612321E+03  0.22037081095E+03  0.12509000000E+03 0.  0.
         25    1    4    4    0    0 -0.30893813989E+02  0.14433573846E+02  0.30455609060E+01  0.12969016670E+03  0.12509000000E+03 0.  0.
<mgrwt>
<rscale>  2 0.47024156E+03</rscale>
<asrwt>0</asrwt>
<pdfrwt beam="1">  1       21 0.53846431E-01 0.47024156E+03</pdfrwt>
<pdfrwt beam="2">  1       21 0.22202777E-01 0.47024156E+03</pdfrwt>
<totfact> 0.56884129E+04</totfact>
</mgrwt>
</event>
<event>
 7    0  0.4748297E-002  0.4564149E+03  0.7546771E-02  0.1025826E+00
         21   -1    0    0  502  501  0.00000000000E+00  0.00000000000E+00  0.77721265245E+03  0.77721265245E+03  0.00000000000E+00 0.  1.
         21   -1    0    0  501  502 -0.00000000000E+00 -0.00000000000E+00 -0.67006935445E+02  0.67006935445E+02  0.00000000000E+00 0.  1.
      99926    2    1    2    0    0  0.00000000000E+00  0.00000000000E+00  0.71020571700E+03  0.84421958789E+03  0.45641489033E+03 0.  0.
      99925    2    3    3    0    0 -0.10161315341E+03  0.51211529334E+02  0.47136048874E+03  0.55157235170E+03  0.26287543655E+03 0.  0.
         25    1    4    4    0    0 -0.11738722997E+02  0.37563753182E+02  0.23530426393E+03  0.26937787195E+03  0.12509000000E+03 0.  0.
         25    1    3    3    0    0  0.10161315341E+03 -0.51211529334E+02  0.23884522827E+03  0.29264723619E+03  0.12509000000E+03 0.  0.
         25    1    4    4    0    0 -0.89874430415E+02  0.13647776152E+02  0.23605622480E+03  0.28219447976E+03  0.12509000000E+03 0.  0.
<mgrwt>
<rscale>  2 0.45641489E+03</rscale>
<asrwt>0</asrwt>
<pdfrwt beam="1">  1       21 0.11429597E+00 0.45641489E+03</pdfrwt>
<pdfrwt beam="2">  1       21 0.98539616E-02 0.45641489E+03</pdfrwt>
<totfact> 0.45195318E+04</totfact>
</mgrwt>
</event>
<event>
 7    0  0.4748297E-002  0.4632456E+03  0.7546771E-02  0.1023844E+00
         21   -1    0    0  502  501  0.00000000000E+00  0.00000000000E+00  0.54019028515E+03  0.54019028515E+03  0.00000000000E+00 0.  1.
         21   -1    0    0  501  502 -0.00000000000E+00 -0.00000000000E+00 -0.99315235031E+02  0.99315235031E+02  0.00000000000E+00 0.  1.
      99926    2    1    2    0    0  0.00000000000E+00  0.00000000000E+00  0.44087505012E+03  0.63950552018E+03  0.46324561576E+03 0.  0.
      99925    2    3    3    0    0 -0.24075968494E+02  0.11019612116E+03  0.21610950395E+03  0.35863206786E+03  0.26304145114E+03 0.  0.
         25    1    3    3    0    0  0.24075968494E+02 -0.11019612116E+03  0.22476554617E+03  0.28087345232E+03  0.12509000000E+03 0.  0.
         25    1    4    4    0    0 -0.29705180388E+02  0.17517957722E+02  0.11042347123E+03  0.17038229862E+03  0.12509000000E+03 0.  0.
         25    1    4    4    0    0  0.56292118937E+01  0.92678163437E+02  0.10568603272E+03  0.18824976924E+03  0.12509000000E+03 0.  0.
<mgrwt>
<rscale>  2 0.46324562E+03</rscale>
<asrwt>0</asrwt>
<pdfrwt beam="1">  1       21 0.79439747E-01 0.46324562E+03</pdfrwt>
<pdfrwt beam="2">  1       21 0.14605182E-01 0.46324562E+03</pdfrwt>
<totfact> 0.52790011E+04</totfact>
</mgrwt>
</event>
<event>
 7    0  0.4748297E-002  0.4552858E+03  0.7546771E-02  0.1026157E+00
         21   -1    0    0  502  501  0.00000000000E+00  0.00000000000E+00  0.47062079173E+03  0.47062079173E+03  0.00000000000E+00 0. -1.
         21   -1    0    0  501  502 -0.00000000000E+00 -0.00000000000E+00 -0.11011263442E+03  0.11011263442E+03  0.00000000000E+00 0. -1.
      99926    2    1    2    0    0  0.00000000000E+00  0.00000000000E+00  0.36050815731E+03  0.58073342614E+03  0.45528582314E+03 0.  0.
      99925    2    3    3    0    0 -0.23917033616E+02  0.89646291891E+02  0.31012554051E+03  0.41704348045E+03  0.26294282945E+03 0.  0.
         25    1    4    4    0    0  0.10365862331E+02  0.13947050918E+02  0.16888646518E+03  0.21088413300E+03  0.12509000000E+03 0.  0.
         25    1    3    3    0    0  0.23917033616E+02 -0.89646291891E+02  0.50382616799E+02  0.16368994570E+03  0.12509000000E+03 0.  0.
         25    1    4    4    0    0 -0.34282895947E+02  0.75699240973E+02  0.14123907533E+03  0.20615934744E+03  0.12509000000E+03 0.  0.
<mgrwt>
<rscale>  2 0.45528582E+03</rscale>
<asrwt>0</asrwt>
<pdfrwt beam="1">  1       21 0.69208939E-01 0.45528582E+03</pdfrwt>
<pdfrwt beam="2">  1       21 0.16193035E-01 0.45528582E+03</pdfrwt>
<totfact> 0.59745014E+04</totfact>
</mgrwt>
</event>
<event>
 7    0  0.4748297E-002  0.4569917E+03  0.7546771E-02  0.1025657E+00
         21   -1    0    0  502  501  0.00000000000E+00  0.00000000000E+00  0.38823116132E+03  0.38823116132E+03  0.00000000000E+00 0. -1.
         21   -1    0    0  501  502 -0.00000000000E+00 -0.00000000000E+00 -0.13448262884E+03  0.13448262884E+03  0.00000000000E+00 0. -1.
      99926    2    1    2    0    0  0.71054273576E-14 -0.14210854715E-13  0.25374853248E+03  0.52271379016E+03  0.45699167245E+03 0.  0.
      99925    2    3    3    0    0 -0.26908871727E+02  0.83598634517E+02  0.74390511229E+02  0.28706653904E+03  0.26298370787E+03 0.  0.
         25    1    4    4    0    0 -0.52540340839E+02  0.31787847775E+02  0.33358253070E+02  0.14328724936E+03  0.12509000000E+03 0.  0.
         25    1    3    3    0    0  0.26908871727E+02 -0.83598634517E+02  0.17935802125E+03  0.23564725112E+03  0.12509000000E+03 0.  0.
         25    1    4    4    0    0  0.25631469113E+02  0.51810786742E+02  0.41032258160E+02  0.14377928968E+03  0.12509000000E+03 0.  0.
<mgrwt>
<rscale>  2 0.45699167E+03</rscale>
<asrwt>0</asrwt>
<pdfrwt beam="1">  1       21 0.57092818E-01 0.45699167E+03</pdfrwt>
<pdfrwt beam="2">  1       21 0.19776857E-01 0.45699167E+03</pdfrwt>
<totfact> 0.62706055E+04</totfact>
</mgrwt>
</event>
<event>
 7    0  0.4748297E-002  0.4527988E+03  0.7546771E-02  0.1026891E+00
         21   -1    0    0  502  501  0.00000000000E+00  0.00000000000E+00  0.61425592143E+02  0.61425592143E+02  0.00000000000E+00 0. -1.
         21   -1    0    0  501  502 -0.00000000000E+00 -0.00000000000E+00 -0.83445151920E+03  0.83445151920E+03  0.00000000000E+00 0. -1.
      99926    2    1    2    0    0  0.00000000000E+00  0.00000000000E+00 -0.77302592706E+03  0.89587711135E+03  0.45279875743E+03 0.  0.
      99925    2    3    3    0    0 -0.71952806115E+02 -0.43104269868E+02 -0.34367529997E+03  0.44087749215E+03  0.26310656944E+03 0.  0.
         25    1    3    3    0    0  0.71952806115E+02  0.43104269868E+02 -0.42935062709E+03  0.45499961920E+03  0.12509000000E+03 0.  0.
         25    1    4    4    0    0 -0.51172203974E+02 -0.60586602227E+02 -0.18070616161E+03  0.23364835923E+03  0.12509000000E+03 0.  0.
         25    1    4    4    0    0 -0.20780602141E+02  0.17482332359E+02 -0.16296913836E+03  0.20722913291E+03  0.12509000000E+03 0.  0.
<mgrwt>
<rscale>  2 0.45279876E+03</rscale>
<asrwt>0</asrwt>
<pdfrwt beam="1">  1       21 0.90331753E-02 0.45279876E+03</pdfrwt>
<pdfrwt beam="2">  1       21 0.12271346E+00 0.45279876E+03</pdfrwt>
<totfact> 0.44168789E+04</totfact>
</mgrwt>
</event>
<event>
 7    0  0.4748297E-002  0.4542605E+03  0.7546771E-02  0.1026459E+00
         21   -1    0    0  502  501  0.00000000000E+00  0.00000000000E+00  0.19141348804E+03  0.19141348804E+03  0.00000000000E+00 0.  1.
         21   -1    0    0  501  502 -0.00000000000E+00 -0.00000000000E+00 -0.26951157319E+03  0.26951157319E+03  0.00000000000E+00 0.  1.
      99926    2    1    2    0    0  0.00000000000E+00  0.00000000000E+00 -0.78098085151E+02  0.46092506123E+03  0.45426049924E+03 0.  0.
      99925    2    3    3    0    0 -0.75263254998E+02 -0.63440790563E+02  0.53680642601E+01  0.28119360139E+03  0.26334717369E+03 0.  0.
         25    1    3    3    0    0  0.75263254998E+02  0.63440790563E+02 -0.83466149411E+02  0.17973145984E+03  0.12509000000E+03 0.  0.
         25    1    4    4    0    0 -0.34389620812E+02 -0.73387170294E+02  0.69257020464E+01  0.14921057681E+03  0.12509000000E+03 0.  0.
         25    1    4    4    0    0 -0.40873634186E+02  0.99463797314E+01 -0.15576377863E+01  0.13198302458E+03  0.12509000000E+03 0.  0.
<mgrwt>
<rscale>  2 0.45426050E+03</rscale>
<asrwt>0</asrwt>
<pdfrwt beam="1">  1       21 0.28149043E-01 0.45426050E+03</pdfrwt>
<pdfrwt beam="2">  1       21 0.39634055E-01 0.45426050E+03</pdfrwt>
<totfact> 0.68515540E+04</totfact>
</mgrwt>
</event>
<event>
 7    0  0.4748297E-002  0.4476157E+03  0.7546771E-02  0.1028435E+00
         21   -1    0    0  502  501  0.00000000000E+00  0.00000000000E+00  0.26160134259E+03  0.26160134259E+03  0.00000000000E+00 0. -1.
         21   -1    0    0  501  502 -0.00000000000E+00 -0.00000000000E+00 -0.19147436730E+03  0.19147436730E+03  0.00000000000E+00 0. -1.
      99926    2    1    2    0    0  0.00000000000E+00  0.00000000000E+00  0.70126975287E+02  0.45307570988E+03  0.44761569032E+03 0.  0.
      99925    2    3    3    0    0  0.36991718827E+01 -0.98637546201E+02  0.84043744845E+02  0.29312498632E+03  0.26289894858E+03 0.  0.
         25    1    4    4    0    0  0.11678416396E+02 -0.53482760049E+02  0.18019640483E+01  0.13655601857E+03  0.12509000000E+03 0.  0.
         25    1    3    3    0    0 -0.36991718827E+01  0.98637546201E+02 -0.13916769558E+02  0.15995072356E+03  0.12509000000E+03 0.  0.
         25    1    4    4    0    0 -0.79792445129E+01 -0.45154786151E+02  0.82241780797E+02  0.15656896776E+03  0.12509000000E+03 0.  0.
<mgrwt>
<rscale>  2 0.44761569E+03</rscale>
<asrwt>0</asrwt>
<pdfrwt beam="1">  1       21 0.38470786E-01 0.44761569E+03</pdfrwt>
<pdfrwt beam="2">  1       21 0.28157995E-01 0.44761569E+03</pdfrwt>
<totfact> 0.72886549E+04</totfact>
</mgrwt>
</event>
<event>
 7    0  0.4748297E-002  0.4522807E+03  0.7546771E-02  0.1027044E+00
         21   -1    0    0  502  501  0.00000000000E+00  0.00000000000E+00  0.21174200582E+03  0.21174200582E+03  0.00000000000E+00 0.  1.
         21   -1    0    0  501  502 -0.00000000000E+00 -0.00000000000E+00 -0.24151776005E+03  0.24151776005E+03  0.00000000000E+00 0.  1.
      99926    2    1    2    0    0  0.00000000000E+00  0.00000000000E+00 -0.29775754230E+02  0.45325976586E+03  0.45228068698E+03 0.  0.
      99925    2    3    3    0    0  0.49538970806E+02 -0.80029679261E+02  0.39454636594E+02  0.28208963323E+03  0.26298105186E+03 0.  0.
         25    1    4    4    0    0 -0.17212880913E+01 -0.40890104438E+02  0.50382442724E+02  0.14092857094E+03  0.12509000000E+03 0.  0.
         25    1    3    3    0    0 -0.49538970806E+02  0.80029679261E+02 -0.69230390824E+02  0.17117013263E+03  0.12509000000E+03 0.  0.
         25    1    4    4    0    0  0.51260258897E+02 -0.39139574823E+02 -0.10927806129E+02  0.14116106229E+03  0.12509000000E+03 0.  0.
<mgrwt>
<rscale>  2 0.45228069E+03</rscale>
<asrwt>0</asrwt>
<pdfrwt beam="1">  1       21 0.31138531E-01 0.45228069E+03</pdfrwt>
<pdfrwt beam="2">  1       21 0.35517317E-01 0.45228069E+03</pdfrwt>
<totfact> 0.70183957E+04</totfact>
</mgrwt>
</event>
<event>
 7    0  0.4748297E-002  0.4418750E+03  0.7546771E-02  0.1030173E+00
         21   -1    0    0  502  501  0.00000000000E+00  0.00000000000E+00  0.90710967708E+02  0.90710967708E+02  0.00000000000E+00 0.  1.
         21   -1    0    0  501  502 -0.00000000000E+00 -0.00000000000E+00 -0.53812003972E+03  0.53812003972E+03  0.00000000000E+00 0.  1.
      99926    2    1    2    0    0 -0.71054273576E-14  0.00000000000E+00 -0.44740907201E+03  0.62883100743E+03  0.44187504816E+03 0.  0.
      99925    2    3    3    0    0 -0.47412792181E+02 -0.68400188704E+02 -0.36384124988E+03  0.45690763010E+03  0.26354803860E+03 0.  0.
         25    1    4    4    0    0 -0.43143388096E+02 -0.62199769031E+02 -0.23791921976E+03  0.27925476976E+03  0.12509000000E+03 0.  0.
         25    1    3    3    0    0  0.47412792181E+02  0.68400188704E+02 -0.83567822131E+02  0.17192337733E+03  0.12509000000E+03 0.  0.
         25    1    4    4    0    0 -0.42694040854E+01 -0.62004196730E+01 -0.12592203012E+03  0.17765286033E+03  0.12509000000E+03 0.  0.
<mgrwt>
<rscale>  2 0.44187505E+03</rscale>
<asrwt>0</asrwt>
<pdfrwt beam="1">  1       21 0.13339848E-01 0.44187505E+03</pdfrwt>
<pdfrwt beam="2">  1       21 0.79135302E-01 0.44187505E+03</pdfrwt>
<totfact> 0.63239349E+04</totfact>
</mgrwt>
</event>
<event>
 7    0  0.4748297E-002  0.4230324E+03  0.7546771E-02  0.1036084E+00
         21   -1    0    0  502  501  0.00000000000E+00  0.00000000000E+00  0.12108714494E+03  0.12108714494E+03  0.00000000000E+00 0.  1.
         21   -1    0    0  501  502 -0.00000000000E+00 -0.00000000000E+00 -0.36947861189E+03  0.36947861189E+03  0.00000000000E+00 0.  1.
      99926    2    1    2    0    0  0.00000000000E+00  0.35527136788E-14 -0.24839146695E+03  0.49056575683E+03  0.42303243483E+03 0.  0.
      99925    2    3    3    0    0  0.55127320422E+02  0.25527609612E+02 -0.10168936586E+03  0.28842794524E+03  0.26298150535E+03 0.  0.
         25    1    3    3    0    0 -0.55127320422E+02 -0.25527609612E+02 -0.14670210109E+03  0.20213781159E+03  0.12509000000E+03 0.  0.
         25    1    4    4    0    0  0.28658032708E+02 -0.17538440071E+02 -0.20979239105E+02  0.13121172315E+03  0.12509000000E+03 0.  0.
         25    1    4    4    0    0  0.26469287714E+02  0.43066049683E+02 -0.80710126752E+02  0.15721622209E+03  0.12509000000E+03 0.  0.
<mgrwt>
<rscale>  2 0.42303243E+03</rscale>
<asrwt>0</asrwt>
<pdfrwt beam="1">  1       21 0.17806933E-01 0.42303243E+03</pdfrwt>
<pdfrwt beam="2">  1       21 0.54335089E-01 0.42303243E+03</pdfrwt>
<totfact> 0.85697440E+04</totfact>
</mgrwt>
</event>
<event>
 7    0  0.4748297E-002  0.4444044E+03  0.7546771E-02  0.1029404E+00
         21   -1    0    0  502  501  0.00000000000E+00  0.00000000000E+00  0.89428008811E+02  0.89428008811E+02  0.00000000000E+00 0. -1.
         21   -1    0    0  501  502 -0.00000000000E+00 -0.00000000000E+00 -0.55210692355E+03  0.55210692355E+03  0.00000000000E+00 0. -1.
      99926    2    1    2    0    0  0.71054273576E-14 -0.14210854715E-13 -0.46267891474E+03  0.64153493237E+03  0.44440442313E+03 0.  0.
      99925    2    3    3    0    0  0.46335386054E+02 -0.64849164191E+02 -0.38800981108E+03  0.47547661358E+03  0.26300953303E+03 0.  0.
         25    1    3    3    0    0 -0.46335386054E+02  0.64849164191E+02 -0.74669103658E+02  0.16605831879E+03  0.12509000000E+03 0.  0.
         25    1    4    4    0    0  0.46961749900E+02 -0.28098768457E+01 -0.16463127625E+03  0.21204779315E+03  0.12509000000E+03 0.  0.
         25    1    4    4    0    0 -0.62636384680E+00 -0.62039287345E+02 -0.22337853484E+03  0.26342882043E+03  0.12509000000E+03 0.  0.
<mgrwt>
<rscale>  2 0.44440442E+03</rscale>
<asrwt>0</asrwt>
<pdfrwt beam="1">  1       21 0.13151177E-01 0.44440442E+03</pdfrwt>
<pdfrwt beam="2">  1       21 0.81192198E-01 0.44440442E+03</pdfrwt>
<totfact> 0.61145726E+04</totfact>
</mgrwt>
</event>
<event>
 7    0  0.4748297E-002  0.4541515E+03  0.7546771E-02  0.1026491E+00
         21   -1    0    0  502  501  0.00000000000E+00  0.00000000000E+00  0.43949887650E+03  0.43949887650E+03  0.00000000000E+00 0.  1.
         21   -1    0    0  501  502 -0.00000000000E+00 -0.00000000000E+00 -0.11732316195E+03  0.11732316195E+03  0.00000000000E+00 0.  1.
      99926    2    1    2    0    0  0.00000000000E+00  0.00000000000E+00  0.32217571455E+03  0.55682203845E+03  0.45415150716E+03 0.  0.
      99925    2    3    3    0    0  0.10703739686E+02  0.76517402952E+02  0.10273526327E+03  0.29267983668E+03  0.26294004921E+03 0.  0.
         25    1    4    4    0    0 -0.18556345105E+00  0.64751970326E+02  0.21041433040E+02  0.14241875614E+03  0.12509000000E+03 0.  0.
         25    1    4    4    0    0  0.10889303137E+02  0.11765432626E+02  0.81693830228E+02  0.15026108054E+03  0.12509000000E+03 0.  0.
         25    1    3    3    0    0 -0.10703739686E+02 -0.76517402952E+02  0.21944045128E+03  0.26414220177E+03  0.12509000000E+03 0.  0.
<mgrwt>
<rscale>  2 0.45415151E+03</rscale>
<asrwt>0</asrwt>
<pdfrwt beam="1">  1       21 0.64632187E-01 0.45415151E+03</pdfrwt>
<pdfrwt beam="2">  1       21 0.17253406E-01 0.45415151E+03</pdfrwt>
<totfact> 0.61831918E+04</totfact>
</mgrwt>
</event>
<event>
 7    0  0.4748297E-002  0.4662735E+03  0.7546771E-02  0.1022977E+00
         21   -1    0    0  502  501  0.00000000000E+00  0.00000000000E+00  0.42032094788E+03  0.42032094788E+03  0.00000000000E+00 0. -1.
         21   -1    0    0  501  502 -0.00000000000E+00 -0.00000000000E+00 -0.12931247626E+03  0.12931247626E+03  0.00000000000E+00 0. -1.
      99926    2    1    2    0    0  0.00000000000E+00 -0.14210854715E-13  0.29100847161E+03  0.54963342414E+03  0.46627349312E+03 0.  0.
      99925    2    3    3    0    0 -0.92251984223E+02  0.70008942726E+02  0.23223488680E+03  0.36931835814E+03  0.26277619062E+03 0.  0.
         25    1    4    4    0    0 -0.63568121399E+02  0.13038712419E+02  0.79296133254E+02  0.16169817231E+03  0.12509000000E+03 0.  0.
         25    1    3    3    0    0  0.92251984223E+02 -0.70008942726E+02  0.58773584812E+02  0.18031506600E+03  0.12509000000E+03 0.  0.
         25    1    4    4    0    0 -0.28683862824E+02  0.56970230307E+02  0.15293875355E+03  0.20762018583E+03  0.12509000000E+03 0.  0.
<mgrwt>
<rscale>  2 0.46627349E+03</rscale>
<asrwt>0</asrwt>
<pdfrwt beam="1">  1       21 0.61811904E-01 0.46627349E+03</pdfrwt>
<pdfrwt beam="2">  1       21 0.19016541E-01 0.46627349E+03</pdfrwt>
<totfact> 0.56663357E+04</totfact>
</mgrwt>
</event>
<event>
 7    0  0.4748297E-002  0.4656422E+03  0.7546771E-02  0.1023157E+00
         21   -1    0    0  502  501  0.00000000000E+00  0.00000000000E+00  0.62259496048E+03  0.62259496048E+03  0.00000000000E+00 0. -1.
         21   -1    0    0  501  502 -0.00000000000E+00 -0.00000000000E+00 -0.87064101303E+02  0.87064101303E+02  0.00000000000E+00 0. -1.
      99926    2    1    2    0    0  0.22204460493E-14  0.00000000000E+00  0.53553085918E+03  0.70965906178E+03  0.46564222622E+03 0.  0.
      99925    2    3    3    0    0  0.32438633119E+01  0.81748011528E+02  0.19416965333E+03  0.33700876862E+03  0.26302052356E+03 0.  0.
         25    1    3    3    0    0 -0.32438633119E+01 -0.81748011528E+02  0.34136120585E+03  0.37265029316E+03  0.12509000000E+03 0.  0.
         25    1    4    4    0    0 -0.33196214627E+02  0.48186230312E+02  0.12232470299E+03  0.18448507397E+03  0.12509000000E+03 0.  0.
         25    1    4    4    0    0  0.36440077939E+02  0.33561781216E+02  0.71844950338E+02  0.15252369464E+03  0.12509000000E+03 0.  0.
<mgrwt>
<rscale>  2 0.46564223E+03</rscale>
<asrwt>0</asrwt>
<pdfrwt beam="1">  1       21 0.91558081E-01 0.46564223E+03</pdfrwt>
<pdfrwt beam="2">  1       21 0.12803545E-01 0.46564223E+03</pdfrwt>
<totfact> 0.48215784E+04</totfact>
</mgrwt>
</event>
<event>
 7    0  0.4748297E-002  0.4461034E+03  0.7546771E-02  0.1028890E+00
         21   -1    0    0  502  501  0.00000000000E+00  0.00000000000E+00  0.92492986588E+03  0.92492986588E+03  0.00000000000E+00 0.  1.
         21   -1    0    0  501  502 -0.00000000000E+00 -0.00000000000E+00 -0.53790091480E+02  0.53790091480E+02  0.00000000000E+00 0.  1.
      99926    2    1    2    0    0  0.88817841970E-15  0.00000000000E+00  0.87113977440E+03  0.97871995736E+03  0.44610340549E+03 0.  0.
      99925    2    3    3    0    0  0.24323499743E+01 -0.96695745295E+02  0.46011069937E+03  0.53832423519E+03  0.26217387939E+03 0.  0.
         25    1    4    4    0    0 -0.68211368405E+01 -0.74582402897E+02  0.30152931220E+03  0.33492759956E+03  0.12509000000E+03 0.  0.
         25    1    4    4    0    0  0.92534868149E+01 -0.22113342398E+02  0.15858138717E+03  0.20339663563E+03  0.12509000000E+03 0.  0.
         25    1    3    3    0    0 -0.24323499743E+01  0.96695745295E+02  0.41102907503E+03  0.44039572217E+03  0.12509000000E+03 0.  0.
<mgrwt>
<rscale>  2 0.44610341E+03</rscale>
<asrwt>0</asrwt>
<pdfrwt beam="1">  1       21 0.13601909E+00 0.44610341E+03</pdfrwt>
<pdfrwt beam="2">  1       21 0.79103081E-02 0.44610341E+03</pdfrwt>
<totfact> 0.42906178E+04</totfact>
</mgrwt>
</event>
<event>
 7    0  0.4748297E-002  0.4536282E+03  0.7546771E-02  0.1026646E+00
         21   -1    0    0  502  501  0.00000000000E+00  0.00000000000E+00  0.10606797518E+03  0.10606797518E+03  0.00000000000E+00 0.  1.
         21   -1    0    0  501  502 -0.00000000000E+00 -0.00000000000E+00 -0.48501573234E+03  0.48501573234E+03  0.00000000000E+00 0.  1.
      99926    2    1    2    0    0  0.00000000000E+00 -0.71054273576E-14 -0.37894775716E+03  0.59108370752E+03  0.45362820309E+03 0.  0.
      99925    2    3    3    0    0  0.10799924730E+03  0.27517267747E+02 -0.22682785297E+03  0.36478962719E+03  0.26305809203E+03 0.  0.
         25    1    4    4    0    0  0.78062657111E+02  0.11478550228E+02 -0.16370466480E+03  0.22061790709E+03  0.12509000000E+03 0.  0.
         25    1    3    3    0    0 -0.10799924730E+03 -0.27517267747E+02 -0.15211990419E+03  0.22629408033E+03  0.12509000000E+03 0.  0.
         25    1    4    4    0    0  0.29936590192E+02  0.16038717519E+02 -0.63123188161E+02  0.14417172010E+03  0.12509000000E+03 0.  0.
<mgrwt>
<rscale>  2 0.45362820E+03</rscale>
<asrwt>0</asrwt>
<pdfrwt beam="1">  1       21 0.15598232E-01 0.45362820E+03</pdfrwt>
<pdfrwt beam="2">  1       21 0.71325843E-01 0.45362820E+03</pdfrwt>
<totfact> 0.59876999E+04</totfact>
</mgrwt>
</event>
<event>
 7    0  0.4748297E-002  0.4568496E+03  0.7546771E-02  0.1025699E+00
         21   -1    0    0  502  501  0.00000000000E+00  0.00000000000E+00  0.70534301645E+02  0.70534301645E+02  0.00000000000E+00 0. -1.
         21   -1    0    0  501  502 -0.00000000000E+00 -0.00000000000E+00 -0.73975185660E+03  0.73975185660E+03  0.00000000000E+00 0. -1.
      99926    2    1    2    0    0 -0.71054273576E-14  0.71054273576E-14 -0.66921755496E+03  0.81028615825E+03  0.45684956209E+03 0.  0.
      99925    2    3    3    0    0 -0.48272402549E+02  0.36106371228E+02 -0.24677753021E+03  0.36560989679E+03  0.26294020675E+03 0.  0.
         25    1    4    4    0    0 -0.60028309663E+02  0.27388590959E+01 -0.11174542784E+03  0.17817252328E+03  0.12509000000E+03 0.  0.
         25    1    4    4    0    0  0.11755907115E+02  0.33367512132E+02 -0.13503210237E+03  0.18743737351E+03  0.12509000000E+03 0.  0.
         25    1    3    3    0    0  0.48272402549E+02 -0.36106371228E+02 -0.42244002475E+03  0.44467626145E+03  0.12509000000E+03 0.  0.
<mgrwt>
<rscale>  2 0.45684956E+03</rscale>
<asrwt>0</asrwt>
<pdfrwt beam="1">  1       21 0.10372692E-01 0.45684956E+03</pdfrwt>
<pdfrwt beam="2">  1       21 0.10878703E+00 0.45684956E+03</pdfrwt>
<totfact> 0.46591391E+04</totfact>
</mgrwt>
</event>
<event>
 7    0  0.4748297E-002  0.4584067E+03  0.7546771E-02  0.1025244E+00
         21   -1    0    0  502  501  0.00000000000E+00  0.00000000000E+00  0.71586386236E+02  0.71586386236E+02  0.00000000000E+00 0. -1.
         21   -1    0    0  501  502 -0.00000000000E+00 -0.00000000000E+00 -0.73385721717E+03  0.73385721717E+03  0.00000000000E+00 0. -1.
      99926    2    1    2    0    0  0.00000000000E+00  0.00000000000E+00 -0.66227083093E+03  0.80544360341E+03  0.45840674598E+03 0.  0.
      99925    2    3    3    0    0 -0.10829934496E+03 -0.16204035504E+02 -0.34628458887E+03  0.44839160137E+03  0.26296519314E+03 0.  0.
         25    1    4    4    0    0 -0.87376931218E+02 -0.35190419558E+02 -0.18754541366E+03  0.24432331862E+03  0.12509000000E+03 0.  0.
         25    1    3    3    0    0  0.10829934496E+03  0.16204035504E+02 -0.31598624207E+03  0.35705200204E+03  0.12509000000E+03 0.  0.
         25    1    4    4    0    0 -0.20922413743E+02  0.18986384053E+02 -0.15873917521E+03  0.20406828275E+03  0.12509000000E+03 0.  0.
<mgrwt>
<rscale>  2 0.45840675E+03</rscale>
<asrwt>0</asrwt>
<pdfrwt beam="1">  1       21 0.10527409E-01 0.45840675E+03</pdfrwt>
<pdfrwt beam="2">  1       21 0.10792018E+00 0.45840675E+03</pdfrwt>
<totfact> 0.46253618E+04</totfact>
</mgrwt>
</event>
<event>
 7    0  0.4748297E-002  0.4550035E+03  0.7546771E-02  0.1026240E+00
         21   -1    0    0  502  501  0.00000000000E+00  0.00000000000E+00  0.68297996933E+03  0.68297996933E+03  0.00000000000E+00 0. -1.
         21   -1    0    0  501  502 -0.00000000000E+00 -0.00000000000E+00 -0.75781194095E+02  0.75781194095E+02  0.00000000000E+00 0. -1.
      99926    2    1    2    0    0  0.14210854715E-13  0.00000000000E+00  0.60719877524E+03  0.75876116343E+03  0.45500346205E+03 0.  0.
      99925    2    3    3    0    0 -0.10298661297E+03  0.22328367787E+02  0.45098304669E+03  0.53258499226E+03  0.26297579188E+03 0.  0.
         25    1    4    4    0    0 -0.29833187993E+02 -0.81215466965E+01  0.15449552472E+03  0.20117741892E+03  0.12509000000E+03 0.  0.
         25    1    4    4    0    0 -0.73153424979E+02  0.30449914484E+02  0.29648752198E+03  0.33140757334E+03  0.12509000000E+03 0.  0.
         25    1    3    3    0    0  0.10298661297E+03 -0.22328367787E+02  0.15621572854E+03  0.22617617117E+03  0.12509000000E+03 0.  0.
<mgrwt>
<rscale>  2 0.45500346E+03</rscale>
<asrwt>0</asrwt>
<pdfrwt beam="1">  1       21 0.10043823E+00 0.45500346E+03</pdfrwt>
<pdfrwt beam="2">  1       21 0.11144294E-01 0.45500346E+03</pdfrwt>
<totfact> 0.49822270E+04</totfact>
</mgrwt>
</event>
<event>
 7    0  0.4748297E-002  0.4481594E+03  0.7546771E-02  0.1028272E+00
         21   -1    0    0  502  501  0.00000000000E+00  0.00000000000E+00  0.23593467880E+03  0.23593467880E+03  0.00000000000E+00 0.  1.
         21   -1    0    0  501  502 -0.00000000000E+00 -0.00000000000E+00 -0.21282040198E+03  0.21282040198E+03  0.00000000000E+00 0.  1.
      99926    2    1    2    0    0  0.00000000000E+00  0.00000000000E+00  0.23114276822E+02  0.44875508078E+03  0.44815940550E+03 0.  0.
      99925    2    3    3    0    0 -0.96766920590E+02  0.44495225573E+02  0.13961500796E+02  0.28421042597E+03  0.26312920914E+03 0.  0.
         25    1    3    3    0    0  0.96766920590E+02 -0.44495225573E+02  0.91527760253E+01  0.16454465482E+03  0.12509000000E+03 0.  0.
         25    1    4    4    0    0 -0.85742433586E+02  0.34202269755E+02  0.26066892041E+02  0.15763423211E+03  0.12509000000E+03 0.  0.
         25    1    4    4    0    0 -0.11024487004E+02  0.10292955818E+02 -0.12105391245E+02  0.12657619385E+03  0.12509000000E+03 0.  0.
<mgrwt>
<rscale>  2 0.44815941E+03</rscale>
<asrwt>0</asrwt>
<pdfrwt beam="1">  1       21 0.34696276E-01 0.44815941E+03</pdfrwt>
<pdfrwt beam="2">  1       21 0.31297118E-01 0.44815941E+03</pdfrwt>
<totfact> 0.72904370E+04</totfact>
</mgrwt>
</event>
<event>
 7    0  0.4748297E-002  0.4573164E+03  0.7546771E-02  0.1025562E+00
         21   -1    0    0  502  501  0.00000000000E+00  0.00000000000E+00  0.90114088229E+02  0.90114088229E+02  0.00000000000E+00 0.  1.
         21   -1    0    0  501  502 -0.00000000000E+00 -0.00000000000E+00 -0.58020421487E+03  0.58020421487E+03  0.00000000000E+00 0.  1.
      99926    2    1    2    0    0  0.71054273576E-14  0.00000000000E+00 -0.49009012664E+03  0.67031830310E+03  0.45731640605E+03 0.  0.
      99925    2    3    3    0    0  0.45840029705E+02  0.35462637225E+02 -0.16150841535E+03  0.31398649698E+03  0.26295179233E+03 0.  0.
         25    1    3    3    0    0 -0.45840029705E+02 -0.35462637225E+02 -0.32858171129E+03  0.35633180612E+03  0.12509000000E+03 0.  0.
         25    1    4    4    0    0 -0.12328276505E+02 -0.30383593605E+01 -0.82971872850E+02  0.15064215152E+03  0.12509000000E+03 0.  0.
         25    1    4    4    0    0  0.58168306209E+02  0.38500996586E+02 -0.78536542504E+02  0.16334434546E+03  0.12509000000E+03 0.  0.
<mgrwt>
<rscale>  2 0.45731641E+03</rscale>
<asrwt>0</asrwt>
<pdfrwt beam="1">  1       21 0.13252072E-01 0.45731641E+03</pdfrwt>
<pdfrwt beam="2">  1       21 0.85324145E-01 0.45731641E+03</pdfrwt>
<totfact> 0.53559648E+04</totfact>
</mgrwt>
</event>
<event>
 7    0  0.4748297E-002  0.4545593E+03  0.7546771E-02  0.1026371E+00
         21   -1    0    0  502  501  0.00000000000E+00  0.00000000000E+00  0.41932691807E+03  0.41932691807E+03  0.00000000000E+00 0. -1.
         21   -1    0    0  501  502 -0.00000000000E+00 -0.00000000000E+00 -0.12318796190E+03  0.12318796190E+03  0.00000000000E+00 0. -1.
      99926    2    1    2    0    0  0.00000000000E+00  0.00000000000E+00  0.29613895618E+03  0.54251487997E+03  0.45455925206E+03 0.  0.
      99925    2    3    3    0    0  0.85190809247E+02 -0.35764520231E+02  0.26381863027E+03  0.38367947317E+03  0.26281760513E+03 0.  0.
         25    1    3    3    0    0 -0.85190809247E+02  0.35764520231E+02  0.32320325906E+02  0.15883540680E+03  0.12509000000E+03 0.  0.
         25    1    4    4    0    0  0.44822920582E+02 -0.37715645092E+01  0.18270026255E+03  0.22594294179E+03  0.12509000000E+03 0.  0.
         25    1    4    4    0    0  0.40367888665E+02 -0.31992955722E+02  0.81118367716E+02  0.15773653138E+03  0.12509000000E+03 0.  0.
<mgrwt>
<rscale>  2 0.45455925E+03</rscale>
<asrwt>0</asrwt>
<pdfrwt beam="1">  1       21 0.61665723E-01 0.45455925E+03</pdfrwt>
<pdfrwt beam="2">  1       21 0.18115877E-01 0.45455925E+03</pdfrwt>
<totfact> 0.62581850E+04</totfact>
</mgrwt>
</event>
<event>
 7    0  0.4748297E-002  0.4547705E+03  0.7546771E-02  0.1026309E+00
         21   -1    0    0  502  501  0.00000000000E+00  0.00000000000E+00  0.78506399268E+03  0.78506399268E+03  0.00000000000E+00 0.  1.
         21   -1    0    0  501  502 -0.00000000000E+00 -0.00000000000E+00 -0.65859660892E+02  0.65859660892E+02  0.00000000000E+00 0.  1.
      99926    2    1    2    0    0 -0.17763568394E-14 -0.71054273576E-14  0.71920433179E+03  0.85092365357E+03  0.45477048425E+03 0.  0.
      99925    2    3    3    0    0  0.14313166674E+02 -0.48103195879E+02  0.64206530266E+03  0.69562805766E+03  0.26292918730E+03 0.  0.
         25    1    3    3    0    0 -0.14313166674E+02  0.48103195879E+02  0.77139029132E+02  0.15529559591E+03  0.12509000000E+03 0.  0.
         25    1    4    4    0    0 -0.54538830660E+01  0.52522920599E+01  0.37319102005E+03  0.39367039127E+03  0.12509000000E+03 0.  0.
         25    1    4    4    0    0  0.19767049740E+02 -0.53355487939E+02  0.26887428260E+03  0.30195766639E+03  0.12509000000E+03 0.  0.
<mgrwt>
<rscale>  2 0.45477048E+03</rscale>
<asrwt>0</asrwt>
<pdfrwt beam="1">  1       21 0.11545058E+00 0.45477048E+03</pdfrwt>
<pdfrwt beam="2">  1       21 0.96852447E-02 0.45477048E+03</pdfrwt>
<totfact> 0.45479915E+04</totfact>
</mgrwt>
</event>
<event>
 7    0  0.4748297E-002  0.4605030E+03  0.7546771E-02  0.1024635E+00
         21   -1    0    0  502  501  0.00000000000E+00  0.00000000000E+00  0.17968746125E+02  0.17968746125E+02  0.00000000000E+00 0.  1.
         21   -1    0    0  501  502 -0.00000000000E+00 -0.00000000000E+00 -0.29504427822E+04  0.29504427822E+04  0.00000000000E+00 0.  1.
      99926    2    1    2    0    0  0.00000000000E+00  0.00000000000E+00 -0.29324740361E+04  0.29684115283E+04  0.46050301762E+03 0.  0.
      99925    2    3    3    0    0  0.88033586531E+02 -0.27718906989E+02 -0.23126422883E+04  0.23293832396E+04  0.26304690276E+03 0.  0.
         25    1    4    4    0    0  0.55862638165E+02  0.45362645308E+00 -0.14781099103E+04  0.14844451001E+04  0.12509000000E+03 0.  0.
         25    1    3    3    0    0 -0.88033586531E+02  0.27718906989E+02 -0.61983174773E+03  0.63902828869E+03  0.12509000000E+03 0.  0.
         25    1    4    4    0    0  0.32170948365E+02 -0.28172533443E+02 -0.83453237805E+03  0.84493813956E+03  0.12509000000E+03 0.  0.
<mgrwt>
<rscale>  2 0.46050302E+03</rscale>
<asrwt>0</asrwt>
<pdfrwt beam="1">  1       21 0.26424608E-02 0.46050302E+03</pdfrwt>
<pdfrwt beam="2">  1       21 0.43388894E+00 0.46050302E+03</pdfrwt>
<totfact> 0.32842256E+03</totfact>
</mgrwt>
</event>
<event>
 7    0  0.4748297E-002  0.4242858E+03  0.7546771E-02  0.1035680E+00
         21   -1    0    0  502  501  0.00000000000E+00  0.00000000000E+00  0.18566323432E+04  0.18566323432E+04  0.00000000000E+00 0.  1.
         21   -1    0    0  501  502 -0.00000000000E+00 -0.00000000000E+00 -0.24239912269E+02  0.24239912269E+02  0.00000000000E+00 0.  1.
      99926    2    1    2    0    0  0.00000000000E+00  0.00000000000E+00  0.18323924309E+04  0.18808722555E+04  0.42428577688E+03 0.  0.
      99925    2    3    3    0    0  0.44129038463E+02 -0.31811766801E+02  0.92236419906E+03  0.96067757420E+03  0.26303293579E+03 0.  0.
         25    1    3    3    0    0 -0.44129038463E+02  0.31811766801E+02  0.91002823188E+03  0.92019468128E+03  0.12509000000E+03 0.  0.
         25    1    4    4    0    0  0.27459984342E+02 -0.17577486172E+02  0.60878842153E+03  0.62236152601E+03  0.12509000000E+03 0.  0.
         25    1    4    4    0    0  0.16669054121E+02 -0.14234280629E+02  0.31357577753E+03  0.33831604819E+03  0.12509000000E+03 0.  0.
<mgrwt>
<rscale>  2 0.42428578E+03</rscale>
<asrwt>0</asrwt>
<pdfrwt beam="1">  1       21 0.27303407E+00 0.42428578E+03</pdfrwt>
<pdfrwt beam="2">  1       21 0.35646942E-02 0.42428578E+03</pdfrwt>
<totfact> 0.20145047E+04</totfact>
</mgrwt>
</event>
<event>
 7    0  0.4748297E-002  0.4476553E+03  0.7546771E-02  0.1028424E+00
         21   -1    0    0  502  501  0.00000000000E+00  0.00000000000E+00  0.22347710519E+03  0.22347710519E+03  0.00000000000E+00 0.  1.
         21   -1    0    0  501  502 -0.00000000000E+00 -0.00000000000E+00 -0.22417878175E+03  0.22417878175E+03  0.00000000000E+00 0.  1.
      99926    2    1    2    0    0  0.00000000000E+00  0.00000000000E+00 -0.70167656341E+00  0.44765588694E+03  0.44765533702E+03 0.  0.
      99925    2    3    3    0    0 -0.74488687042E+02  0.59602770015E+02  0.46079187930E+02  0.28353089776E+03  0.26299320092E+03 0.  0.
         25    1    4    4    0    0 -0.37294862920E+02  0.71160687926E+02  0.27874839715E+02  0.15125893394E+03  0.12509000000E+03 0.  0.
         25    1    3    3    0    0  0.74488687042E+02 -0.59602770015E+02 -0.46780864493E+02  0.16412498918E+03  0.12509000000E+03 0.  0.
         25    1    4    4    0    0 -0.37193824122E+02 -0.11557917911E+02  0.18204348214E+02  0.13227196382E+03  0.12509000000E+03 0.  0.
<mgrwt>
<rscale>  2 0.44765534E+03</rscale>
<asrwt>0</asrwt>
<pdfrwt beam="1">  1       21 0.32864280E-01 0.44765534E+03</pdfrwt>
<pdfrwt beam="2">  1       21 0.32967468E-01 0.44765534E+03</pdfrwt>
<totfact> 0.73288880E+04</totfact>
</mgrwt>
</event>
<event>
 7    0  0.4748297E-002  0.4551630E+03  0.7546771E-02  0.1026193E+00
         21   -1    0    0  502  501  0.00000000000E+00  0.00000000000E+00  0.12302581831E+03  0.12302581831E+03  0.00000000000E+00 0.  1.
         21   -1    0    0  501  502 -0.00000000000E+00 -0.00000000000E+00 -0.42099562946E+03  0.42099562946E+03  0.00000000000E+00 0.  1.
      99926    2    1    2    0    0  0.44408920985E-15 -0.71054273576E-14 -0.29796981115E+03  0.54402144777E+03  0.45516296782E+03 0.  0.
      99925    2    3    3    0    0  0.12120770342E+01 -0.61658304885E+02 -0.30114573896E+03  0.40451943950E+03  0.26295247698E+03 0.  0.
         25    1    4    4    0    0  0.20594329209E+02 -0.55778246411E+02 -0.19520762700E+03  0.23935092419E+03  0.12509000000E+03 0.  0.
         25    1    3    3    0    0 -0.12120770342E+01  0.61658304885E+02  0.31759278164E+01  0.13950200826E+03  0.12509000000E+03 0.  0.
         25    1    4    4    0    0 -0.19382252175E+02 -0.58800584731E+01 -0.10593811196E+03  0.16516851532E+03  0.12509000000E+03 0.  0.
<mgrwt>
<rscale>  2 0.45516297E+03</rscale>
<asrwt>0</asrwt>
<pdfrwt beam="1">  1       21 0.18092032E-01 0.45516297E+03</pdfrwt>
<pdfrwt beam="2">  1       21 0.61911121E-01 0.45516297E+03</pdfrwt>
<totfact> 0.62183088E+04</totfact>
</mgrwt>
</event>
<event>
 7    0  0.4748297E-002  0.4389390E+03  0.7546771E-02  0.1031073E+00
         21   -1    0    0  502  501  0.00000000000E+00  0.00000000000E+00  0.31127007684E+04  0.31127007684E+04  0.00000000000E+00 0. -1.
         21   -1    0    0  501  502 -0.00000000000E+00 -0.00000000000E+00 -0.15474300696E+02  0.15474300696E+02  0.00000000000E+00 0. -1.
      99926    2    1    2    0    0  0.00000000000E+00 -0.35527136788E-14  0.30972264677E+04  0.31281750691E+04  0.43893902842E+03 0.  0.
      99925    2    3    3    0    0  0.95684487700E+02 -0.17002256621E+02  0.20041589146E+04  0.20236893147E+04  0.26309863083E+03 0.  0.
         25    1    4    4    0    0  0.20127987440E+02 -0.25502696302E+02  0.75490564293E+03  0.76588873945E+03  0.12509000000E+03 0.  0.
         25    1    4    4    0    0  0.75556500260E+02  0.85004396812E+01  0.12492532717E+04  0.12578005753E+04  0.12509000000E+03 0.  0.
         25    1    3    3    0    0 -0.95684487700E+02  0.17002256621E+02  0.10930675531E+04  0.11044857543E+04  0.12509000000E+03 0.  0.
<mgrwt>
<rscale>  2 0.43893903E+03</rscale>
<asrwt>0</asrwt>
<pdfrwt beam="1">  1       21 0.45774968E+00 0.43893903E+03</pdfrwt>
<pdfrwt beam="2">  1       21 0.22756346E-02 0.43893903E+03</pdfrwt>
<totfact> 0.29461549E+03</totfact>
</mgrwt>
</event>
<event>
 7    0  0.4748297E-002  0.4236688E+03  0.7546771E-02  0.1035879E+00
         21   -1    0    0  502  501  0.00000000000E+00  0.00000000000E+00  0.75179413606E+03  0.75179413606E+03  0.00000000000E+00 0. -1.
         21   -1    0    0  501  502 -0.00000000000E+00 -0.00000000000E+00 -0.59688975197E+02  0.59688975197E+02  0.00000000000E+00 0. -1.
      99926    2    1    2    0    0  0.71054273576E-14  0.71054273576E-14  0.69210516086E+03  0.81148311125E+03  0.42366884020E+03 0.  0.
      99925    2    3    3    0    0  0.35385629611E+02 -0.53844263848E+02  0.35890215826E+03  0.44978835518E+03  0.26333905467E+03 0.  0.
         25    1    3    3    0    0 -0.35385629611E+02  0.53844263848E+02  0.33320300260E+03  0.36169475608E+03  0.12509000000E+03 0.  0.
         25    1    4    4    0    0  0.53013967284E+02 -0.49503471447E+02  0.19782568435E+03  0.24503792340E+03  0.12509000000E+03 0.  0.
         25    1    4    4    0    0 -0.17628337673E+02 -0.43407924010E+01  0.16107647391E+03  0.20475043178E+03  0.12509000000E+03 0.  0.
<mgrwt>
<rscale>  2 0.42366884E+03</rscale>
<asrwt>0</asrwt>
<pdfrwt beam="1">  1       21 0.11055796E+00 0.42366884E+03</pdfrwt>
<pdfrwt beam="2">  1       21 0.87777909E-02 0.42366884E+03</pdfrwt>
<totfact> 0.60851424E+04</totfact>
</mgrwt>
</event>
<event>
 7    0  0.4748297E-002  0.4287375E+03  0.7546771E-02  0.1034260E+00
         21   -1    0    0  502  501  0.00000000000E+00  0.00000000000E+00  0.46576506672E+03  0.46576506672E+03  0.00000000000E+00 0. -1.
         21   -1    0    0  501  502 -0.00000000000E+00 -0.00000000000E+00 -0.98663372235E+02  0.98663372235E+02  0.00000000000E+00 0. -1.
      99926    2    1    2    0    0 -0.14210854715E-13  0.71054273576E-14  0.36710169449E+03  0.56442843896E+03  0.42873745883E+03 0.  0.
      99925    2    3    3    0    0  0.77980821878E+02  0.34660662243E+02  0.22033719622E+03  0.35355004713E+03  0.26299579027E+03 0.  0.
         25    1    4    4    0    0  0.36979792814E+02 -0.17079915931E+02  0.13429100078E+03  0.18799151469E+03  0.12509000000E+03 0.  0.
         25    1    4    4    0    0  0.41001029064E+02  0.51740578174E+02  0.86046195441E+02  0.16555853244E+03  0.12509000000E+03 0.  0.
         25    1    3    3    0    0 -0.77980821878E+02 -0.34660662243E+02  0.14676449826E+03  0.21087839182E+03  0.12509000000E+03 0.  0.
<mgrwt>
<rscale>  2 0.42873746E+03</rscale>
<asrwt>0</asrwt>
<pdfrwt beam="1">  1       21 0.68494862E-01 0.42873746E+03</pdfrwt>
<pdfrwt beam="2">  1       21 0.14509320E-01 0.42873746E+03</pdfrwt>
<totfact> 0.75406411E+04</totfact>
</mgrwt>
</event>
<event>
 7    0  0.4748297E-002  0.4567539E+03  0.7546771E-02  0.1025727E+00
         21   -1    0    0  502  501  0.00000000000E+00  0.00000000000E+00  0.34301846728E+03  0.34301846728E+03  0.00000000000E+00 0. -1.
         21   -1    0    0  501  502 -0.00000000000E+00 -0.00000000000E+00 -0.15205022952E+03  0.15205022952E+03  0.00000000000E+00 0. -1.
      99926    2    1    2    0    0 -0.35527136788E-14 -0.71054273576E-14  0.19096823777E+03  0.49506869680E+03  0.45675392359E+03 0.  0.
      99925    2    3    3    0    0  0.27926716169E+02  0.39179606368E+02  0.23298752883E+03  0.35461204174E+03  0.26296685822E+03 0.  0.
         25    1    4    4    0    0  0.86504184329E+01 -0.16302457627E+02  0.86337115120E+02  0.15310847596E+03  0.12509000000E+03 0.  0.
         25    1    4    4    0    0  0.19276297737E+02  0.55482063995E+02  0.14665041371E+03  0.20150356578E+03  0.12509000000E+03 0.  0.
         25    1    3    3    0    0 -0.27926716169E+02 -0.39179606368E+02 -0.42019291059E+02  0.14045665507E+03  0.12509000000E+03 0.  0.
<mgrwt>
<rscale>  2 0.45675392E+03</rscale>
<asrwt>0</asrwt>
<pdfrwt beam="1">  1       21 0.50443892E-01 0.45675392E+03</pdfrwt>
<pdfrwt beam="2">  1       21 0.22360328E-01 0.45675392E+03</pdfrwt>
<totfact> 0.64712758E+04</totfact>
</mgrwt>
</event>
<event>
 7    0  0.4748297E-002  0.4519636E+03  0.7546771E-02  0.1027138E+00
         21   -1    0    0  502  501  0.00000000000E+00  0.00000000000E+00  0.10883149155E+03  0.10883149155E+03  0.00000000000E+00 0. -1.
         21   -1    0    0  501  502 -0.00000000000E+00 -0.00000000000E+00 -0.46923709033E+03  0.46923709033E+03  0.00000000000E+00 0. -1.
      99926    2    1    2    0    0  0.00000000000E+00  0.00000000000E+00 -0.36040559878E+03  0.57806858188E+03  0.45196359336E+03 0.  0.
      99925    2    3    3    0    0  0.90683184254E+02  0.50414193206E+02 -0.18254486368E+03  0.33713917319E+03  0.26377104477E+03 0.  0.
         25    1    4    4    0    0  0.56225669413E+01  0.17929505954E+02 -0.10325687016E+03  0.16328677159E+03  0.12509000000E+03 0.  0.
         25    1    4    4    0    0  0.85060617312E+02  0.32484687252E+02 -0.79287993527E+02  0.17385240160E+03  0.12509000000E+03 0.  0.
         25    1    3    3    0    0 -0.90683184254E+02 -0.50414193206E+02 -0.17786073510E+03  0.24092940869E+03  0.12509000000E+03 0.  0.
<mgrwt>
<rscale>  2 0.45196359E+03</rscale>
<asrwt>0</asrwt>
<pdfrwt beam="1">  1       21 0.16004631E-01 0.45196359E+03</pdfrwt>
<pdfrwt beam="2">  1       21 0.69005456E-01 0.45196359E+03</pdfrwt>
<totfact> 0.61512343E+04</totfact>
</mgrwt>
</event>
<event>
 7    0  0.4748297E-002  0.4513601E+03  0.7546771E-02  0.1027317E+00
         21   -1    0    0  502  501  0.00000000000E+00  0.00000000000E+00  0.76835537012E+03  0.76835537012E+03  0.00000000000E+00 0. -1.
         21   -1    0    0  501  502 -0.00000000000E+00 -0.00000000000E+00 -0.66286367883E+02  0.66286367883E+02  0.00000000000E+00 0. -1.
      99926    2    1    2    0    0 -0.35527136788E-14  0.00000000000E+00  0.70206900223E+03  0.83464173800E+03  0.45136010780E+03 0.  0.
      99925    2    3    3    0    0 -0.23106494663E+02  0.66246680536E+02  0.28735912386E+03  0.39583161494E+03  0.26303016660E+03 0.  0.
         25    1    3    3    0    0  0.23106494663E+02 -0.66246680536E+02  0.41470987838E+03  0.43881012306E+03  0.12509000000E+03 0.  0.
         25    1    4    4    0    0 -0.37547065261E+02  0.49232340985E+02  0.11029752717E+03  0.17789507612E+03  0.12509000000E+03 0.  0.
         25    1    4    4    0    0  0.14440570599E+02  0.17014339551E+02  0.17706159669E+03  0.21793653882E+03  0.12509000000E+03 0.  0.
<mgrwt>
<rscale>  2 0.45136011E+03</rscale>
<asrwt>0</asrwt>
<pdfrwt beam="1">  1       21 0.11299343E+00 0.45136011E+03</pdfrwt>
<pdfrwt beam="2">  1       21 0.97479957E-02 0.45136011E+03</pdfrwt>
<totfact> 0.47475758E+04</totfact>
</mgrwt>
</event>
<event>
 7    0  0.4748297E-002  0.4598033E+03  0.7546771E-02  0.1024838E+00
         21   -1    0    0  502  501  0.00000000000E+00  0.00000000000E+00  0.10346297363E+04  0.10346297363E+04  0.00000000000E+00 0. -1.
         21   -1    0    0  501  502 -0.00000000000E+00 -0.00000000000E+00 -0.51085689666E+02  0.51085689666E+02  0.00000000000E+00 0. -1.
      99926    2    1    2    0    0  0.71054273576E-14  0.00000000000E+00  0.98354404668E+03  0.10857154260E+04  0.45980332157E+03 0.  0.
      99925    2    3    3    0    0  0.62176603284E+02  0.87129674052E+02  0.50151055698E+03  0.57634198404E+03  0.26305842261E+03 0.  0.
         25    1    4    4    0    0  0.77367295114E+00  0.59815908331E+02  0.20374714590E+03  0.24645273182E+03  0.12509000000E+03 0.  0.
         25    1    3    3    0    0 -0.62176603284E+02 -0.87129674052E+02  0.48203348970E+03  0.50937344197E+03  0.12509000000E+03 0.  0.
         25    1    4    4    0    0  0.61402930332E+02  0.27313765722E+02  0.29776341108E+03  0.32988925222E+03  0.12509000000E+03 0.  0.
<mgrwt>
<rscale>  2 0.45980332E+03</rscale>
<asrwt>0</asrwt>
<pdfrwt beam="1">  1       21 0.15215142E+00 0.45980332E+03</pdfrwt>
<pdfrwt beam="2">  1       21 0.75126021E-02 0.45980332E+03</pdfrwt>
<totfact> 0.34675634E+04</totfact>
</mgrwt>
</event>
<event>
 7    0  0.4748297E-002  0.4235455E+03  0.7546771E-02  0.1035919E+00
         21   -1    0    0  502  501  0.00000000000E+00  0.00000000000E+00  0.48519934536E+02  0.48519934536E+02  0.00000000000E+00 0.  1.
         21   -1    0    0  501  502 -0.00000000000E+00 -0.00000000000E+00 -0.92431488437E+03  0.92431488437E+03  0.00000000000E+00 0.  1.
      99926    2    1    2    0    0  0.00000000000E+00  0.00000000000E+00 -0.87579494983E+03  0.97283481891E+03  0.42354550018E+03 0.  0.
      99925    2    3    3    0    0  0.59581597259E+02 -0.53367300953E+02 -0.55339771323E+03  0.61789042635E+03  0.26294774084E+03 0.  0.
         25    1    4    4    0    0  0.43917982720E+02 -0.51340078132E+02 -0.22536194362E+03  0.26645845185E+03  0.12509000000E+03 0.  0.
         25    1    3    3    0    0 -0.59581597259E+02  0.53367300953E+02 -0.32239723660E+03  0.35494439256E+03  0.12509000000E+03 0.  0.
         25    1    4    4    0    0  0.15663614540E+02 -0.20272228214E+01 -0.32803576961E+03  0.35143197450E+03  0.12509000000E+03 0.  0.
<mgrwt>
<rscale>  2 0.42354550E+03</rscale>
<asrwt>0</asrwt>
<pdfrwt beam="1">  1       21 0.71352853E-02 0.42354550E+03</pdfrwt>
<pdfrwt beam="2">  1       21 0.13592864E+00 0.42354550E+03</pdfrwt>
<totfact> 0.51853831E+04</totfact>
</mgrwt>
</event>
<event>
 7    0  0.4748297E-002  0.4611959E+03  0.7546771E-02  0.1024435E+00
         21   -1    0    0  502  501  0.00000000000E+00  0.00000000000E+00  0.11080289423E+03  0.11080289423E+03  0.00000000000E+00 0.  1.
         21   -1    0    0  501  502 -0.00000000000E+00 -0.00000000000E+00 -0.47991006195E+03  0.47991006195E+03  0.00000000000E+00 0.  1.
      99926    2    1    2    0    0  0.00000000000E+00  0.00000000000E+00 -0.36910716772E+03  0.59071295618E+03  0.46119594029E+03 0.  0.
      99925    2    3    3    0    0 -0.21930599347E+02  0.23304787465E+02 -0.84336575121E+02  0.27803762486E+03  0.26299847647E+03 0.  0.
         25    1    3    3    0    0  0.21930599347E+02 -0.23304787465E+02 -0.28477059260E+03  0.31267533132E+03  0.12509000000E+03 0.  0.
         25    1    4    4    0    0 -0.42629382946E+02 -0.13344424026E+02 -0.46663227571E+02  0.14078459735E+03  0.12509000000E+03 0.  0.
         25    1    4    4    0    0  0.20698783599E+02  0.36649211491E+02 -0.37673347550E+02  0.13725302751E+03  0.12509000000E+03 0.  0.
<mgrwt>
<rscale>  2 0.46119594E+03</rscale>
<asrwt>0</asrwt>
<pdfrwt beam="1">  1       21 0.16294543E-01 0.46119594E+03</pdfrwt>
<pdfrwt beam="2">  1       21 0.70575009E-01 0.46119594E+03</pdfrwt>
<totfact> 0.56438585E+04</totfact>
</mgrwt>
</event>
<event>
 7    0  0.4748297E-002  0.4570426E+03  0.7546771E-02  0.1025642E+00
         21   -1    0    0  502  501  0.00000000000E+00  0.00000000000E+00  0.45240448223E+03  0.45240448223E+03  0.00000000000E+00 0.  1.
         21   -1    0    0  501  502 -0.00000000000E+00 -0.00000000000E+00 -0.11543209198E+03  0.11543209198E+03  0.00000000000E+00 0.  1.
      99926    2    1    2    0    0  0.00000000000E+00  0.00000000000E+00  0.33697239025E+03  0.56783657421E+03  0.45704264924E+03 0.  0.
      99925    2    3    3    0    0 -0.37505331616E+02 -0.30962850794E+02  0.34119580077E+03  0.43355815701E+03  0.26304515396E+03 0.  0.
         25    1    4    4    0    0 -0.13741743176E+02 -0.74821035197E+01  0.10441924900E+03  0.16369393709E+03  0.12509000000E+03 0.  0.
         25    1    3    3    0    0  0.37505331616E+02  0.30962850794E+02 -0.42234105195E+01  0.13427841720E+03  0.12509000000E+03 0.  0.
         25    1    4    4    0    0 -0.23763588440E+02 -0.23480747275E+02  0.23677655177E+03  0.26986421992E+03  0.12509000000E+03 0.  0.
<mgrwt>
<rscale>  2 0.45704265E+03</rscale>
<asrwt>0</asrwt>
<pdfrwt beam="1">  1       21 0.66530070E-01 0.45704265E+03</pdfrwt>
<pdfrwt beam="2">  1       21 0.16975308E-01 0.45704265E+03</pdfrwt>
<totfact> 0.59732244E+04</totfact>
</mgrwt>
</event>
<event>
 7    0  0.4748297E-002  0.4576040E+03  0.7546771E-02  0.1025478E+00
         21   -1    0    0  502  501  0.00000000000E+00  0.00000000000E+00  0.70666077551E+03  0.70666077551E+03  0.00000000000E+00 0. -1.
         21   -1    0    0  501  502 -0.00000000000E+00 -0.00000000000E+00 -0.74081318521E+02  0.74081318521E+02  0.00000000000E+00 0. -1.
      99926    2    1    2    0    0  0.00000000000E+00  0.00000000000E+00  0.63257945699E+03  0.78074209404E+03  0.45760402969E+03 0.  0.
      99925    2    3    3    0    0 -0.59899158296E+02 -0.80684178071E+02  0.49486913270E+03  0.56929591348E+03  0.26287741030E+03 0.  0.
         25    1    3    3    0    0  0.59899158296E+02  0.80684178071E+02  0.13771032429E+03  0.21144618056E+03  0.12509000000E+03 0.  0.
         25    1    4    4    0    0 -0.44190216222E+02 -0.49080441356E+02  0.18201978045E+03  0.23052195884E+03  0.12509000000E+03 0.  0.
         25    1    4    4    0    0 -0.15708942074E+02 -0.31603736715E+02  0.31284935225E+03  0.33877395463E+03  0.12509000000E+03 0.  0.
<mgrwt>
<rscale>  2 0.45760403E+03</rscale>
<asrwt>0</asrwt>
<pdfrwt beam="1">  1       21 0.10392070E+00 0.45760403E+03</pdfrwt>
<pdfrwt beam="2">  1       21 0.10894312E-01 0.45760403E+03</pdfrwt>
<totfact> 0.47727420E+04</totfact>
</mgrwt>
</event>
<event>
 7    0  0.4748297E-002  0.4464587E+03  0.7546771E-02  0.1028783E+00
         21   -1    0    0  502  501  0.00000000000E+00  0.00000000000E+00  0.73350253499E+03  0.73350253499E+03  0.00000000000E+00 0. -1.
         21   -1    0    0  501  502 -0.00000000000E+00 -0.00000000000E+00 -0.67936147733E+02  0.67936147733E+02  0.00000000000E+00 0. -1.
      99926    2    1    2    0    0 -0.71054273576E-14  0.00000000000E+00  0.66556638726E+03  0.80143868273E+03  0.44645867258E+03 0.  0.
      99925    2    3    3    0    0 -0.45721144706E+02 -0.43034411252E+02  0.57334229437E+03  0.63382252887E+03  0.26280644581E+03 0.  0.
         25    1    3    3    0    0  0.45721144706E+02  0.43034411252E+02  0.92224092885E+02  0.16761615386E+03  0.12509000000E+03 0.  0.
         25    1    4    4    0    0  0.16991363494E+02 -0.17406663861E+02  0.25149435389E+03  0.28193725635E+03  0.12509000000E+03 0.  0.
         25    1    4    4    0    0 -0.62712508201E+02 -0.25627747392E+02  0.32184794048E+03  0.35188527252E+03  0.12509000000E+03 0.  0.
<mgrwt>
<rscale>  2 0.44645867E+03</rscale>
<asrwt>0</asrwt>
<pdfrwt beam="1">  1       21 0.10786802E+00 0.44645867E+03</pdfrwt>
<pdfrwt beam="2">  1       21 0.99906104E-02 0.44645867E+03</pdfrwt>
<totfact> 0.51030902E+04</totfact>
</mgrwt>
</event>
<event>
 7    0  0.4748297E-002  0.4565985E+03  0.7546771E-02  0.1025772E+00
         21   -1    0    0  502  501  0.00000000000E+00  0.00000000000E+00  0.35509358855E+03  0.35509358855E+03  0.00000000000E+00 0.  1.
         21   -1    0    0  501  502 -0.00000000000E+00 -0.00000000000E+00 -0.14677971845E+03  0.14677971845E+03  0.00000000000E+00 0.  1.
      99926    2    1    2    0    0  0.00000000000E+00  0.44408920985E-15  0.20831387010E+03  0.50187330700E+03  0.45659845357E+03 0.  0.
      99925    2    3    3    0    0  0.44027740437E+02  0.25082784652E+01  0.24720232100E+03  0.36365408582E+03  0.26304101056E+03 0.  0.
         25    1    4    4    0    0  0.61153603673E+02  0.13734191296E+02  0.13296501934E+03  0.19301708661E+03  0.12509000000E+03 0.  0.
         25    1    4    4    0    0 -0.17125863236E+02 -0.11225912831E+02  0.11423730166E+03  0.17063699922E+03  0.12509000000E+03 0.  0.
         25    1    3    3    0    0 -0.44027740437E+02 -0.25082784652E+01 -0.38888450908E+02  0.13821922118E+03  0.12509000000E+03 0.  0.
<mgrwt>
<rscale>  2 0.45659845E+03</rscale>
<asrwt>0</asrwt>
<pdfrwt beam="1">  1       21 0.52219645E-01 0.45659845E+03</pdfrwt>
<pdfrwt beam="2">  1       21 0.21585253E-01 0.45659845E+03</pdfrwt>
<totfact> 0.64319265E+04</totfact>
</mgrwt>
</event>
<event>
 7    0  0.4748297E-002  0.4615990E+03  0.7546771E-02  0.1024318E+00
         21   -1    0    0  502  501  0.00000000000E+00  0.00000000000E+00  0.47403374390E+02  0.47403374390E+02  0.00000000000E+00 0.  1.
         21   -1    0    0  501  502 -0.00000000000E+00 -0.00000000000E+00 -0.11237261628E+04  0.11237261628E+04  0.00000000000E+00 0.  1.
      99926    2    1    2    0    0  0.00000000000E+00 -0.71054273576E-14 -0.10763227884E+04  0.11711295372E+04  0.46159901216E+03 0.  0.
      99925    2    3    3    0    0  0.92686533684E+02  0.60645250636E+02 -0.78419699263E+03  0.83459777255E+03  0.26328668546E+03 0.  0.
         25    1    4    4    0    0  0.29353218727E+02  0.31503251322E+02 -0.26754200567E+03  0.29846322921E+03  0.12509000000E+03 0.  0.
         25    1    4    4    0    0  0.63333314957E+02  0.29141999314E+02 -0.51665498697E+03  0.53613454334E+03  0.12509000000E+03 0.  0.
         25    1    3    3    0    0 -0.92686533684E+02 -0.60645250636E+02 -0.29212579575E+03  0.33653176462E+03  0.12509000000E+03 0.  0.
<mgrwt>
<rscale>  2 0.46159901E+03</rscale>
<asrwt>0</asrwt>
<pdfrwt beam="1">  1       21 0.69710842E-02 0.46159901E+03</pdfrwt>
<pdfrwt beam="2">  1       21 0.16525385E+00 0.46159901E+03</pdfrwt>
<totfact> 0.31436813E+04</totfact>
</mgrwt>
</event>
<event>
 7    0  0.4748297E-002  0.4597205E+03  0.7546771E-02  0.1024862E+00
         21   -1    0    0  502  501  0.00000000000E+00  0.00000000000E+00  0.11978624968E+03  0.11978624968E+03  0.00000000000E+00 0. -1.
         21   -1    0    0  501  502 -0.00000000000E+00 -0.00000000000E+00 -0.44108350273E+03  0.44108350273E+03  0.00000000000E+00 0. -1.
      99926    2    1    2    0    0  0.00000000000E+00  0.00000000000E+00 -0.32129725306E+03  0.56086975241E+03  0.45972051765E+03 0.  0.
      99925    2    3    3    0    0  0.96366789568E+02  0.67167749901E+02 -0.20000072452E+03  0.35073070156E+03  0.26308491110E+03 0.  0.
         25    1    3    3    0    0 -0.96366789568E+02 -0.67167749901E+02 -0.12129652854E+03  0.21013905085E+03  0.12509000000E+03 0.  0.
         25    1    4    4    0    0  0.63965093403E+02  0.20507567307E+02 -0.14442895290E+03  0.20253227898E+03  0.12509000000E+03 0.  0.
         25    1    4    4    0    0  0.32401696165E+02  0.46660182594E+02 -0.55571771616E+02  0.14819842258E+03  0.12509000000E+03 0.  0.
<mgrwt>
<rscale>  2 0.45972052E+03</rscale>
<asrwt>0</asrwt>
<pdfrwt beam="1">  1       21 0.17615625E-01 0.45972052E+03</pdfrwt>
<pdfrwt beam="2">  1       21 0.64865220E-01 0.45972052E+03</pdfrwt>
<totfact> 0.58922801E+04</totfact>
</mgrwt>
</event>
<event>
 7    0  0.4748297E-002  0.4439256E+03  0.7546771E-02  0.1029549E+00
         21   -1    0    0  502  501  0.00000000000E+00  0.00000000000E+00  0.25386163897E+03  0.25386163897E+03  0.00000000000E+00 0. -1.
         21   -1    0    0  501  502 -0.00000000000E+00 -0.00000000000E+00 -0.19407221886E+03  0.19407221886E+03  0.00000000000E+00 0. -1.
      99926    2    1    2    0    0  0.00000000000E+00  0.00000000000E+00  0.59789420107E+02  0.44793385783E+03  0.44392563142E+03 0.  0.
      99925    2    3    3    0    0  0.34718473628E+02  0.91516615453E+02  0.73620594068E+01  0.28067119145E+03  0.26294762687E+03 0.  0.
         25    1    4    4    0    0 -0.41204547609E+01  0.63315470841E+02  0.33396772407E+02  0.14418279891E+03  0.12509000000E+03 0.  0.
         25    1    4    4    0    0  0.38838928389E+02  0.28201144612E+02 -0.26034713000E+02  0.13648839254E+03  0.12509000000E+03 0.  0.
         25    1    3    3    0    0 -0.34718473628E+02 -0.91516615453E+02  0.52427360700E+02  0.16726266638E+03  0.12509000000E+03 0.  0.
<mgrwt>
<rscale>  2 0.44392563E+03</rscale>
<asrwt>0</asrwt>
<pdfrwt beam="1">  1       21 0.37332594E-01 0.44392563E+03</pdfrwt>
<pdfrwt beam="2">  1       21 0.28540032E-01 0.44392563E+03</pdfrwt>
<totfact> 0.75521595E+04</totfact>
</mgrwt>
</event>
<event>
 7    0  0.4748297E-002  0.4629104E+03  0.7546771E-02  0.1023940E+00
         21   -1    0    0  502  501  0.00000000000E+00  0.00000000000E+00  0.43669755851E+03  0.43669755851E+03  0.00000000000E+00 0.  1.
         21   -1    0    0  501  502 -0.00000000000E+00 -0.00000000000E+00 -0.12267419352E+03  0.12267419352E+03  0.00000000000E+00 0.  1.
      99926    2    1    2    0    0  0.00000000000E+00  0.00000000000E+00  0.31402336499E+03  0.55937175202E+03  0.46291044836E+03 0.  0.
      99925    2    3    3    0    0  0.93427348964E+02 -0.68776495275E+02  0.23574932880E+03  0.37166664107E+03  0.26286778086E+03 0.  0.
         25    1    4    4    0    0  0.43778593905E+02 -0.44889211588E+02  0.68874364380E+02  0.15595766339E+03  0.12509000000E+03 0.  0.
         25    1    3    3    0    0 -0.93427348964E+02  0.68776495275E+02  0.78274036187E+02  0.18770511095E+03  0.12509000000E+03 0.  0.
         25    1    4    4    0    0  0.49648755059E+02 -0.23887283687E+02  0.16687496442E+03  0.21570897768E+03  0.12509000000E+03 0.  0.
<mgrwt>
<rscale>  2 0.46291045E+03</rscale>
<asrwt>0</asrwt>
<pdfrwt beam="1">  1       21 0.64220229E-01 0.46291045E+03</pdfrwt>
<pdfrwt beam="2">  1       21 0.18040323E-01 0.46291045E+03</pdfrwt>
<totfact> 0.57564026E+04</totfact>
</mgrwt>
</event>
<event>
 7    0  0.4748297E-002  0.4572718E+03  0.7546771E-02  0.1025575E+00
         21   -1    0    0  502  501  0.00000000000E+00  0.00000000000E+00  0.99861456798E+02  0.99861456798E+02  0.00000000000E+00 0.  1.
         21   -1    0    0  501  502 -0.00000000000E+00 -0.00000000000E+00 -0.52346892470E+03  0.52346892470E+03  0.00000000000E+00 0.  1.
      99926    2    1    2    0    0  0.00000000000E+00 -0.35527136788E-14 -0.42360746790E+03  0.62333038150E+03  0.45727177656E+03 0.  0.
      99925    2    3    3    0    0 -0.92679643889E+01  0.18995822435E+02 -0.11150192250E+03  0.28642666231E+03  0.26298444388E+03 0.  0.
         25    1    3    3    0    0  0.92679643889E+01 -0.18995822435E+02 -0.31210554541E+03  0.33690371919E+03  0.12509000000E+03 0.  0.
         25    1    4    4    0    0 -0.21475027126E+02  0.39027681049E+02 -0.81040152327E+02  0.15556140610E+03  0.12509000000E+03 0.  0.
         25    1    4    4    0    0  0.12207062738E+02 -0.20031858615E+02 -0.30461770170E+02  0.13086525621E+03  0.12509000000E+03 0.  0.
<mgrwt>
<rscale>  2 0.45727178E+03</rscale>
<asrwt>0</asrwt>
<pdfrwt beam="1">  1       21 0.14685508E-01 0.45727178E+03</pdfrwt>
<pdfrwt beam="2">  1       21 0.76980727E-01 0.45727178E+03</pdfrwt>
<totfact> 0.56248940E+04</totfact>
</mgrwt>
</event>
<event>
 7    0  0.4748297E-002  0.4608329E+03  0.7546771E-02  0.1024540E+00
         21   -1    0    0  502  501  0.00000000000E+00  0.00000000000E+00  0.98954090023E+03  0.98954090023E+03  0.00000000000E+00 0. -1.
         21   -1    0    0  501  502 -0.00000000000E+00 -0.00000000000E+00 -0.53652899740E+02  0.53652899740E+02  0.00000000000E+00 0. -1.
      99926    2    1    2    0    0  0.14210854715E-13  0.00000000000E+00  0.93588800049E+03  0.10431938000E+04  0.46083289253E+03 0.  0.
      99925    2    3    3    0    0  0.10011756104E+03  0.68326578907E+01  0.44116939477E+03  0.52313205537E+03  0.26261473919E+03 0.  0.
         25    1    3    3    0    0 -0.10011756104E+03 -0.68326578907E+01  0.49471860573E+03  0.52006174460E+03  0.12509000000E+03 0.  0.
         25    1    4    4    0    0  0.84994844160E+02  0.15028281060E+02  0.20330558552E+03  0.25383191676E+03  0.12509000000E+03 0.  0.
         25    1    4    4    0    0  0.15122716879E+02 -0.81956231689E+01  0.23786380925E+03  0.26930013861E+03  0.12509000000E+03 0.  0.
<mgrwt>
<rscale>  2 0.46083289E+03</rscale>
<asrwt>0</asrwt>
<pdfrwt beam="1">  1       21 0.14552071E+00 0.46083289E+03</pdfrwt>
<pdfrwt beam="2">  1       21 0.78901329E-02 0.46083289E+03</pdfrwt>
<totfact> 0.35867033E+04</totfact>
</mgrwt>
</event>
<event>
 7    0  0.4748297E-002  0.4553004E+03  0.7546771E-02  0.1026153E+00
         21   -1    0    0  502  501  0.00000000000E+00  0.00000000000E+00  0.48858000693E+02  0.48858000693E+02  0.00000000000E+00 0.  1.
         21   -1    0    0  501  502 -0.00000000000E+00 -0.00000000000E+00 -0.10607191026E+04  0.10607191026E+04  0.00000000000E+00 0.  1.
      99926    2    1    2    0    0 -0.17763568394E-14  0.35527136788E-14 -0.10118611019E+04  0.11095771033E+04  0.45530040478E+03 0.  0.
      99925    2    3    3    0    0  0.14695504052E+02 -0.10317596427E+02 -0.36352783292E+03  0.44904251191E+03  0.26299102943E+03 0.  0.
         25    1    3    3    0    0 -0.14695504052E+02  0.10317596427E+02 -0.64833326896E+03  0.66053459136E+03  0.12509000000E+03 0.  0.
         25    1    4    4    0    0 -0.71257187204E+01  0.24895196858E+02 -0.13963577907E+03  0.18925169904E+03  0.12509000000E+03 0.  0.
         25    1    4    4    0    0  0.21821222772E+02 -0.35212793285E+02 -0.22389205385E+03  0.25979081287E+03  0.12509000000E+03 0.  0.
<mgrwt>
<rscale>  2 0.45530040E+03</rscale>
<asrwt>0</asrwt>
<pdfrwt beam="1">  1       21 0.71849996E-02 0.45530040E+03</pdfrwt>
<pdfrwt beam="2">  1       21 0.15598811E+00 0.45530040E+03</pdfrwt>
<totfact> 0.35078683E+04</totfact>
</mgrwt>
</event>
<event>
 7    0  0.4748297E-002  0.4491876E+03  0.7546771E-02  0.1027965E+00
         21   -1    0    0  502  501  0.00000000000E+00  0.00000000000E+00  0.41343473135E+03  0.41343473135E+03  0.00000000000E+00 0. -1.
         21   -1    0    0  501  502 -0.00000000000E+00 -0.00000000000E+00 -0.12200808767E+03  0.12200808767E+03  0.00000000000E+00 0. -1.
      99926    2    1    2    0    0  0.39968028887E-14  0.00000000000E+00  0.29142664368E+03  0.53544281901E+03  0.44918762648E+03 0.  0.
      99925    2    3    3    0    0 -0.39131740613E+01  0.94384973996E+02  0.12282607527E+03  0.30523096872E+03  0.26297502400E+03 0.  0.
         25    1    3    3    0    0  0.39131740613E+01 -0.94384973996E+02  0.16860056841E+03  0.23021185030E+03  0.12509000000E+03 0.  0.
         25    1    4    4    0    0  0.36075298183E+02  0.40482323238E+02  0.46458919233E+02  0.14403535993E+03  0.12509000000E+03 0.  0.
         25    1    4    4    0    0 -0.39988472245E+02  0.53902650759E+02  0.76367156038E+02  0.16119560879E+03  0.12509000000E+03 0.  0.
<mgrwt>
<rscale>  2 0.44918763E+03</rscale>
<asrwt>0</asrwt>
<pdfrwt beam="1">  1       21 0.60799225E-01 0.44918763E+03</pdfrwt>
<pdfrwt beam="2">  1       21 0.17942366E-01 0.44918763E+03</pdfrwt>
<totfact> 0.65814685E+04</totfact>
</mgrwt>
</event>
<event>
 7    0  0.4748297E-002  0.4724250E+03  0.7546771E-02  0.1021238E+00
         21   -1    0    0  502  501  0.00000000000E+00  0.00000000000E+00  0.26697590721E+03  0.26697590721E+03  0.00000000000E+00 0.  1.
         21   -1    0    0  501  502 -0.00000000000E+00 -0.00000000000E+00 -0.20899391428E+03  0.20899391428E+03  0.00000000000E+00 0.  1.
      99926    2    1    2    0    0 -0.35527136788E-14 -0.14210854715E-13  0.57981992930E+02  0.47596982149E+03  0.47242497761E+03 0.  0.
      99925    2    3    3    0    0  0.16554366263E+02  0.10582775526E+03 -0.37301639543E+02  0.28570674167E+03  0.26222770467E+03 0.  0.
         25    1    4    4    0    0  0.45088471381E+02  0.47828392414E+02 -0.31540110209E+02  0.14478539990E+03  0.12509000000E+03 0.  0.
         25    1    3    3    0    0 -0.16554366263E+02 -0.10582775526E+03  0.95283632473E+02  0.19026307982E+03  0.12509000000E+03 0.  0.
         25    1    4    4    0    0 -0.28534105118E+02  0.57999362851E+02 -0.57615293341E+01  0.14092134177E+03  0.12509000000E+03 0.  0.
<mgrwt>
<rscale>  2 0.47242498E+03</rscale>
<asrwt>0</asrwt>
<pdfrwt beam="1">  1       21 0.39261163E-01 0.47242498E+03</pdfrwt>
<pdfrwt beam="2">  1       21 0.30734399E-01 0.47242498E+03</pdfrwt>
<totfact> 0.58473934E+04</totfact>
</mgrwt>
</event>
<event>
 7    0  0.4748297E-002  0.4454800E+03  0.7546771E-02  0.1029079E+00
         21   -1    0    0  502  501  0.00000000000E+00  0.00000000000E+00  0.63153954013E+02  0.63153954013E+02  0.00000000000E+00 0.  1.
         21   -1    0    0  501  502 -0.00000000000E+00 -0.00000000000E+00 -0.78558997578E+03  0.78558997578E+03  0.00000000000E+00 0.  1.
      99926    2    1    2    0    0  0.00000000000E+00  0.71054273576E-14 -0.72243602177E+03  0.84874392980E+03  0.44548002516E+03 0.  0.
      99925    2    3    3    0    0 -0.37116758114E+02  0.39037279625E+02 -0.28718076146E+03  0.39267791192E+03  0.26233869296E+03 0.  0.
         25    1    4    4    0    0 -0.35118433625E+02 -0.15131644928E+02 -0.15459215827E+03  0.20250559142E+03  0.12509000000E+03 0.  0.
         25    1    3    3    0    0  0.37116758114E+02 -0.39037279625E+02 -0.43525526031E+03  0.45606601788E+03  0.12509000000E+03 0.  0.
         25    1    4    4    0    0 -0.19983244889E+01  0.54168924553E+02 -0.13258860319E+03  0.19017232050E+03  0.12509000000E+03 0.  0.
<mgrwt>
<rscale>  2 0.44548003E+03</rscale>
<asrwt>0</asrwt>
<pdfrwt beam="1">  1       21 0.92873473E-02 0.44548003E+03</pdfrwt>
<pdfrwt beam="2">  1       21 0.11552792E+00 0.44548003E+03</pdfrwt>
<totfact> 0.49057889E+04</totfact>
</mgrwt>
</event>
<event>
 7    0  0.4748297E-002  0.4571193E+03  0.7546771E-02  0.1025620E+00
         21   -1    0    0  502  501  0.00000000000E+00  0.00000000000E+00  0.21836357979E+02  0.21836357979E+02  0.00000000000E+00 0.  1.
         21   -1    0    0  501  502 -0.00000000000E+00 -0.00000000000E+00 -0.23923184447E+04  0.23923184447E+04  0.00000000000E+00 0.  1.
      99926    2    1    2    0    0  0.26645352591E-14  0.00000000000E+00 -0.23704820867E+04  0.24141548027E+04  0.45711933653E+03 0.  0.
      99925    2    3    3    0    0 -0.36727845541E+01  0.11453095324E+03 -0.15495025577E+04  0.15758316408E+04  0.26297595932E+03 0.  0.
         25    1    4    4    0    0  0.21900242501E+02  0.90861365685E+02 -0.78505442549E+03  0.80043323736E+03  0.12509000000E+03 0.  0.
         25    1    4    4    0    0 -0.25573027056E+02  0.23669587558E+02 -0.76444813220E+03  0.77539840341E+03  0.12509000000E+03 0.  0.
         25    1    3    3    0    0  0.36727845541E+01 -0.11453095324E+03 -0.82097952901E+03  0.83832316188E+03  0.12509000000E+03 0.  0.
<mgrwt>
<rscale>  2 0.45711934E+03</rscale>
<asrwt>0</asrwt>
<pdfrwt beam="1">  1       21 0.32112285E-02 0.45711934E+03</pdfrwt>
<pdfrwt beam="2">  1       21 0.35181160E+00 0.45711934E+03</pdfrwt>
<totfact> 0.79191597E+03</totfact>
</mgrwt>
</event>
<event>
 7    0  0.4748297E-002  0.4422072E+03  0.7546771E-02  0.1030072E+00
         21   -1    0    0  502  501  0.00000000000E+00  0.00000000000E+00  0.11329509981E+03  0.11329509981E+03  0.00000000000E+00 0.  1.
         21   -1    0    0  501  502 -0.00000000000E+00 -0.00000000000E+00 -0.43149968933E+03  0.43149968933E+03  0.00000000000E+00 0.  1.
      99926    2    1    2    0    0  0.00000000000E+00  0.00000000000E+00 -0.31820458951E+03  0.54479478914E+03  0.44220719294E+03 0.  0.
      99925    2    3    3    0    0 -0.34725248911E+02 -0.94523888725E+02 -0.20089219254E+03  0.34592217907E+03  0.26299025172E+03 0.  0.
         25    1    4    4    0    0 -0.11104758752E+02 -0.72611740359E+02 -0.66704699334E+02  0.15966466584E+03  0.12509000000E+03 0.  0.
         25    1    3    3    0    0  0.34725248911E+02  0.94523888725E+02 -0.11731239697E+03  0.19887261007E+03  0.12509000000E+03 0.  0.
         25    1    4    4    0    0 -0.23620490158E+02 -0.21912148366E+02 -0.13418749321E+03  0.18625751323E+03  0.12509000000E+03 0.  0.
<mgrwt>
<rscale>  2 0.44220719E+03</rscale>
<asrwt>0</asrwt>
<pdfrwt beam="1">  1       21 0.16661044E-01 0.44220719E+03</pdfrwt>
<pdfrwt beam="2">  1       21 0.63455836E-01 0.44220719E+03</pdfrwt>
<totfact> 0.68928735E+04</totfact>
</mgrwt>
</event>
<event>
 7    0  0.4748297E-002  0.4548664E+03  0.7546771E-02  0.1026281E+00
         21   -1    0    0  502  501  0.00000000000E+00  0.00000000000E+00  0.10454678308E+03  0.10454678308E+03  0.00000000000E+00 0.  1.
         21   -1    0    0  501  502 -0.00000000000E+00 -0.00000000000E+00 -0.49476280466E+03  0.49476280466E+03  0.00000000000E+00 0.  1.
      99926    2    1    2    0    0  0.00000000000E+00  0.00000000000E+00 -0.39021602157E+03  0.59930958774E+03  0.45486639628E+03 0.  0.
      99925    2    3    3    0    0  0.27115340437E+02 -0.82793401657E+02 -0.15115863041E+03  0.31578545576E+03  0.26321385502E+03 0.  0.
         25    1    3    3    0    0 -0.27115340437E+02  0.82793401657E+02 -0.23905739116E+03  0.28352413198E+03  0.12509000000E+03 0.  0.
         25    1    4    4    0    0 -0.16293379319E+02 -0.42509364652E+02 -0.42211946316E+02  0.13964912031E+03  0.12509000000E+03 0.  0.
         25    1    4    4    0    0  0.43408719756E+02 -0.40284037005E+02 -0.10894668409E+03  0.17613633544E+03  0.12509000000E+03 0.  0.
<mgrwt>
<rscale>  2 0.45486640E+03</rscale>
<asrwt>0</asrwt>
<pdfrwt beam="1">  1       21 0.15374527E-01 0.45486640E+03</pdfrwt>
<pdfrwt beam="2">  1       21 0.72759234E-01 0.45486640E+03</pdfrwt>
<totfact> 0.58782814E+04</totfact>
</mgrwt>
</event>
<event>
 7    0  0.4748297E-002  0.4566527E+03  0.7546771E-02  0.1025757E+00
         21   -1    0    0  502  501  0.00000000000E+00  0.00000000000E+00  0.35664100875E+03  0.35664100875E+03  0.00000000000E+00 0.  1.
         21   -1    0    0  501  502 -0.00000000000E+00 -0.00000000000E+00 -0.14617755522E+03  0.14617755522E+03  0.00000000000E+00 0.  1.
      99926    2    1    2    0    0  0.00000000000E+00  0.00000000000E+00  0.21046345353E+03  0.50281856397E+03  0.45665265028E+03 0.  0.
      99925    2    3    3    0    0 -0.33428501822E+02 -0.72961585842E+02  0.22192335317E+03  0.35375584180E+03  0.26353816267E+03 0.  0.
         25    1    3    3    0    0  0.33428501822E+02  0.72961585842E+02 -0.11459899639E+02  0.14906272218E+03  0.12509000000E+03 0.  0.
         25    1    4    4    0    0 -0.36778838380E+02 -0.76703732456E+01  0.77778430889E+02  0.15201483477E+03  0.12509000000E+03 0.  0.
         25    1    4    4    0    0  0.33503365579E+01 -0.65291212597E+02  0.14414492228E+03  0.20174100703E+03  0.12509000000E+03 0.  0.
<mgrwt>
<rscale>  2 0.45665265E+03</rscale>
<asrwt>0</asrwt>
<pdfrwt beam="1">  1       21 0.52447207E-01 0.45665265E+03</pdfrwt>
<pdfrwt beam="2">  1       21 0.21496699E-01 0.45665265E+03</pdfrwt>
<totfact> 0.64226408E+04</totfact>
</mgrwt>
</event>
<event>
 7    0  0.4748297E-002  0.5023871E+03  0.7546771E-02  0.1013158E+00
         21   -1    0    0  502  501  0.00000000000E+00  0.00000000000E+00  0.37723633215E+03  0.37723633215E+03  0.00000000000E+00 0. -1.
         21   -1    0    0  501  502 -0.00000000000E+00 -0.00000000000E+00 -0.16726436030E+03  0.16726436030E+03  0.00000000000E+00 0. -1.
      99926    2    1    2    0    0  0.00000000000E+00  0.35527136788E-14  0.20997197185E+03  0.54450069246E+03  0.50238707699E+03 0.  0.
      99925    2    3    3    0    0 -0.14599899797E+03 -0.30349419116E+02  0.88919188698E+02  0.31528882746E+03  0.26317983956E+03 0.  0.
         25    1    3    3    0    0  0.14599899797E+03  0.30349419116E+02  0.12105278315E+03  0.22921186500E+03  0.12509000000E+03 0.  0.
         25    1    4    4    0    0 -0.61482308486E+02  0.21033473854E+01  0.79757972577E+02  0.16060305295E+03  0.12509000000E+03 0.  0.
         25    1    4    4    0    0 -0.84516689481E+02 -0.32452766502E+02  0.91612161213E+01  0.15468577451E+03  0.12509000000E+03 0.  0.
<mgrwt>
<rscale>  2 0.50238708E+03</rscale>
<asrwt>0</asrwt>
<pdfrwt beam="1">  1       21 0.55475931E-01 0.50238708E+03</pdfrwt>
<pdfrwt beam="2">  1       21 0.24597700E-01 0.50238708E+03</pdfrwt>
<totfact> 0.43461103E+04</totfact>
</mgrwt>
</event>
<event>
 7    0  0.4748297E-002  0.4566371E+03  0.7546771E-02  0.1025761E+00
         21   -1    0    0  502  501  0.00000000000E+00  0.00000000000E+00  0.64460361843E+02  0.64460361843E+02  0.00000000000E+00 0.  1.
         21   -1    0    0  501  502 -0.00000000000E+00 -0.00000000000E+00 -0.80870414855E+03  0.80870414855E+03  0.00000000000E+00 0.  1.
      99926    2    1    2    0    0  0.00000000000E+00 -0.14210854715E-13 -0.74424378671E+03  0.87316451040E+03  0.45663710773E+03 0.  0.
      99925    2    3    3    0    0 -0.54510269774E+01 -0.10185446221E+03 -0.56774829234E+03  0.63399466949E+03  0.26307237088E+03 0.  0.
         25    1    4    4    0    0 -0.31674421660E+02 -0.80434697186E+02 -0.32539566651E+03  0.35916967771E+03  0.12509000000E+03 0.  0.
         25    1    3    3    0    0  0.54510269774E+01  0.10185446221E+03 -0.17649549437E+03  0.23916984091E+03  0.12509000000E+03 0.  0.
         25    1    4    4    0    0  0.26223394683E+02 -0.21419765021E+02 -0.24235262583E+03  0.27482499179E+03  0.12509000000E+03 0.  0.
<mgrwt>
<rscale>  2 0.45663711E+03</rscale>
<asrwt>0</asrwt>
<pdfrwt beam="1">  1       21 0.94794648E-02 0.45663711E+03</pdfrwt>
<pdfrwt beam="2">  1       21 0.11892708E+00 0.45663711E+03</pdfrwt>
<totfact> 0.43849328E+04</totfact>
</mgrwt>
</event>
<event>
 7    0  0.4748297E-002  0.4548604E+03  0.7546771E-02  0.1026282E+00
         21   -1    0    0  502  501  0.00000000000E+00  0.00000000000E+00  0.40685840488E+03  0.40685840488E+03  0.00000000000E+00 0. -1.
         21   -1    0    0  501  502 -0.00000000000E+00 -0.00000000000E+00 -0.12713144176E+03  0.12713144176E+03  0.00000000000E+00 0. -1.
      99926    2    1    2    0    0  0.00000000000E+00 -0.88817841970E-15  0.27972696313E+03  0.53398984664E+03  0.45486039882E+03 0.  0.
      99925    2    3    3    0    0 -0.75186507221E+02  0.42165725655E+01  0.27514202159E+03  0.38791000498E+03  0.26286926326E+03 0.  0.
         25    1    3    3    0    0  0.75186507221E+02 -0.42165725655E+01  0.45849415355E+01  0.14607984167E+03  0.12509000000E+03 0.  0.
         25    1    4    4    0    0 -0.23083254707E+02 -0.26968973123E+02  0.98611615861E+02  0.16319289519E+03  0.12509000000E+03 0.  0.
         25    1    4    4    0    0 -0.52103252513E+02  0.31185545689E+02  0.17653040573E+03  0.22471710978E+03  0.12509000000E+03 0.  0.
<mgrwt>
<rscale>  2 0.45486040E+03</rscale>
<asrwt>0</asrwt>
<pdfrwt beam="1">  1       21 0.59832118E-01 0.45486040E+03</pdfrwt>
<pdfrwt beam="2">  1       21 0.18695800E-01 0.45486040E+03</pdfrwt>
<totfact> 0.63006624E+04</totfact>
</mgrwt>
</event>
<event>
 7    0  0.4748297E-002  0.4528876E+03  0.7546771E-02  0.1026864E+00
         21   -1    0    0  502  501  0.00000000000E+00  0.00000000000E+00  0.38403683379E+02  0.38403683379E+02  0.00000000000E+00 0. -1.
         21   -1    0    0  501  502 -0.00000000000E+00 -0.00000000000E+00 -0.13352052888E+04  0.13352052888E+04  0.00000000000E+00 0. -1.
      99926    2    1    2    0    0  0.00000000000E+00  0.00000000000E+00 -0.12968016054E+04  0.13736089722E+04  0.45288762914E+03 0.  0.
      99925    2    3    3    0    0  0.42057155318E+02 -0.83387591707E+02 -0.10005468022E+04  0.10387407723E+04  0.26299466510E+03 0.  0.
         25    1    4    4    0    0  0.27946310723E+02 -0.35513619865E+02 -0.35044962888E+03  0.37483951761E+03  0.12509000000E+03 0.  0.
         25    1    4    4    0    0  0.14110844595E+02 -0.47873971842E+02 -0.65009717331E+03  0.66390125467E+03  0.12509000000E+03 0.  0.
         25    1    3    3    0    0 -0.42057155318E+02  0.83387591707E+02 -0.29625480324E+03  0.33486819990E+03  0.12509000000E+03 0.  0.
<mgrwt>
<rscale>  2 0.45288763E+03</rscale>
<asrwt>0</asrwt>
<pdfrwt beam="1">  1       21 0.56476020E-02 0.45288763E+03</pdfrwt>
<pdfrwt beam="2">  1       21 0.19635367E+00 0.45288763E+03</pdfrwt>
<totfact> 0.27492465E+04</totfact>
</mgrwt>
</event>
<event>
 7    0  0.4748297E-002  0.4226589E+03  0.7546771E-02  0.1036204E+00
         21   -1    0    0  502  501  0.00000000000E+00  0.00000000000E+00  0.13437674884E+03  0.13437674884E+03  0.00000000000E+00 0.  1.
         21   -1    0    0  501  502 -0.00000000000E+00 -0.00000000000E+00 -0.33235018459E+03  0.33235018459E+03  0.00000000000E+00 0.  1.
      99926    2    1    2    0    0 -0.71054273576E-14 -0.13322676296E-14 -0.19797343574E+03  0.46672693343E+03  0.42265890400E+03 0.  0.
      99925    2    3    3    0    0  0.53820728195E+02 -0.29236775631E+01 -0.65237983992E+02  0.27653906072E+03  0.26327293609E+03 0.  0.
         25    1    3    3    0    0 -0.53820728195E+02  0.29236775631E+01 -0.13273545175E+03  0.19018787271E+03  0.12509000000E+03 0.  0.
         25    1    4    4    0    0  0.45599048629E+02  0.31413641131E+02 -0.50098829613E+02  0.14568284358E+03  0.12509000000E+03 0.  0.
         25    1    4    4    0    0  0.82216795660E+01 -0.34337318694E+02 -0.15139154380E+02  0.13085621714E+03  0.12509000000E+03 0.  0.
<mgrwt>
<rscale>  2 0.42265890E+03</rscale>
<asrwt>0</asrwt>
<pdfrwt beam="1">  1       21 0.19761287E-01 0.42265890E+03</pdfrwt>
<pdfrwt beam="2">  1       21 0.48875026E-01 0.42265890E+03</pdfrwt>
<totfact> 0.88250247E+04</totfact>
</mgrwt>
</event>
<event>
 7    0  0.4748297E-002  0.4544910E+03  0.7546771E-02  0.1026391E+00
         21   -1    0    0  502  501  0.00000000000E+00  0.00000000000E+00  0.81042054820E+02  0.81042054820E+02  0.00000000000E+00 0.  1.
         21   -1    0    0  501  502 -0.00000000000E+00 -0.00000000000E+00 -0.63720650477E+03  0.63720650477E+03  0.00000000000E+00 0.  1.
      99926    2    1    2    0    0 -0.71054273576E-14  0.14210854715E-13 -0.55616444995E+03  0.71824855959E+03  0.45449103178E+03 0.  0.
      99925    2    3    3    0    0 -0.57565227416E+02  0.74505662634E+02 -0.25227055156E+03  0.37639499628E+03  0.26299793320E+03 0.  0.
         25    1    4    4    0    0 -0.28469364435E+02 -0.29284780672E+01 -0.10011326811E+03  0.16275520037E+03  0.12509000000E+03 0.  0.
         25    1    3    3    0    0  0.57565227416E+02 -0.74505662634E+02 -0.30389389839E+03  0.34185356331E+03  0.12509000000E+03 0.  0.
         25    1    4    4    0    0 -0.29095862981E+02  0.77434140701E+02 -0.15215728345E+03  0.21363979591E+03  0.12509000000E+03 0.  0.
<mgrwt>
<rscale>  2 0.45449103E+03</rscale>
<asrwt>0</asrwt>
<pdfrwt beam="1">  1       21 0.11917949E-01 0.45449103E+03</pdfrwt>
<pdfrwt beam="2">  1       21 0.93706837E-01 0.45449103E+03</pdfrwt>
<totfact> 0.52131787E+04</totfact>
</mgrwt>
</event>
<event>
 7    0  0.4748297E-002  0.4447994E+03  0.7546771E-02  0.1029284E+00
         21   -1    0    0  502  501  0.00000000000E+00  0.00000000000E+00  0.25882721653E+03  0.25882721653E+03  0.00000000000E+00 0. -1.
         21   -1    0    0  501  502 -0.00000000000E+00 -0.00000000000E+00 -0.19109904663E+03  0.19109904663E+03  0.00000000000E+00 0. -1.
      99926    2    1    2    0    0 -0.14210854715E-13  0.71054273576E-14  0.67728169903E+02  0.44992626316E+03  0.44479943489E+03 0.  0.
      99925    2    3    3    0    0  0.85262830234E+02 -0.48940017612E+02  0.75430074274E+02  0.29064128906E+03  0.26290261934E+03 0.  0.
         25    1    4    4    0    0  0.50618376752E+02 -0.31588390225E+02 -0.18146964097E+01  0.13860320229E+03  0.12509000000E+03 0.  0.
         25    1    4    4    0    0  0.34644453483E+02 -0.17351627387E+02  0.77244770683E+02  0.15203808677E+03  0.12509000000E+03 0.  0.
         25    1    3    3    0    0 -0.85262830234E+02  0.48940017612E+02 -0.77019043706E+01  0.15928497410E+03  0.12509000000E+03 0.  0.
<mgrwt>
<rscale>  2 0.44479943E+03</rscale>
<asrwt>0</asrwt>
<pdfrwt beam="1">  1       21 0.38062826E-01 0.44479943E+03</pdfrwt>
<pdfrwt beam="2">  1       21 0.28102801E-01 0.44479943E+03</pdfrwt>
<totfact> 0.74824953E+04</totfact>
</mgrwt>
</event>
<event>
 7    0  0.4748297E-002  0.4530772E+03  0.7546771E-02  0.1026808E+00
         21   -1    0    0  502  501  0.00000000000E+00  0.00000000000E+00  0.34927864857E+02  0.34927864857E+02  0.00000000000E+00 0. -1.
         21   -1    0    0  501  502 -0.00000000000E+00 -0.00000000000E+00 -0.14693063764E+04  0.14693063764E+04  0.00000000000E+00 0. -1.
      99926    2    1    2    0    0  0.00000000000E+00  0.00000000000E+00 -0.14343785115E+04  0.15042342413E+04  0.45307718790E+03 0.  0.
      99925    2    3    3    0    0 -0.11125867911E+03  0.40976162875E+01 -0.89763319574E+03  0.94197244612E+03  0.26300465968E+03 0.  0.
         25    1    3    3    0    0  0.11125867911E+03 -0.40976162875E+01 -0.53674531580E+03  0.56226179514E+03  0.12509000000E+03 0.  0.
         25    1    4    4    0    0 -0.63170844261E+02  0.39648775292E+02 -0.41466551277E+03  0.43949695850E+03  0.12509000000E+03 0.  0.
         25    1    4    4    0    0 -0.48087834848E+02 -0.35551159004E+02 -0.48296768297E+03  0.50247548762E+03  0.12509000000E+03 0.  0.
<mgrwt>
<rscale>  2 0.45307719E+03</rscale>
<asrwt>0</asrwt>
<pdfrwt beam="1">  1       21 0.51364502E-02 0.45307719E+03</pdfrwt>
<pdfrwt beam="2">  1       21 0.21607449E+00 0.45307719E+03</pdfrwt>
<totfact> 0.24032455E+04</totfact>
</mgrwt>
</event>
<event>
 7    0  0.4748297E-002  0.4484391E+03  0.7546771E-02  0.1028189E+00
         21   -1    0    0  502  501  0.00000000000E+00  0.00000000000E+00  0.89458274863E+02  0.89458274863E+02  0.00000000000E+00 0. -1.
         21   -1    0    0  501  502 -0.00000000000E+00 -0.00000000000E+00 -0.56198726904E+03  0.56198726904E+03  0.00000000000E+00 0. -1.
      99926    2    1    2    0    0  0.00000000000E+00  0.35527136788E-14 -0.47252899418E+03  0.65144554390E+03  0.44843912222E+03 0.  0.
      99925    2    3    3    0    0 -0.97315221974E+02 -0.88901479421E+01 -0.36125194694E+03  0.45759153569E+03  0.26332063575E+03 0.  0.
         25    1    3    3    0    0  0.97315221974E+02  0.88901479421E+01 -0.11127704724E+03  0.19385400822E+03  0.12509000000E+03 0.  0.
         25    1    4    4    0    0 -0.58919130332E+02 -0.39214573440E+02 -0.21896927719E+03  0.26192422405E+03  0.12509000000E+03 0.  0.
         25    1    4    4    0    0 -0.38396091643E+02  0.30324425498E+02 -0.14228266974E+03  0.19566731164E+03  0.12509000000E+03 0.  0.
<mgrwt>
<rscale>  2 0.44843912E+03</rscale>
<asrwt>0</asrwt>
<pdfrwt beam="1">  1       21 0.13155629E-01 0.44843912E+03</pdfrwt>
<pdfrwt beam="2">  1       21 0.82645187E-01 0.44843912E+03</pdfrwt>
<totfact> 0.58592247E+04</totfact>
</mgrwt>
</event>
<event>
 7    0  0.4748297E-002  0.4438372E+03  0.7546771E-02  0.1029576E+00
         21   -1    0    0  502  501  0.00000000000E+00  0.00000000000E+00  0.19680462881E+02  0.19680462881E+02  0.00000000000E+00 0.  1.
         21   -1    0    0  501  502 -0.00000000000E+00 -0.00000000000E+00 -0.25023727728E+04  0.25023727728E+04  0.00000000000E+00 0.  1.
      99926    2    1    2    0    0  0.00000000000E+00  0.00000000000E+00 -0.24826923100E+04  0.25220532357E+04  0.44383715243E+03 0.  0.
      99925    2    3    3    0    0 -0.94514139885E+02 -0.21693746592E+02 -0.13919667329E+04  0.14199038203E+04  0.26296754976E+03 0.  0.
         25    1    4    4    0    0 -0.71321289157E+02  0.22118715525E+02 -0.71161535141E+03  0.72637447665E+03  0.12509000000E+03 0.  0.
         25    1    3    3    0    0  0.94514139885E+02  0.21693746592E+02 -0.10907255771E+04  0.11021494154E+04  0.12509000000E+03 0.  0.
         25    1    4    4    0    0 -0.23192850728E+02 -0.43812462118E+02 -0.68035138148E+03  0.69352934368E+03  0.12509000000E+03 0.  0.
<mgrwt>
<rscale>  2 0.44383715E+03</rscale>
<asrwt>0</asrwt>
<pdfrwt beam="1">  1       21 0.28941860E-02 0.44383715E+03</pdfrwt>
<pdfrwt beam="2">  1       21 0.36799596E+00 0.44383715E+03</pdfrwt>
<totfact> 0.75424106E+03</totfact>
</mgrwt>
</event>
<event>
 7    0  0.4748297E-002  0.4646125E+03  0.7546771E-02  0.1023452E+00
         21   -1    0    0  502  501  0.00000000000E+00  0.00000000000E+00  0.11680974928E+04  0.11680974928E+04  0.00000000000E+00 0.  1.
         21   -1    0    0  501  502 -0.00000000000E+00 -0.00000000000E+00 -0.46200079015E+02  0.46200079015E+02  0.00000000000E+00 0.  1.
      99926    2    1    2    0    0  0.00000000000E+00  0.00000000000E+00  0.11218974138E+04  0.12142975718E+04  0.46461251151E+03 0.  0.
      99925    2    3    3    0    0 -0.11113062152E+03  0.41185186512E+02  0.62524892893E+03  0.68860425796E+03  0.26304631972E+03 0.  0.
         25    1    4    4    0    0 -0.83247937279E+02  0.24255028178E+01  0.38952156021E+03  0.41750527673E+03  0.12509000000E+03 0.  0.
         25    1    3    3    0    0  0.11113062152E+03 -0.41185186512E+02  0.49664848482E+03  0.52569331383E+03  0.12509000000E+03 0.  0.
         25    1    4    4    0    0 -0.27882684238E+02  0.38759683694E+02  0.23572736872E+03  0.27109898123E+03  0.12509000000E+03 0.  0.
<mgrwt>
<rscale>  2 0.46461251E+03</rscale>
<asrwt>0</asrwt>
<pdfrwt beam="1">  1       21 0.17177902E+00 0.46461251E+03</pdfrwt>
<pdfrwt beam="2">  1       21 0.67941300E-02 0.46461251E+03</pdfrwt>
<totfact> 0.29439353E+04</totfact>
</mgrwt>
</event>
<event>
 7    0  0.4748297E-002  0.4648823E+03  0.7546771E-02  0.1023375E+00
         21   -1    0    0  502  501  0.00000000000E+00  0.00000000000E+00  0.87131068536E+03  0.87131068536E+03  0.00000000000E+00 0. -1.
         21   -1    0    0  501  502 -0.00000000000E+00 -0.00000000000E+00 -0.62008756949E+02  0.62008756949E+02  0.00000000000E+00 0. -1.
      99926    2    1    2    0    0  0.00000000000E+00  0.00000000000E+00  0.80930192842E+03  0.93331944231E+03  0.46488231851E+03 0.  0.
      99925    2    3    3    0    0  0.23237018178E+02  0.78014221758E+02  0.68765345738E+03  0.74077844300E+03  0.26317151510E+03 0.  0.
         25    1    3    3    0    0 -0.23237018178E+02 -0.78014221758E+02  0.12164847104E+03  0.19254099931E+03  0.12509000000E+03 0.  0.
         25    1    4    4    0    0  0.16545121736E+02  0.65575551882E+02  0.27860119598E+03  0.31279390748E+03  0.12509000000E+03 0.  0.
         25    1    4    4    0    0  0.66918964424E+01  0.12438669876E+02  0.40905226140E+03  0.42798453552E+03  0.12509000000E+03 0.  0.
<mgrwt>
<rscale>  2 0.46488232E+03</rscale>
<asrwt>0</asrwt>
<pdfrwt beam="1">  1       21 0.12813392E+00 0.46488232E+03</pdfrwt>
<pdfrwt beam="2">  1       21 0.91189354E-02 0.46488232E+03</pdfrwt>
<totfact> 0.38740442E+04</totfact>
</mgrwt>
</event>
<event>
 7    0  0.4748297E-002  0.4334480E+03  0.7546771E-02  0.1032776E+00
         21   -1    0    0  502  501  0.00000000000E+00  0.00000000000E+00  0.11761627652E+03  0.11761627652E+03  0.00000000000E+00 0.  1.
         21   -1    0    0  501  502 -0.00000000000E+00 -0.00000000000E+00 -0.39934342221E+03  0.39934342221E+03  0.00000000000E+00 0.  1.
      99926    2    1    2    0    0  0.00000000000E+00  0.00000000000E+00 -0.28172714569E+03  0.51695969873E+03  0.43344797322E+03 0.  0.
      99925    2    3    3    0    0 -0.66791785827E+02  0.45838602485E+02 -0.13035470557E+03  0.30453690367E+03  0.26303622621E+03 0.  0.
         25    1    4    4    0    0 -0.27355393389E+02 -0.14171844294E+02 -0.80583951128E+02  0.15195538818E+03  0.12509000000E+03 0.  0.
         25    1    4    4    0    0 -0.39436392437E+02  0.60010446778E+02 -0.49770754444E+02  0.15258151549E+03  0.12509000000E+03 0.  0.
         25    1    3    3    0    0  0.66791785827E+02 -0.45838602485E+02 -0.15137244012E+03  0.21242279506E+03  0.12509000000E+03 0.  0.
<mgrwt>
<rscale>  2 0.43344797E+03</rscale>
<asrwt>0</asrwt>
<pdfrwt beam="1">  1       21 0.17296511E-01 0.43344797E+03</pdfrwt>
<pdfrwt beam="2">  1       21 0.58726974E-01 0.43344797E+03</pdfrwt>
<totfact> 0.76318088E+04</totfact>
</mgrwt>
</event>
<event>
 7    0  0.4748297E-002  0.4441900E+03  0.7546771E-02  0.1029469E+00
         21   -1    0    0  502  501  0.00000000000E+00  0.00000000000E+00  0.16021798936E+04  0.16021798936E+04  0.00000000000E+00 0.  1.
         21   -1    0    0  501  502 -0.00000000000E+00 -0.00000000000E+00 -0.30786920027E+02  0.30786920027E+02  0.00000000000E+00 0.  1.
      99926    2    1    2    0    0  0.00000000000E+00  0.00000000000E+00  0.15713929735E+04  0.16329668136E+04  0.44418997851E+03 0.  0.
      99925    2    3    3    0    0  0.80898136100E+02 -0.37165404798E+02  0.81030062034E+03  0.85654241036E+03  0.26296773506E+03 0.  0.
         25    1    4    4    0    0  0.73007870433E+02 -0.98375776846E+01  0.35556442639E+03  0.38405793378E+03  0.12509000000E+03 0.  0.
         25    1    4    4    0    0  0.78902656674E+01 -0.27327827113E+02  0.45473619394E+03  0.47248447658E+03  0.12509000000E+03 0.  0.
         25    1    3    3    0    0 -0.80898136100E+02  0.37165404798E+02  0.76109235319E+03  0.77642440322E+03  0.12509000000E+03 0.  0.
<mgrwt>
<rscale>  2 0.44418998E+03</rscale>
<asrwt>0</asrwt>
<pdfrwt beam="1">  1       21 0.23561463E+00 0.44418998E+03</pdfrwt>
<pdfrwt beam="2">  1       21 0.45274893E-02 0.44418998E+03</pdfrwt>
<totfact> 0.22527336E+04</totfact>
</mgrwt>
</event>
<event>
 7    0  0.4748297E-002  0.4551715E+03  0.7546771E-02  0.1026191E+00
         21   -1    0    0  502  501  0.00000000000E+00  0.00000000000E+00  0.31074767011E+03  0.31074767011E+03  0.00000000000E+00 0. -1.
         21   -1    0    0  501  502 -0.00000000000E+00 -0.00000000000E+00 -0.16667952797E+03  0.16667952797E+03  0.00000000000E+00 0. -1.
      99926    2    1    2    0    0  0.00000000000E+00 -0.71054273576E-14  0.14406814214E+03  0.47742719808E+03  0.45517150601E+03 0.  0.
      99925    2    3    3    0    0  0.10391377475E+03 -0.39655530266E+02  0.67753522149E+02  0.29346507430E+03  0.26298398507E+03 0.  0.
         25    1    3    3    0    0 -0.10391377475E+03  0.39655530266E+02  0.76314619986E+02  0.18396212378E+03  0.12509000000E+03 0.  0.
         25    1    4    4    0    0  0.58109186972E+02  0.14384166261E+02  0.11706291626E+02  0.13916941910E+03  0.12509000000E+03 0.  0.
         25    1    4    4    0    0  0.45804587778E+02 -0.54039696527E+02  0.56047230523E+02  0.15429565519E+03  0.12509000000E+03 0.  0.
<mgrwt>
<rscale>  2 0.45517151E+03</rscale>
<asrwt>0</asrwt>
<pdfrwt beam="1">  1       21 0.45698187E-01 0.45517151E+03</pdfrwt>
<pdfrwt beam="2">  1       21 0.24511695E-01 0.45517151E+03</pdfrwt>
<totfact> 0.66796888E+04</totfact>
</mgrwt>
</event>
<event>
 7    0  0.4748297E-002  0.4557415E+03  0.7546771E-02  0.1026024E+00
         21   -1    0    0  502  501  0.00000000000E+00  0.00000000000E+00  0.85110616115E+03  0.85110616115E+03  0.00000000000E+00 0. -1.
         21   -1    0    0  501  502 -0.00000000000E+00 -0.00000000000E+00 -0.61008928762E+02  0.61008928762E+02  0.00000000000E+00 0. -1.
      99926    2    1    2    0    0  0.00000000000E+00 -0.88817841970E-15  0.79009723239E+03  0.91211508991E+03  0.45574148442E+03 0.  0.
      99925    2    3    3    0    0  0.80030263792E+02  0.77548447684E+01  0.33537358617E+03  0.43369468559E+03  0.26296512558E+03 0.  0.
         25    1    4    4    0    0  0.44683321212E+02 -0.25646496548E+02  0.12522283618E+03  0.18434372455E+03  0.12509000000E+03 0.  0.
         25    1    3    3    0    0 -0.80030263792E+02 -0.77548447684E+01  0.45472364622E+03  0.47842040432E+03  0.12509000000E+03 0.  0.
         25    1    4    4    0    0  0.35346942580E+02  0.33401341316E+02  0.21015074999E+03  0.24935096104E+03  0.12509000000E+03 0.  0.
<mgrwt>
<rscale>  2 0.45574148E+03</rscale>
<asrwt>0</asrwt>
<pdfrwt beam="1">  1       21 0.12516266E+00 0.45574148E+03</pdfrwt>
<pdfrwt beam="2">  1       21 0.89719018E-02 0.45574148E+03</pdfrwt>
<totfact> 0.42467056E+04</totfact>
</mgrwt>
</event>
<event>
 7    0  0.4748297E-002  0.4535987E+03  0.7546771E-02  0.1026654E+00
         21   -1    0    0  502  501  0.00000000000E+00  0.00000000000E+00  0.18675352421E+03  0.18675352421E+03  0.00000000000E+00 0. -1.
         21   -1    0    0  501  502 -0.00000000000E+00 -0.00000000000E+00 -0.27543227415E+03  0.27543227415E+03  0.00000000000E+00 0. -1.
      99926    2    1    2    0    0  0.00000000000E+00 -0.71054273576E-14 -0.88678749940E+02  0.46218579837E+03  0.45359871199E+03 0.  0.
      99925    2    3    3    0    0  0.87423979196E+02 -0.60543007482E+02 -0.91068679626E+02  0.29798583565E+03  0.26304685123E+03 0.  0.
         25    1    4    4    0    0  0.28175450949E+02 -0.12174534065E+02 -0.78479457322E+02  0.15082641890E+03  0.12509000000E+03 0.  0.
         25    1    4    4    0    0  0.59248528246E+02 -0.48368473417E+02 -0.12589222304E+02  0.14715941675E+03  0.12509000000E+03 0.  0.
         25    1    3    3    0    0 -0.87423979196E+02  0.60543007482E+02  0.23899296863E+01  0.16419996272E+03  0.12509000000E+03 0.  0.
<mgrwt>
<rscale>  2 0.45359871E+03</rscale>
<asrwt>0</asrwt>
<pdfrwt beam="1">  1       21 0.27463754E-01 0.45359871E+03</pdfrwt>
<pdfrwt beam="2">  1       21 0.40504746E-01 0.45359871E+03</pdfrwt>
<totfact> 0.68782615E+04</totfact>
</mgrwt>
</event>
<event>
 7    0  0.4748297E-002  0.5183564E+03  0.7546771E-02  0.1009096E+00
         21   -1    0    0  502  501  0.00000000000E+00  0.00000000000E+00  0.10842868516E+04  0.10842868516E+04  0.00000000000E+00 0.  1.
         21   -1    0    0  501  502 -0.00000000000E+00 -0.00000000000E+00 -0.61951640350E+02  0.61951640350E+02  0.00000000000E+00 0.  1.
      99926    2    1    2    0    0  0.00000000000E+00  0.00000000000E+00  0.10223352113E+04  0.11462384920E+04  0.51835643748E+03 0.  0.
      99925    2    3    3    0    0  0.73474325842E+02  0.89901030703E+02  0.35148966228E+03  0.45402325768E+03  0.26289059311E+03 0.  0.
         25    1    3    3    0    0 -0.73474325842E+02 -0.89901030703E+02  0.67084554901E+03  0.69221523431E+03  0.12509000000E+03 0.  0.
         25    1    4    4    0    0  0.46815162361E+02  0.86772044189E+02  0.20278988170E+03  0.25786099220E+03  0.12509000000E+03 0.  0.
         25    1    4    4    0    0  0.26659163481E+02  0.31289865139E+01  0.14869978057E+03  0.19616226548E+03  0.12509000000E+03 0.  0.
<mgrwt>
<rscale>  2 0.51835644E+03</rscale>
<asrwt>0</asrwt>
<pdfrwt beam="1">  1       21 0.15945394E+00 0.51835644E+03</pdfrwt>
<pdfrwt beam="2">  1       21 0.91105360E-02 0.51835644E+03</pdfrwt>
<totfact> 0.21290358E+04</totfact>
</mgrwt>
</event>
<event>
 7    0  0.4748297E-002  0.4573058E+03  0.7546771E-02  0.1025566E+00
         21   -1    0    0  502  501  0.00000000000E+00  0.00000000000E+00  0.70260674667E+03  0.70260674667E+03  0.00000000000E+00 0.  1.
         21   -1    0    0  501  502 -0.00000000000E+00 -0.00000000000E+00 -0.74411674442E+02  0.74411674442E+02  0.00000000000E+00 0.  1.
      99926    2    1    2    0    0  0.00000000000E+00  0.00000000000E+00  0.62819507222E+03  0.77701842111E+03  0.45730578170E+03 0.  0.
      99925    2    3    3    0    0  0.10190519515E+03 -0.51099878262E+02  0.42412311636E+03  0.51189818871E+03  0.26298948918E+03 0.  0.
         25    1    4    4    0    0  0.15014406804E+02 -0.33603042214E+02  0.15887376469E+03  0.20553096619E+03  0.12509000000E+03 0.  0.
         25    1    4    4    0    0  0.86890788344E+02 -0.17496836049E+02  0.26524935167E+03  0.30636722252E+03  0.12509000000E+03 0.  0.
         25    1    3    3    0    0 -0.10190519515E+03  0.51099878262E+02  0.20407195586E+03  0.26512023240E+03  0.12509000000E+03 0.  0.
<mgrwt>
<rscale>  2 0.45730578E+03</rscale>
<asrwt>0</asrwt>
<pdfrwt beam="1">  1       21 0.10332452E+00 0.45730578E+03</pdfrwt>
<pdfrwt beam="2">  1       21 0.10942894E-01 0.45730578E+03</pdfrwt>
<totfact> 0.48021459E+04</totfact>
</mgrwt>
</event>
<event>
 7    0  0.4748297E-002  0.4592084E+03  0.7546771E-02  0.1025011E+00
         21   -1    0    0  502  501  0.00000000000E+00  0.00000000000E+00  0.34369067414E+02  0.34369067414E+02  0.00000000000E+00 0.  1.
         21   -1    0    0  501  502 -0.00000000000E+00 -0.00000000000E+00 -0.15338816736E+04  0.15338816736E+04  0.00000000000E+00 0.  1.
      99926    2    1    2    0    0  0.00000000000E+00  0.00000000000E+00 -0.14995126062E+04  0.15682507411E+04  0.45920837382E+03 0.  0.
      99925    2    3    3    0    0  0.70289420833E+02 -0.33387004027E+02 -0.12388045311E+04  0.12687987362E+04  0.26297960339E+03 0.  0.
         25    1    4    4    0    0  0.94399049391E+01 -0.41113496793E+02 -0.69537555677E+03  0.70779524191E+03  0.12509000000E+03 0.  0.
         25    1    3    3    0    0 -0.70289420833E+02  0.33387004027E+02 -0.26070807510E+03  0.29945200490E+03  0.12509000000E+03 0.  0.
         25    1    4    4    0    0  0.60849515894E+02  0.77264927658E+01 -0.54342897437E+03  0.56100349425E+03  0.12509000000E+03 0.  0.
<mgrwt>
<rscale>  2 0.45920837E+03</rscale>
<asrwt>0</asrwt>
<pdfrwt beam="1">  1       21 0.50542753E-02 0.45920837E+03</pdfrwt>
<pdfrwt beam="2">  1       21 0.22557080E+00 0.45920837E+03</pdfrwt>
<totfact> 0.21445412E+04</totfact>
</mgrwt>
</event>
<event>
 7    0  0.4748297E-002  0.4515036E+03  0.7546771E-02  0.1027275E+00
         21   -1    0    0  502  501  0.00000000000E+00  0.00000000000E+00  0.34966768681E+03  0.34966768681E+03  0.00000000000E+00 0. -1.
         21   -1    0    0  501  502 -0.00000000000E+00 -0.00000000000E+00 -0.14574942604E+03  0.14574942604E+03  0.00000000000E+00 0. -1.
      99926    2    1    2    0    0  0.00000000000E+00 -0.14210854715E-13  0.20391826077E+03  0.49541711285E+03  0.45150355328E+03 0.  0.
      99925    2    3    3    0    0  0.43569317701E+02  0.10086279572E+03  0.12818212782E+03  0.31250987149E+03  0.26298321787E+03 0.  0.
         25    1    4    4    0    0  0.33853527177E+02  0.28391249694E+02  0.25940986560E+02  0.13517606018E+03  0.12509000000E+03 0.  0.
         25    1    3    3    0    0 -0.43569317701E+02 -0.10086279572E+03  0.75736132958E+02  0.18290724136E+03  0.12509000000E+03 0.  0.
         25    1    4    4    0    0  0.97157905240E+01  0.72471546027E+02  0.10224114126E+03  0.17733381131E+03  0.12509000000E+03 0.  0.
<mgrwt>
<rscale>  2 0.45150355E+03</rscale>
<asrwt>0</asrwt>
<pdfrwt beam="1">  1       21 0.51421719E-01 0.45150355E+03</pdfrwt>
<pdfrwt beam="2">  1       21 0.21433739E-01 0.45150355E+03</pdfrwt>
<totfact> 0.67446527E+04</totfact>
</mgrwt>
</event>
<event>
 7    0  0.4748297E-002  0.4566025E+03  0.7546771E-02  0.1025771E+00
         21   -1    0    0  502  501  0.00000000000E+00  0.00000000000E+00  0.14942461053E+04  0.14942461053E+04  0.00000000000E+00 0.  1.
         21   -1    0    0  501  502 -0.00000000000E+00 -0.00000000000E+00 -0.34881436951E+02  0.34881436951E+02  0.00000000000E+00 0.  1.
      99926    2    1    2    0    0  0.00000000000E+00  0.22204460493E-15  0.14593646683E+04  0.15291275422E+04  0.45660245865E+03 0.  0.
      99925    2    3    3    0    0 -0.39489251265E+02 -0.10172144182E+01  0.12775435346E+04  0.13049248026E+04  0.26296543864E+03 0.  0.
         25    1    4    4    0    0  0.14956097169E+02  0.18198887484E+02  0.56141676086E+03  0.57566585084E+03  0.12509000000E+03 0.  0.
         25    1    3    3    0    0  0.39489251265E+02  0.10172144182E+01  0.18182113370E+03  0.22420273961E+03  0.12509000000E+03 0.  0.
         25    1    4    4    0    0 -0.54445348434E+02 -0.19216101903E+02  0.71612677374E+03  0.72925895175E+03  0.12509000000E+03 0.  0.
<mgrwt>
<rscale>  2 0.45660246E+03</rscale>
<asrwt>0</asrwt>
<pdfrwt beam="1">  1       21 0.21974203E+00 0.45660246E+03</pdfrwt>
<pdfrwt beam="2">  1       21 0.51296241E-02 0.45660246E+03</pdfrwt>
<totfact> 0.22789252E+04</totfact>
</mgrwt>
</event>
<event>
 7    0  0.4748297E-002  0.4463263E+03  0.7546771E-02  0.1028823E+00
         21   -1    0    0  502  501  0.00000000000E+00  0.00000000000E+00  0.74415134628E+02  0.74415134628E+02  0.00000000000E+00 0. -1.
         21   -1    0    0  501  502 -0.00000000000E+00 -0.00000000000E+00 -0.66924271187E+03  0.66924271187E+03  0.00000000000E+00 0. -1.
      99926    2    1    2    0    0  0.00000000000E+00  0.71054273576E-14 -0.59482757724E+03  0.74365784650E+03  0.44632627753E+03 0.  0.
      99925    2    3    3    0    0  0.44256047655E+02  0.55480233276E+02 -0.50571790185E+03  0.57446950060E+03  0.26311206136E+03 0.  0.
         25    1    4    4    0    0  0.46443702154E+02  0.59116612003E+02 -0.30114331439E+03  0.33464398274E+03  0.12509000000E+03 0.  0.
         25    1    3    3    0    0 -0.44256047655E+02 -0.55480233276E+02 -0.89109675396E+02  0.16918834590E+03  0.12509000000E+03 0.  0.
         25    1    4    4    0    0 -0.21876544987E+01 -0.36363787273E+01 -0.20457458746E+03  0.23982551786E+03  0.12509000000E+03 0.  0.
<mgrwt>
<rscale>  2 0.44632628E+03</rscale>
<asrwt>0</asrwt>
<pdfrwt beam="1">  1       21 0.10943403E-01 0.44632628E+03</pdfrwt>
<pdfrwt beam="2">  1       21 0.98418042E-01 0.44632628E+03</pdfrwt>
<totfact> 0.54197703E+04</totfact>
</mgrwt>
</event>
<event>
 7    0  0.4748297E-002  0.4551691E+03  0.7546771E-02  0.1026192E+00
         21   -1    0    0  502  501  0.00000000000E+00  0.00000000000E+00  0.60227079866E+03  0.60227079866E+03  0.00000000000E+00 0.  1.
         21   -1    0    0  501  502 -0.00000000000E+00 -0.00000000000E+00 -0.85999064731E+02  0.85999064731E+02  0.00000000000E+00 0.  1.
      99926    2    1    2    0    0  0.00000000000E+00  0.00000000000E+00  0.51627173393E+03  0.68826986339E+03  0.45516909122E+03 0.  0.
      99925    2    3    3    0    0 -0.47151724903E+01 -0.44535455541E+02  0.16656260422E+03  0.31417144966E+03  0.26259276267E+03 0.  0.
         25    1    3    3    0    0  0.47151724903E+01  0.44535455541E+02  0.34970912971E+03  0.37409841373E+03  0.12509000000E+03 0.  0.
         25    1    4    4    0    0  0.73017026400E+01 -0.61195507601E+02  0.92865061071E+02  0.16753994353E+03  0.12509000000E+03 0.  0.
         25    1    4    4    0    0 -0.12016875130E+02  0.16660052060E+02  0.73697543145E+02  0.14663150612E+03  0.12509000000E+03 0.  0.
<mgrwt>
<rscale>  2 0.45516909E+03</rscale>
<asrwt>0</asrwt>
<pdfrwt beam="1">  1       21 0.88569233E-01 0.45516909E+03</pdfrwt>
<pdfrwt beam="2">  1       21 0.12646922E-01 0.45516909E+03</pdfrwt>
<totfact> 0.53473392E+04</totfact>
</mgrwt>
</event>
<event>
 7    0  0.4748297E-002  0.4564959E+03  0.7546771E-02  0.1025802E+00
         21   -1    0    0  502  501  0.00000000000E+00  0.00000000000E+00  0.43008601199E+02  0.43008601199E+02  0.00000000000E+00 0. -1.
         21   -1    0    0  501  502 -0.00000000000E+00 -0.00000000000E+00 -0.12113189507E+04  0.12113189507E+04  0.00000000000E+00 0. -1.
      99926    2    1    2    0    0  0.00000000000E+00  0.00000000000E+00 -0.11683103495E+04  0.12543275519E+04  0.45649593065E+03 0.  0.
      99925    2    3    3    0    0 -0.19613339878E+02 -0.88133828255E+02 -0.54010915306E+03  0.60746086850E+03  0.26294211293E+03 0.  0.
         25    1    4    4    0    0 -0.13976144148E+02 -0.24932848931E+01 -0.26157736352E+03  0.29029601148E+03  0.12509000000E+03 0.  0.
         25    1    4    4    0    0 -0.56371957308E+01 -0.85640543362E+02 -0.27853178954E+03  0.31716485702E+03  0.12509000000E+03 0.  0.
         25    1    3    3    0    0  0.19613339878E+02  0.88133828255E+02 -0.62820119644E+03  0.64686668340E+03  0.12509000000E+03 0.  0.
<mgrwt>
<rscale>  2 0.45649593E+03</rscale>
<asrwt>0</asrwt>
<pdfrwt beam="1">  1       21 0.63247942E-02 0.45649593E+03</pdfrwt>
<pdfrwt beam="2">  1       21 0.17813514E+00 0.45649593E+03</pdfrwt>
<totfact> 0.30118242E+04</totfact>
</mgrwt>
</event>
<event>
 7    0  0.4748297E-002  0.4248221E+03  0.7546771E-02  0.1035508E+00
         21   -1    0    0  502  501  0.00000000000E+00  0.00000000000E+00  0.18503823795E+02  0.18503823795E+02  0.00000000000E+00 0. -1.
         21   -1    0    0  501  502 -0.00000000000E+00 -0.00000000000E+00 -0.24383312401E+04  0.24383312401E+04  0.00000000000E+00 0. -1.
      99926    2    1    2    0    0  0.00000000000E+00 -0.35527136788E-14 -0.24198274164E+04  0.24568350639E+04  0.42482208804E+03 0.  0.
      99925    2    3    3    0    0  0.73498582508E+02  0.25871729455E+02 -0.17115135396E+04  0.17333522071E+04  0.26298267943E+03 0.  0.
         25    1    4    4    0    0  0.14057653767E+02 -0.74707240456E+01 -0.98175672178E+03  0.98982180124E+03  0.12509000000E+03 0.  0.
         25    1    4    4    0    0  0.59440928741E+02  0.33342453501E+02 -0.72975681781E+03  0.74353040587E+03  0.12509000000E+03 0.  0.
         25    1    3    3    0    0 -0.73498582508E+02 -0.25871729455E+02 -0.70831387676E+03  0.72348285683E+03  0.12509000000E+03 0.  0.
<mgrwt>
<rscale>  2 0.42482209E+03</rscale>
<asrwt>0</asrwt>
<pdfrwt beam="1">  1       21 0.27211510E-02 0.42482209E+03</pdfrwt>
<pdfrwt beam="2">  1       21 0.35857806E+00 0.42482209E+03</pdfrwt>
<totfact> 0.96580858E+03</totfact>
</mgrwt>
</event>
<event>
 7    0  0.4748297E-002  0.4540761E+03  0.7546771E-02  0.1026513E+00
         21   -1    0    0  502  501  0.00000000000E+00  0.00000000000E+00  0.60289633468E+02  0.60289633468E+02  0.00000000000E+00 0. -1.
         21   -1    0    0  501  502 -0.00000000000E+00 -0.00000000000E+00 -0.85497758135E+03  0.85497758135E+03  0.00000000000E+00 0. -1.
      99926    2    1    2    0    0  0.00000000000E+00 -0.14210854715E-13 -0.79468794789E+03  0.91526721482E+03  0.45407613901E+03 0.  0.
      99925    2    3    3    0    0  0.49409273863E+02  0.67894972141E+02 -0.65075789173E+03  0.70690605541E+03  0.26301964555E+03 0.  0.
         25    1    4    4    0    0  0.30714555906E+02 -0.33114480660E+01 -0.26283993034E+03  0.29272288382E+03  0.12509000000E+03 0.  0.
         25    1    3    3    0    0 -0.49409273863E+02 -0.67894972141E+02 -0.14393005615E+03  0.20836115941E+03  0.12509000000E+03 0.  0.
         25    1    4    4    0    0  0.18694717957E+02  0.71206420207E+02 -0.38791796139E+03  0.41418317159E+03  0.12509000000E+03 0.  0.
<mgrwt>
<rscale>  2 0.45407614E+03</rscale>
<asrwt>0</asrwt>
<pdfrwt beam="1">  1       21 0.88661221E-02 0.45407614E+03</pdfrwt>
<pdfrwt beam="2">  1       21 0.12573200E+00 0.45407614E+03</pdfrwt>
<totfact> 0.42889416E+04</totfact>
</mgrwt>
</event>
<event>
 7    0  0.4748297E-002  0.4557114E+03  0.7546771E-02  0.1026032E+00
         21   -1    0    0  502  501  0.00000000000E+00  0.00000000000E+00  0.35075589401E+03  0.35075589401E+03  0.00000000000E+00 0.  1.
         21   -1    0    0  501  502 -0.00000000000E+00 -0.00000000000E+00 -0.14801810651E+03  0.14801810651E+03  0.00000000000E+00 0.  1.
      99926    2    1    2    0    0  0.00000000000E+00 -0.44408920985E-14  0.20273778749E+03  0.49877400052E+03  0.45571141429E+03 0.  0.
      99925    2    3    3    0    0  0.10995957365E+03  0.46059767616E+01  0.15940033117E+03  0.32661719385E+03  0.26297909210E+03 0.  0.
         25    1    4    4    0    0  0.58982465343E+02 -0.37849373967E+02  0.84572467275E+02  0.16646776459E+03  0.12509000000E+03 0.  0.
         25    1    3    3    0    0 -0.10995957365E+03 -0.46059767616E+01  0.43337456321E+02  0.17215680666E+03  0.12509000000E+03 0.  0.
         25    1    4    4    0    0  0.50977108309E+02  0.42455350729E+02  0.74827863899E+02  0.16014942926E+03  0.12509000000E+03 0.  0.
<mgrwt>
<rscale>  2 0.45571141E+03</rscale>
<asrwt>0</asrwt>
<pdfrwt beam="1">  1       21 0.51581749E-01 0.45571141E+03</pdfrwt>
<pdfrwt beam="2">  1       21 0.21767369E-01 0.45571141E+03</pdfrwt>
<totfact> 0.64989082E+04</totfact>
</mgrwt>
</event>
<event>
 7    0  0.4748297E-002  0.4522572E+03  0.7546771E-02  0.1027051E+00
         21   -1    0    0  502  501  0.00000000000E+00  0.00000000000E+00  0.34480748309E+03  0.34480748309E+03  0.00000000000E+00 0. -1.
         21   -1    0    0  501  502 -0.00000000000E+00 -0.00000000000E+00 -0.14829765082E+03  0.14829765082E+03  0.00000000000E+00 0. -1.
      99926    2    1    2    0    0  0.00000000000E+00  0.88817841970E-15  0.19650983227E+03  0.49310513391E+03  0.45225718226E+03 0.  0.
      99925    2    3    3    0    0  0.87993025329E+02 -0.54717548160E+01  0.19629504321E+03  0.34006831860E+03  0.26332870090E+03 0.  0.
         25    1    3    3    0    0 -0.87993025329E+02  0.54717548160E+01  0.21478906438E+00  0.15303681531E+03  0.12509000000E+03 0.  0.
         25    1    4    4    0    0  0.40739204658E+02  0.14400392556E+02  0.14276380147E+03  0.19466911725E+03  0.12509000000E+03 0.  0.
         25    1    4    4    0    0  0.47253820670E+02 -0.19872147372E+02  0.53531241734E+02  0.14539920134E+03  0.12509000000E+03 0.  0.
<mgrwt>
<rscale>  2 0.45225718E+03</rscale>
<asrwt>0</asrwt>
<pdfrwt beam="1">  1       21 0.50706983E-01 0.45225718E+03</pdfrwt>
<pdfrwt beam="2">  1       21 0.21808478E-01 0.45225718E+03</pdfrwt>
<totfact> 0.67209346E+04</totfact>
</mgrwt>
</event>
<event>
 7    0  0.4748297E-002  0.4679909E+03  0.7546771E-02  0.1022489E+00
         21   -1    0    0  502  501  0.00000000000E+00  0.00000000000E+00  0.33925319957E+03  0.33925319957E+03  0.00000000000E+00 0.  1.
         21   -1    0    0  501  502 -0.00000000000E+00 -0.00000000000E+00 -0.16139526540E+03  0.16139526540E+03  0.00000000000E+00 0.  1.
      99926    2    1    2    0    0  0.00000000000E+00  0.14210854715E-13  0.17785793417E+03  0.50064846497E+03  0.46799085539E+03 0.  0.
      99925    2    3    3    0    0 -0.18905566326E+02 -0.88598227179E+02  0.18627425744E+02  0.27881760776E+03  0.26303081780E+03 0.  0.
         25    1    4    4    0    0  0.12519297991E+02 -0.43299412367E+02 -0.25064594915E+02  0.13530452303E+03  0.12509000000E+03 0.  0.
         25    1    4    4    0    0 -0.31424864317E+02 -0.45298814812E+02  0.43692020659E+02  0.14351308473E+03  0.12509000000E+03 0.  0.
         25    1    3    3    0    0  0.18905566326E+02  0.88598227179E+02  0.15923050842E+03  0.22183085721E+03  0.12509000000E+03 0.  0.
<mgrwt>
<rscale>  2 0.46799086E+03</rscale>
<asrwt>0</asrwt>
<pdfrwt beam="1">  1       21 0.49890176E-01 0.46799086E+03</pdfrwt>
<pdfrwt beam="2">  1       21 0.23734598E-01 0.46799086E+03</pdfrwt>
<totfact> 0.58911253E+04</totfact>
</mgrwt>
</event>
<event>
 7    0  0.4748297E-002  0.4572896E+03  0.7546771E-02  0.1025570E+00
         21   -1    0    0  502  501  0.00000000000E+00  0.00000000000E+00  0.72566927175E+03  0.72566927175E+03  0.00000000000E+00 0.  1.
         21   -1    0    0  501  502 -0.00000000000E+00 -0.00000000000E+00 -0.72041706559E+02  0.72041706559E+02  0.00000000000E+00 0.  1.
      99926    2    1    2    0    0  0.00000000000E+00  0.71054273576E-14  0.65362756519E+03  0.79771097831E+03  0.45728963572E+03 0.  0.
      99925    2    3    3    0    0  0.59088382640E+02 -0.38212993341E+02  0.56968893641E+03  0.63144350908E+03  0.26310406889E+03 0.  0.
         25    1    3    3    0    0 -0.59088382640E+02  0.38212993341E+02  0.83938628783E+02  0.16626746923E+03  0.12509000000E+03 0.  0.
         25    1    4    4    0    0  0.17631698379E+02 -0.40893343926E+02  0.21098893244E+03  0.24929296034E+03  0.12509000000E+03 0.  0.
         25    1    4    4    0    0  0.41456684261E+02  0.26803505856E+01  0.35870000397E+03  0.38215054873E+03  0.12509000000E+03 0.  0.
<mgrwt>
<rscale>  2 0.45728964E+03</rscale>
<asrwt>0</asrwt>
<pdfrwt beam="1">  1       21 0.10671607E+00 0.45728964E+03</pdfrwt>
<pdfrwt beam="2">  1       21 0.10594369E-01 0.45728964E+03</pdfrwt>
<totfact> 0.47025029E+04</totfact>
</mgrwt>
</event>
<event>
 7    0  0.4748297E-002  0.4518185E+03  0.7546771E-02  0.1027181E+00
         21   -1    0    0  502  501  0.00000000000E+00  0.00000000000E+00  0.16678747821E+03  0.16678747821E+03  0.00000000000E+00 0.  1.
         21   -1    0    0  501  502 -0.00000000000E+00 -0.00000000000E+00 -0.30598820077E+03  0.30598820077E+03  0.00000000000E+00 0.  1.
      99926    2    1    2    0    0  0.00000000000E+00 -0.14210854715E-13 -0.13920072256E+03  0.47277567898E+03  0.45181854928E+03 0.  0.
      99925    2    3    3    0    0 -0.36332292255E+02 -0.93488680547E+02 -0.41037961679E+02  0.28477673065E+03  0.26335053288E+03 0.  0.
         25    1    4    4    0    0  0.13953806155E+02 -0.38383475186E+02 -0.45018826060E+02  0.13907624770E+03  0.12509000000E+03 0.  0.
         25    1    4    4    0    0 -0.50286098410E+02 -0.55105205361E+02  0.39808643817E+01  0.14570048295E+03  0.12509000000E+03 0.  0.
         25    1    3    3    0    0  0.36332292255E+02  0.93488680547E+02 -0.98162760880E+02  0.18799894833E+03  0.12509000000E+03 0.  0.
<mgrwt>
<rscale>  2 0.45181855E+03</rscale>
<asrwt>0</asrwt>
<pdfrwt beam="1">  1       21 0.24527571E-01 0.45181855E+03</pdfrwt>
<pdfrwt beam="2">  1       21 0.44998264E-01 0.45181855E+03</pdfrwt>
<totfact> 0.68954381E+04</totfact>
</mgrwt>
</event>
<event>
 7    0  0.4748297E-002  0.4461052E+03  0.7546771E-02  0.1028890E+00
         21   -1    0    0  502  501  0.00000000000E+00  0.00000000000E+00  0.60081518888E+02  0.60081518888E+02  0.00000000000E+00 0.  1.
         21   -1    0    0  501  502 -0.00000000000E+00 -0.00000000000E+00 -0.82808271298E+03  0.82808271298E+03  0.00000000000E+00 0.  1.
      99926    2    1    2    0    0  0.00000000000E+00 -0.14210854715E-13 -0.76800119409E+03  0.88816423187E+03  0.44610522149E+03 0.  0.
      99925    2    3    3    0    0 -0.12072446411E+02 -0.10191203099E+03 -0.52508803836E+03  0.59629762647E+03  0.26328996425E+03 0.  0.
         25    1    4    4    0    0  0.11354408910E+01 -0.26266161476E+02 -0.17522980549E+03  0.21689673418E+03  0.12509000000E+03 0.  0.
         25    1    3    3    0    0  0.12072446411E+02  0.10191203099E+03 -0.24291315573E+03  0.29186660540E+03  0.12509000000E+03 0.  0.
         25    1    4    4    0    0 -0.13207887302E+02 -0.75645869512E+02 -0.34985823287E+03  0.37940089229E+03  0.12509000000E+03 0.  0.
<mgrwt>
<rscale>  2 0.44610522E+03</rscale>
<asrwt>0</asrwt>
<pdfrwt beam="1">  1       21 0.88355178E-02 0.44610522E+03</pdfrwt>
<pdfrwt beam="2">  1       21 0.12177687E+00 0.44610522E+03</pdfrwt>
<totfact> 0.46933723E+04</totfact>
</mgrwt>
</event>
<event>
 7    0  0.4748297E-002  0.4503861E+03  0.7546771E-02  0.1027607E+00
         21   -1    0    0  502  501  0.00000000000E+00  0.00000000000E+00  0.15960974911E+04  0.15960974911E+04  0.00000000000E+00 0. -1.
         21   -1    0    0  501  502 -0.00000000000E+00 -0.00000000000E+00 -0.31772439275E+02  0.31772439275E+02  0.00000000000E+00 0. -1.
      99926    2    1    2    0    0 -0.71054273576E-14  0.00000000000E+00  0.15643250518E+04  0.16278699304E+04  0.45038610375E+03 0.  0.
      99925    2    3    3    0    0 -0.61357132138E+02 -0.59371149567E+02  0.74492028179E+03  0.79458647541E+03  0.26300534142E+03 0.  0.
         25    1    4    4    0    0 -0.72299276887E+02 -0.33352810420E+02  0.40063700100E+03  0.42719680485E+03  0.12509000000E+03 0.  0.
         25    1    3    3    0    0  0.61357132138E+02  0.59371149567E+02  0.81940477003E+03  0.83328345496E+03  0.12509000000E+03 0.  0.
         25    1    4    4    0    0  0.10942144748E+02 -0.26018339147E+02  0.34428328079E+03  0.36738967056E+03  0.12509000000E+03 0.  0.
<mgrwt>
<rscale>  2 0.45038610E+03</rscale>
<asrwt>0</asrwt>
<pdfrwt beam="1">  1       21 0.23472016E+00 0.45038610E+03</pdfrwt>
<pdfrwt beam="2">  1       21 0.46724186E-02 0.45038610E+03</pdfrwt>
<totfact> 0.21569710E+04</totfact>
</mgrwt>
</event>
<event>
 7    0  0.4748297E-002  0.4483910E+03  0.7546771E-02  0.1028203E+00
         21   -1    0    0  502  501  0.00000000000E+00  0.00000000000E+00  0.71455555211E+02  0.71455555211E+02  0.00000000000E+00 0. -1.
         21   -1    0    0  501  502 -0.00000000000E+00 -0.00000000000E+00 -0.70342493230E+03  0.70342493230E+03  0.00000000000E+00 0. -1.
      99926    2    1    2    0    0  0.00000000000E+00  0.00000000000E+00 -0.63196937709E+03  0.77488048751E+03  0.44839098602E+03 0.  0.
      99925    2    3    3    0    0  0.32942865011E+02 -0.10126092716E+03 -0.38275583255E+03  0.47639446337E+03  0.26288904438E+03 0.  0.
         25    1    4    4    0    0 -0.21205453554E+02 -0.36117168658E+02 -0.19453058096E+03  0.23503994589E+03  0.12509000000E+03 0.  0.
         25    1    3    3    0    0 -0.32942865011E+02  0.10126092716E+03 -0.24921354454E+03  0.29848602414E+03  0.12509000000E+03 0.  0.
         25    1    4    4    0    0  0.54148318566E+02 -0.65143758505E+02 -0.18822525159E+03  0.24135451749E+03  0.12509000000E+03 0.  0.
<mgrwt>
<rscale>  2 0.44839099E+03</rscale>
<asrwt>0</asrwt>
<pdfrwt beam="1">  1       21 0.10508170E-01 0.44839099E+03</pdfrwt>
<pdfrwt beam="2">  1       21 0.10344484E+00 0.44839099E+03</pdfrwt>
<totfact> 0.51630719E+04</totfact>
</mgrwt>
</event>
<event>
 7    0  0.4748297E-002  0.4596599E+03  0.7546771E-02  0.1024880E+00
         21   -1    0    0  502  501  0.00000000000E+00  0.00000000000E+00  0.70815988181E+02  0.70815988181E+02  0.00000000000E+00 0.  1.
         21   -1    0    0  501  502 -0.00000000000E+00 -0.00000000000E+00 -0.74590229218E+03  0.74590229218E+03  0.00000000000E+00 0.  1.
      99926    2    1    2    0    0  0.00000000000E+00  0.00000000000E+00 -0.67508630400E+03  0.81671828036E+03  0.45965990866E+03 0.  0.
      99925    2    3    3    0    0 -0.83085898200E+02  0.62549994160E+02 -0.32594912251E+03  0.43154293348E+03  0.26300324089E+03 0.  0.
         25    1    4    4    0    0 -0.64878043509E+02  0.10917586465E+02 -0.20581841436E+03  0.24967395141E+03  0.12509000000E+03 0.  0.
         25    1    4    4    0    0 -0.18207854690E+02  0.51632407695E+02 -0.12013070815E+03  0.18186898206E+03  0.12509000000E+03 0.  0.
         25    1    3    3    0    0  0.83085898200E+02 -0.62549994160E+02 -0.34913718149E+03  0.38517534688E+03  0.12509000000E+03 0.  0.
<mgrwt>
<rscale>  2 0.45965991E+03</rscale>
<asrwt>0</asrwt>
<pdfrwt beam="1">  1       21 0.10414116E-01 0.45965991E+03</pdfrwt>
<pdfrwt beam="2">  1       21 0.10969151E+00 0.45965991E+03</pdfrwt>
<totfact> 0.45287949E+04</totfact>
</mgrwt>
</event>
<event>
 7    0  0.4748297E-002  0.4549459E+03  0.7546771E-02  0.1026257E+00
         21   -1    0    0  502  501  0.00000000000E+00  0.00000000000E+00  0.19001748715E+03  0.19001748715E+03  0.00000000000E+00 0.  1.
         21   -1    0    0  501  502 -0.00000000000E+00 -0.00000000000E+00 -0.27231150269E+03  0.27231150269E+03  0.00000000000E+00 0.  1.
      99926    2    1    2    0    0  0.00000000000E+00  0.00000000000E+00 -0.82294015539E+02  0.46232898984E+03  0.45494591971E+03 0.  0.
      99925    2    3    3    0    0  0.85854745544E+02  0.57958627355E+01  0.22832619938E+02  0.27765699158E+03  0.26299704767E+03 0.  0.
         25    1    3    3    0    0 -0.85854745544E+02 -0.57958627355E+01 -0.10512663548E+03  0.18467199827E+03  0.12509000000E+03 0.  0.
         25    1    4    4    0    0  0.37213398757E+02 -0.19422416232E+01  0.51294488002E+02  0.14023994420E+03  0.12509000000E+03 0.  0.
         25    1    4    4    0    0  0.48641346787E+02  0.77381043586E+01 -0.28461868063E+02  0.13741704738E+03  0.12509000000E+03 0.  0.
<mgrwt>
<rscale>  2 0.45494592E+03</rscale>
<asrwt>0</asrwt>
<pdfrwt beam="1">  1       21 0.27943748E-01 0.45494592E+03</pdfrwt>
<pdfrwt beam="2">  1       21 0.40045809E-01 0.45494592E+03</pdfrwt>
<totfact> 0.68038105E+04</totfact>
</mgrwt>
</event>
<event>
 7    0  0.4748297E-002  0.4560500E+03  0.7546771E-02  0.1025933E+00
         21   -1    0    0  502  501  0.00000000000E+00  0.00000000000E+00  0.54585262540E+02  0.54585262540E+02  0.00000000000E+00 0. -1.
         21   -1    0    0  501  502 -0.00000000000E+00 -0.00000000000E+00 -0.95255400150E+03  0.95255400150E+03  0.00000000000E+00 0. -1.
      99926    2    1    2    0    0 -0.71054273576E-14  0.00000000000E+00 -0.89796873896E+03  0.10071392640E+04  0.45605004224E+03 0.  0.
      99925    2    3    3    0    0  0.55557383573E+02  0.45951591336E+02 -0.36921801573E+03  0.45903069174E+03  0.26303813640E+03 0.  0.
         25    1    4    4    0    0  0.51025805621E+02  0.25501907136E+02 -0.13503018606E+03  0.19270350115E+03  0.12509000000E+03 0.  0.
         25    1    4    4    0    0  0.45315779528E+01  0.20449684200E+02 -0.23418782967E+03  0.26632719059E+03  0.12509000000E+03 0.  0.
         25    1    3    3    0    0 -0.55557383573E+02 -0.45951591336E+02 -0.52875072323E+03  0.54810857231E+03  0.12509000000E+03 0.  0.
<mgrwt>
<rscale>  2 0.45605004E+03</rscale>
<asrwt>0</asrwt>
<pdfrwt beam="1">  1       21 0.80272453E-02 0.45605004E+03</pdfrwt>
<pdfrwt beam="2">  1       21 0.14008146E+00 0.45605004E+03</pdfrwt>
<totfact> 0.38572986E+04</totfact>
</mgrwt>
</event>
<event>
 7    0  0.4748297E-002  0.4503796E+03  0.7546771E-02  0.1027609E+00
         21   -1    0    0  502  501  0.00000000000E+00  0.00000000000E+00  0.11151050785E+03  0.11151050785E+03  0.00000000000E+00 0.  1.
         21   -1    0    0  501  502 -0.00000000000E+00 -0.00000000000E+00 -0.45475926561E+03  0.45475926561E+03  0.00000000000E+00 0.  1.
      99926    2    1    2    0    0  0.14210854715E-13 -0.71054273576E-14 -0.34324875776E+03  0.56626977346E+03  0.45037955841E+03 0.  0.
      99925    2    3    3    0    0  0.90890144391E+02 -0.50217977308E+02 -0.25788693660E+03  0.38264784611E+03  0.26292743956E+03 0.  0.
         25    1    4    4    0    0  0.70185195926E+02 -0.59395068425E+02 -0.15082204142E+03  0.21644521745E+03  0.12509000000E+03 0.  0.
         25    1    3    3    0    0 -0.90890144391E+02  0.50217977308E+02 -0.85361821166E+02  0.18362192735E+03  0.12509000000E+03 0.  0.
         25    1    4    4    0    0  0.20704948464E+02  0.91770911170E+01 -0.10706489518E+03  0.16620262866E+03  0.12509000000E+03 0.  0.
<mgrwt>
<rscale>  2 0.45037956E+03</rscale>
<asrwt>0</asrwt>
<pdfrwt beam="1">  1       21 0.16398604E-01 0.45037956E+03</pdfrwt>
<pdfrwt beam="2">  1       21 0.66876364E-01 0.45037956E+03</pdfrwt>
<totfact> 0.63077522E+04</totfact>
</mgrwt>
</event>
<event>
 7    0  0.4748297E-002  0.4434824E+03  0.7546771E-02  0.1029684E+00
         21   -1    0    0  502  501  0.00000000000E+00  0.00000000000E+00  0.33726120870E+03  0.33726120870E+03  0.00000000000E+00 0.  1.
         21   -1    0    0  501  502 -0.00000000000E+00 -0.00000000000E+00 -0.14578957074E+03  0.14578957074E+03  0.00000000000E+00 0.  1.
      99926    2    1    2    0    0  0.00000000000E+00 -0.88817841970E-15  0.19147163796E+03  0.48305077944E+03  0.44348243187E+03 0.  0.
      99925    2    3    3    0    0 -0.82909491372E+02  0.63605681010E+01  0.18611026803E+03  0.33274877355E+03  0.26300242176E+03 0.  0.
         25    1    4    4    0    0 -0.15892465761E+02 -0.24293089332E+02  0.66340774814E+02  0.14453833803E+03  0.12509000000E+03 0.  0.
         25    1    3    3    0    0  0.82909491372E+02 -0.63605681010E+01  0.53613699369E+01  0.15030200589E+03  0.12509000000E+03 0.  0.
         25    1    4    4    0    0 -0.67017025611E+02  0.30653657433E+02  0.11976949321E+03  0.18821043552E+03  0.12509000000E+03 0.  0.
<mgrwt>
<rscale>  2 0.44348243E+03</rscale>
<asrwt>0</asrwt>
<pdfrwt beam="1">  1       21 0.49597236E-01 0.44348243E+03</pdfrwt>
<pdfrwt beam="2">  1       21 0.21439643E-01 0.44348243E+03</pdfrwt>
<totfact> 0.72921531E+04</totfact>
</mgrwt>
</event>
<event>
 7    0  0.4748297E-002  0.4448058E+03  0.7546771E-02  0.1029282E+00
         21   -1    0    0  502  501  0.00000000000E+00  0.00000000000E+00  0.46590333215E+02  0.46590333215E+02  0.00000000000E+00 0.  1.
         21   -1    0    0  501  502 -0.00000000000E+00 -0.00000000000E+00 -0.10616589678E+04  0.10616589678E+04  0.00000000000E+00 0.  1.
      99926    2    1    2    0    0  0.00000000000E+00  0.35527136788E-14 -0.10150686346E+04  0.11082493010E+04  0.44480577815E+03 0.  0.
      99925    2    3    3    0    0  0.25112367945E+02 -0.30850291053E+02 -0.88241910998E+03  0.92163264591E+03  0.26298455634E+03 0.  0.
         25    1    4    4    0    0  0.17608905648E+02  0.46131921707E+00 -0.56477820868E+03  0.57873328872E+03  0.12509000000E+03 0.  0.
         25    1    3    3    0    0 -0.25112367945E+02  0.30850291053E+02 -0.13264952459E+03  0.18661665509E+03  0.12509000000E+03 0.  0.
         25    1    4    4    0    0  0.75034622970E+01 -0.31311610270E+02 -0.31764090130E+03  0.34289935719E+03  0.12509000000E+03 0.  0.
<mgrwt>
<rscale>  2 0.44480578E+03</rscale>
<asrwt>0</asrwt>
<pdfrwt beam="1">  1       21 0.68515204E-02 0.44480578E+03</pdfrwt>
<pdfrwt beam="2">  1       21 0.15612630E+00 0.44480578E+03</pdfrwt>
<totfact> 0.38150655E+04</totfact>
</mgrwt>
</event>
<event>
 7    0  0.4748297E-002  0.4532939E+03  0.7546771E-02  0.1026744E+00
         21   -1    0    0  502  501  0.00000000000E+00  0.00000000000E+00  0.27859544969E+03  0.27859544969E+03  0.00000000000E+00 0. -1.
         21   -1    0    0  501  502 -0.00000000000E+00 -0.00000000000E+00 -0.18438505629E+03  0.18438505629E+03  0.00000000000E+00 0. -1.
      99926    2    1    2    0    0 -0.14210854715E-13  0.00000000000E+00  0.94210393394E+02  0.46298050598E+03  0.45329388998E+03 0.  0.
      99925    2    3    3    0    0  0.98386077744E+02 -0.33808330250E+02  0.10044150925E+03  0.30016417267E+03  0.26303461803E+03 0.  0.
         25    1    4    4    0    0  0.54638476636E+02 -0.43998351726E+02  0.84088041771E+02  0.16625139083E+03  0.12509000000E+03 0.  0.
         25    1    3    3    0    0 -0.98386077744E+02  0.33808330250E+02 -0.62311158582E+01  0.16281633331E+03  0.12509000000E+03 0.  0.
         25    1    4    4    0    0  0.43747601109E+02  0.10190021476E+02  0.16353467481E+02  0.13391278184E+03  0.12509000000E+03 0.  0.
<mgrwt>
<rscale>  2 0.45329389E+03</rscale>
<asrwt>0</asrwt>
<pdfrwt beam="1">  1       21 0.40969919E-01 0.45329389E+03</pdfrwt>
<pdfrwt beam="2">  1       21 0.27115449E-01 0.45329389E+03</pdfrwt>
<totfact> 0.68889715E+04</totfact>
</mgrwt>
</event>
<event>
 7    0  0.4748297E-002  0.4540460E+03  0.7546771E-02  0.1026522E+00
         21   -1    0    0  502  501  0.00000000000E+00  0.00000000000E+00  0.97178237734E+02  0.97178237734E+02  0.00000000000E+00 0.  1.
         21   -1    0    0  501  502 -0.00000000000E+00 -0.00000000000E+00 -0.53035986061E+03  0.53035986061E+03  0.00000000000E+00 0.  1.
      99926    2    1    2    0    0 -0.88817841970E-15  0.00000000000E+00 -0.43318162288E+03  0.62753809835E+03  0.45404597397E+03 0.  0.
      99925    2    3    3    0    0 -0.76263663064E+01 -0.46006289993E+02 -0.13171215810E+03  0.29783203763E+03  0.26302298353E+03 0.  0.
         25    1    4    4    0    0 -0.11265812076E+02  0.14476829350E+02 -0.79555921092E+02  0.14937586750E+03  0.12509000000E+03 0.  0.
         25    1    3    3    0    0  0.76263663064E+01  0.46006289993E+02 -0.30146946478E+03  0.32970606072E+03  0.12509000000E+03 0.  0.
         25    1    4    4    0    0  0.36394457691E+01 -0.60483119343E+02 -0.52156237011E+02  0.14845617013E+03  0.12509000000E+03 0.  0.
<mgrwt>
<rscale>  2 0.45404597E+03</rscale>
<asrwt>0</asrwt>
<pdfrwt beam="1">  1       21 0.14290917E-01 0.45404597E+03</pdfrwt>
<pdfrwt beam="2">  1       21 0.77994097E-01 0.45404597E+03</pdfrwt>
<totfact> 0.57445893E+04</totfact>
</mgrwt>
</event>
<event>
 7    0  0.4748297E-002  0.4446275E+03  0.7546771E-02  0.1029336E+00
         21   -1    0    0  502  501  0.00000000000E+00  0.00000000000E+00  0.44136950668E+03  0.44136950668E+03  0.00000000000E+00 0.  1.
         21   -1    0    0  501  502 -0.00000000000E+00 -0.00000000000E+00 -0.11197737121E+03  0.11197737121E+03  0.00000000000E+00 0.  1.
      99926    2    1    2    0    0 -0.18873791419E-14  0.00000000000E+00  0.32939213546E+03  0.55334687789E+03  0.44462747145E+03 0.  0.
      99925    2    3    3    0    0  0.99974136758E+00  0.41022025152E+02  0.91572396882E+02  0.28152056903E+03  0.26302950573E+03 0.  0.
         25    1    4    4    0    0  0.28639363670E+02 -0.61644583733E+01  0.57837254396E+02  0.14089311479E+03  0.12509000000E+03 0.  0.
         25    1    4    4    0    0 -0.27639622303E+02  0.47186483526E+02  0.33735142486E+02  0.14062745424E+03  0.12509000000E+03 0.  0.
         25    1    3    3    0    0 -0.99974136758E+00 -0.41022025152E+02  0.23781973858E+03  0.27182630886E+03  0.12509000000E+03 0.  0.
<mgrwt>
<rscale>  2 0.44462747E+03</rscale>
<asrwt>0</asrwt>
<pdfrwt beam="1">  1       21 0.64907280E-01 0.44462747E+03</pdfrwt>
<pdfrwt beam="2">  1       21 0.16467261E-01 0.44462747E+03</pdfrwt>
<totfact> 0.66974838E+04</totfact>
</mgrwt>
</event>
<event>
 7    0  0.4748297E-002  0.4497552E+03  0.7546771E-02  0.1027795E+00
         21   -1    0    0  502  501  0.00000000000E+00  0.00000000000E+00  0.14566131094E+03  0.14566131094E+03  0.00000000000E+00 0.  1.
         21   -1    0    0  501  502 -0.00000000000E+00 -0.00000000000E+00 -0.34717481436E+03  0.34717481436E+03  0.00000000000E+00 0.  1.
      99926    2    1    2    0    0  0.14210854715E-13 -0.35527136788E-14 -0.20151350342E+03  0.49283612531E+03  0.44975521603E+03 0.  0.
      99925    2    3    3    0    0 -0.72011088401E+02  0.27069742178E+02 -0.44180216718E+02  0.27761614715E+03  0.26305981414E+03 0.  0.
         25    1    4    4    0    0 -0.52339321466E+02 -0.20811738865E+02 -0.76641274730E+01  0.13740007277E+03  0.12509000000E+03 0.  0.
         25    1    4    4    0    0 -0.19671766935E+02  0.47881481043E+02 -0.36516089245E+02  0.14021607438E+03  0.12509000000E+03 0.  0.
         25    1    3    3    0    0  0.72011088401E+02 -0.27069742178E+02 -0.15733328670E+03  0.21521997816E+03  0.12509000000E+03 0.  0.
<mgrwt>
<rscale>  2 0.44975522E+03</rscale>
<asrwt>0</asrwt>
<pdfrwt beam="1">  1       21 0.21420781E-01 0.44975522E+03</pdfrwt>
<pdfrwt beam="2">  1       21 0.51055119E-01 0.44975522E+03</pdfrwt>
<totfact> 0.68588472E+04</totfact>
</mgrwt>
</event>
<event>
 7    0  0.4748297E-002  0.4460025E+03  0.7546771E-02  0.1028921E+00
         21   -1    0    0  502  501  0.00000000000E+00  0.00000000000E+00  0.43869228220E+02  0.43869228220E+02  0.00000000000E+00 0.  1.
         21   -1    0    0  501  502 -0.00000000000E+00 -0.00000000000E+00 -0.11335864064E+04  0.11335864064E+04  0.00000000000E+00 0.  1.
      99926    2    1    2    0    0  0.00000000000E+00  0.00000000000E+00 -0.10897171781E+04  0.11774556346E+04  0.44600251464E+03 0.  0.
      99925    2    3    3    0    0 -0.57430081576E+01  0.41900028051E+02 -0.94378095654E+03  0.98064739449E+03  0.26297951230E+03 0.  0.
         25    1    4    4    0    0 -0.21456546387E+02 -0.13560044347E+02 -0.49621067290E+03  0.51236393139E+03  0.12509000000E+03 0.  0.
         25    1    3    3    0    0  0.57430081576E+01 -0.41900028051E+02 -0.14593622159E+03  0.19680824008E+03  0.12509000000E+03 0.  0.
         25    1    4    4    0    0  0.15713538229E+02  0.55460072398E+02 -0.44757028364E+03  0.46828346310E+03  0.12509000000E+03 0.  0.
<mgrwt>
<rscale>  2 0.44600251E+03</rscale>
<asrwt>0</asrwt>
<pdfrwt beam="1">  1       21 0.64513577E-02 0.44600251E+03</pdfrwt>
<pdfrwt beam="2">  1       21 0.16670387E+00 0.44600251E+03</pdfrwt>
<totfact> 0.35288523E+04</totfact>
</mgrwt>
</event>
<event>
 7    0  0.4748297E-002  0.4107264E+03  0.7546771E-02  0.1040128E+00
         21   -1    0    0  502  501  0.00000000000E+00  0.00000000000E+00  0.11208432892E+04  0.11208432892E+04  0.00000000000E+00 0.  1.
         21   -1    0    0  501  502 -0.00000000000E+00 -0.00000000000E+00 -0.37627060708E+02  0.37627060708E+02  0.00000000000E+00 0.  1.
      99926    2    1    2    0    0  0.00000000000E+00  0.00000000000E+00  0.10832162285E+04  0.11584703499E+04  0.41072637356E+03 0.  0.
      99925    2    3    3    0    0  0.14748916018E+02  0.12019429926E+02  0.54347205958E+03  0.60409387747E+03  0.26306945096E+03 0.  0.
         25    1    4    4    0    0  0.62648932558E+01 -0.25274861153E+02  0.20911576693E+03  0.24506117517E+03  0.12509000000E+03 0.  0.
         25    1    4    4    0    0  0.84840227621E+01  0.37294291078E+02  0.33435629264E+03  0.35903270230E+03  0.12509000000E+03 0.  0.
         25    1    3    3    0    0 -0.14748916018E+02 -0.12019429926E+02  0.53974416888E+03  0.55437647240E+03  0.12509000000E+03 0.  0.
<mgrwt>
<rscale>  2 0.41072637E+03</rscale>
<asrwt>0</asrwt>
<pdfrwt beam="1">  1       21 0.16482987E+00 0.41072637E+03</pdfrwt>
<pdfrwt beam="2">  1       21 0.55333920E-02 0.41072637E+03</pdfrwt>
<totfact> 0.48059730E+04</totfact>
</mgrwt>
</event>
<event>
 7    0  0.4748297E-002  0.4570222E+03  0.7546771E-02  0.1025648E+00
         21   -1    0    0  502  501  0.00000000000E+00  0.00000000000E+00  0.29581717354E+02  0.29581717354E+02  0.00000000000E+00 0.  1.
         21   -1    0    0  501  502 -0.00000000000E+00 -0.00000000000E+00 -0.17651894086E+04  0.17651894086E+04  0.00000000000E+00 0.  1.
      99926    2    1    2    0    0  0.00000000000E+00  0.26645352591E-14 -0.17356076912E+04  0.17947711259E+04  0.45702224962E+03 0.  0.
      99925    2    3    3    0    0 -0.11045460007E+03 -0.46146488933E+01 -0.96545973354E+03  0.10067375616E+04  0.26303328158E+03 0.  0.
         25    1    3    3    0    0  0.11045460007E+03  0.46146488933E+01 -0.77014795770E+03  0.78803356433E+03  0.12509000000E+03 0.  0.
         25    1    4    4    0    0 -0.61364528428E+02  0.22949862485E+02 -0.37907609044E+03  0.40452254817E+03  0.12509000000E+03 0.  0.
         25    1    4    4    0    0 -0.49090071647E+02 -0.27564511379E+02 -0.58638364310E+03  0.60221501344E+03  0.12509000000E+03 0.  0.
<mgrwt>
<rscale>  2 0.45702225E+03</rscale>
<asrwt>0</asrwt>
<pdfrwt beam="1">  1       21 0.43502527E-02 0.45702225E+03</pdfrwt>
<pdfrwt beam="2">  1       21 0.25958667E+00 0.45702225E+03</pdfrwt>
<totfact> 0.17090241E+04</totfact>
</mgrwt>
</event>
<event>
 7    0  0.4748297E-002  0.4550160E+03  0.7546771E-02  0.1026237E+00
         21   -1    0    0  502  501  0.00000000000E+00  0.00000000000E+00  0.33243142215E+03  0.33243142215E+03  0.00000000000E+00 0. -1.
         21   -1    0    0  501  502 -0.00000000000E+00 -0.00000000000E+00 -0.15570098573E+03  0.15570098573E+03  0.00000000000E+00 0. -1.
      99926    2    1    2    0    0  0.00000000000E+00  0.00000000000E+00  0.17673043642E+03  0.48813240789E+03  0.45501604419E+03 0.  0.
      99925    2    3    3    0    0  0.71220853860E+02 -0.37606539898E+02  0.25684786542E+02  0.27612071407E+03  0.26286171005E+03 0.  0.
         25    1    4    4    0    0 -0.56672617009E+01 -0.22982674326E+02  0.14682460640E+02  0.12815382915E+03  0.12509000000E+03 0.  0.
         25    1    3    3    0    0 -0.71220853860E+02  0.37606539898E+02  0.15104564988E+03  0.21201169382E+03  0.12509000000E+03 0.  0.
         25    1    4    4    0    0  0.76888115561E+02 -0.14623865571E+02  0.11002325902E+02  0.14796688492E+03  0.12509000000E+03 0.  0.
<mgrwt>
<rscale>  2 0.45501604E+03</rscale>
<asrwt>0</asrwt>
<pdfrwt beam="1">  1       21 0.48886974E-01 0.45501604E+03</pdfrwt>
<pdfrwt beam="2">  1       21 0.22897204E-01 0.45501604E+03</pdfrwt>
<totfact> 0.66104297E+04</totfact>
</mgrwt>
</event>
<event>
 7    0  0.4748297E-002  0.4720733E+03  0.7546771E-02  0.1021337E+00
         21   -1    0    0  502  501  0.00000000000E+00  0.00000000000E+00  0.48472010677E+02  0.48472010677E+02  0.00000000000E+00 0. -1.
         21   -1    0    0  501  502 -0.00000000000E+00 -0.00000000000E+00 -0.11493913184E+04  0.11493913184E+04  0.00000000000E+00 0. -1.
      99926    2    1    2    0    0  0.14210854715E-13  0.71054273576E-14 -0.11009193078E+04  0.11978633291E+04  0.47207333439E+03 0.  0.
      99925    2    3    3    0    0  0.97119723687E+02  0.53395717532E+02 -0.51763182615E+03  0.59110543862E+03  0.26302012991E+03 0.  0.
         25    1    3    3    0    0 -0.97119723687E+02 -0.53395717532E+02 -0.58328748162E+03  0.60675789050E+03  0.12509000000E+03 0.  0.
         25    1    4    4    0    0  0.68590799442E+02  0.50376787660E+02 -0.22019888087E+03  0.26716581694E+03  0.12509000000E+03 0.  0.
         25    1    4    4    0    0  0.28528924245E+02  0.30189298725E+01 -0.29743294528E+03  0.32393962168E+03  0.12509000000E+03 0.  0.
<mgrwt>
<rscale>  2 0.47207333E+03</rscale>
<asrwt>0</asrwt>
<pdfrwt beam="1">  1       21 0.71282365E-02 0.47207333E+03</pdfrwt>
<pdfrwt beam="2">  1       21 0.16902814E+00 0.47207333E+03</pdfrwt>
<totfact> 0.28272021E+04</totfact>
</mgrwt>
</event>
<event>
 7    0  0.4748297E-002  0.4383733E+03  0.7546771E-02  0.1031247E+00
         21   -1    0    0  502  501  0.00000000000E+00  0.00000000000E+00  0.12900575670E+04  0.12900575670E+04  0.00000000000E+00 0.  1.
         21   -1    0    0  501  502 -0.00000000000E+00 -0.00000000000E+00 -0.37240808257E+02  0.37240808257E+02  0.00000000000E+00 0.  1.
      99926    2    1    2    0    0  0.00000000000E+00  0.35527136788E-14  0.12528167588E+04  0.13272983753E+04  0.43837329524E+03 0.  0.
      99925    2    3    3    0    0 -0.89816857176E+02 -0.19619984806E+02  0.71054446096E+03  0.76324273555E+03  0.26308559585E+03 0.  0.
         25    1    3    3    0    0  0.89816857176E+02  0.19619984806E+02  0.54227229780E+03  0.56405563972E+03  0.12509000000E+03 0.  0.
         25    1    4    4    0    0 -0.16393788368E+02 -0.39498282394E+02  0.32771210401E+03  0.35337176149E+03  0.12509000000E+03 0.  0.
         25    1    4    4    0    0 -0.73423068808E+02  0.19878297588E+02  0.38283235695E+03  0.40987097406E+03  0.12509000000E+03 0.  0.
<mgrwt>
<rscale>  2 0.43837330E+03</rscale>
<asrwt>0</asrwt>
<pdfrwt beam="1">  1       21 0.18971432E+00 0.43837330E+03</pdfrwt>
<pdfrwt beam="2">  1       21 0.54765903E-02 0.43837330E+03</pdfrwt>
<totfact> 0.32311981E+04</totfact>
</mgrwt>
</event>
<event>
 7    0  0.4748297E-002  0.4547843E+03  0.7546771E-02  0.1026305E+00
         21   -1    0    0  502  501  0.00000000000E+00  0.00000000000E+00  0.82586465285E+03  0.82586465285E+03  0.00000000000E+00 0.  1.
         21   -1    0    0  501  502 -0.00000000000E+00 -0.00000000000E+00 -0.62609757038E+02  0.62609757038E+02  0.00000000000E+00 0.  1.
      99926    2    1    2    0    0  0.35527136788E-14  0.00000000000E+00  0.76325489581E+03  0.88847440989E+03  0.45478427968E+03 0.  0.
      99925    2    3    3    0    0 -0.21745076387E+02 -0.10954632143E+03  0.51405483609E+03  0.58810559867E+03  0.26294975908E+03 0.  0.
         25    1    4    4    0    0  0.13249483668E+02 -0.84874902938E+02  0.30667320638E+03  0.34216262446E+03  0.12509000000E+03 0.  0.
         25    1    3    3    0    0  0.21745076387E+02  0.10954632143E+03  0.24920005973E+03  0.30036881122E+03  0.12509000000E+03 0.  0.
         25    1    4    4    0    0 -0.34994560055E+02 -0.24671418488E+02  0.20738162970E+03  0.24594297421E+03  0.12509000000E+03 0.  0.
<mgrwt>
<rscale>  2 0.45478428E+03</rscale>
<asrwt>0</asrwt>
<pdfrwt beam="1">  1       21 0.12145068E+00 0.45478428E+03</pdfrwt>
<pdfrwt beam="2">  1       21 0.92073177E-02 0.45478428E+03</pdfrwt>
<totfact> 0.43809734E+04</totfact>
</mgrwt>
</event>
<event>
 7    0  0.4748297E-002  0.4538726E+03  0.7546771E-02  0.1026573E+00
         21   -1    0    0  502  501  0.00000000000E+00  0.00000000000E+00  0.98886599012E+03  0.98886599012E+03  0.00000000000E+00 0.  1.
         21   -1    0    0  501  502 -0.00000000000E+00 -0.00000000000E+00 -0.52079931866E+02  0.52079931866E+02  0.00000000000E+00 0.  1.
      99926    2    1    2    0    0  0.00000000000E+00  0.14210854715E-13  0.93678605825E+03  0.10409459220E+04  0.45387255211E+03 0.  0.
      99925    2    3    3    0    0 -0.64803232897E+02 -0.62492188534E+02  0.43674294854E+03  0.51769134504E+03  0.26297374966E+03 0.  0.
         25    1    3    3    0    0  0.64803232897E+02  0.62492188534E+02  0.50004310971E+03  0.52325457694E+03  0.12509000000E+03 0.  0.
         25    1    4    4    0    0 -0.35048546530E+02 -0.36042921433E+02  0.29586390749E+03  0.32513143904E+03  0.12509000000E+03 0.  0.
         25    1    4    4    0    0 -0.29754686367E+02 -0.26449267101E+02  0.14087904106E+03  0.19255990600E+03  0.12509000000E+03 0.  0.
<mgrwt>
<rscale>  2 0.45387255E+03</rscale>
<asrwt>0</asrwt>
<pdfrwt beam="1">  1       21 0.14542146E+00 0.45387255E+03</pdfrwt>
<pdfrwt beam="2">  1       21 0.76588141E-02 0.45387255E+03</pdfrwt>
<totfact> 0.37944221E+04</totfact>
</mgrwt>
</event>
<event>
 7    0  0.4748297E-002  0.4435788E+03  0.7546771E-02  0.1029654E+00
         21   -1    0    0  502  501  0.00000000000E+00  0.00000000000E+00  0.14987427149E+03  0.14987427149E+03  0.00000000000E+00 0. -1.
         21   -1    0    0  501  502 -0.00000000000E+00 -0.00000000000E+00 -0.32821197901E+03  0.32821197901E+03  0.00000000000E+00 0. -1.
      99926    2    1    2    0    0  0.00000000000E+00  0.00000000000E+00 -0.17833770751E+03  0.47808625050E+03  0.44357876977E+03 0.  0.
      99925    2    3    3    0    0 -0.13369471140E+02  0.95825247923E+02 -0.77305656936E+02  0.29042644062E+03  0.26269779581E+03 0.  0.
         25    1    3    3    0    0  0.13369471140E+02 -0.95825247923E+02 -0.10103205058E+03  0.18765980987E+03  0.12509000000E+03 0.  0.
         25    1    4    4    0    0 -0.13424861690E+02  0.13416569513E+02 -0.12247687890E+02  0.12711311973E+03  0.12509000000E+03 0.  0.
         25    1    4    4    0    0  0.55390549279E-01  0.82408678409E+02 -0.65057969045E+02  0.16331332089E+03  0.12509000000E+03 0.  0.
<mgrwt>
<rscale>  2 0.44357877E+03</rscale>
<asrwt>0</asrwt>
<pdfrwt beam="1">  1       21 0.22040334E-01 0.44357877E+03</pdfrwt>
<pdfrwt beam="2">  1       21 0.48266467E-01 0.44357877E+03</pdfrwt>
<totfact> 0.73259802E+04</totfact>
</mgrwt>
</event>
<event>
 7    0  0.4748297E-002  0.4569639E+03  0.7546771E-02  0.1025665E+00
         21   -1    0    0  502  501  0.00000000000E+00  0.00000000000E+00  0.87229281849E+02  0.87229281849E+02  0.00000000000E+00 0. -1.
         21   -1    0    0  501  502 -0.00000000000E+00 -0.00000000000E+00 -0.59846884724E+03  0.59846884724E+03  0.00000000000E+00 0. -1.
      99926    2    1    2    0    0  0.00000000000E+00 -0.88817841970E-15 -0.51123956539E+03  0.68569812909E+03  0.45696392748E+03 0.  0.
      99925    2    3    3    0    0  0.48975189757E+02 -0.30204139717E+01 -0.16542648058E+03  0.31469692985E+03  0.26317398250E+03 0.  0.
         25    1    4    4    0    0 -0.60925269584E+01 -0.62126959069E+01 -0.11128987314E+03  0.16765637608E+03  0.12509000000E+03 0.  0.
         25    1    4    4    0    0  0.55067716716E+02  0.31922819351E+01 -0.54136607439E+02  0.14704055377E+03  0.12509000000E+03 0.  0.
         25    1    3    3    0    0 -0.48975189757E+02  0.30204139717E+01 -0.34581308481E+03  0.37100119925E+03  0.12509000000E+03 0.  0.
<mgrwt>
<rscale>  2 0.45696393E+03</rscale>
<asrwt>0</asrwt>
<pdfrwt beam="1">  1       21 0.12827835E-01 0.45696393E+03</pdfrwt>
<pdfrwt beam="2">  1       21 0.88010126E-01 0.45696393E+03</pdfrwt>
<totfact> 0.52864424E+04</totfact>
</mgrwt>
</event>
<event>
 7    0  0.4748297E-002  0.4539540E+03  0.7546771E-02  0.1026549E+00
         21   -1    0    0  502  501  0.00000000000E+00  0.00000000000E+00  0.17892650843E+03  0.17892650843E+03  0.00000000000E+00 0.  1.
         21   -1    0    0  501  502 -0.00000000000E+00 -0.00000000000E+00 -0.28793141132E+03  0.28793141132E+03  0.00000000000E+00 0.  1.
      99926    2    1    2    0    0  0.17763568394E-14 -0.35527136788E-14 -0.10900490289E+03  0.46685791975E+03  0.45395401571E+03 0.  0.
      99925    2    3    3    0    0 -0.10977579988E+02  0.28558521424E+02  0.42387613143E+02  0.26810355271E+03  0.26295761791E+03 0.  0.
         25    1    4    4    0    0  0.20622193968E+02 -0.15045256991E+02  0.31397361930E+02  0.13147219127E+03  0.12509000000E+03 0.  0.
         25    1    3    3    0    0  0.10977579988E+02 -0.28558521424E+02 -0.15139251603E+03  0.19875436704E+03  0.12509000000E+03 0.  0.
         25    1    4    4    0    0 -0.31599773956E+02  0.43603778415E+02  0.10990251212E+02  0.13663136144E+03  0.12509000000E+03 0.  0.
<mgrwt>
<rscale>  2 0.45395402E+03</rscale>
<asrwt>0</asrwt>
<pdfrwt beam="1">  1       21 0.26312722E-01 0.45395402E+03</pdfrwt>
<pdfrwt beam="2">  1       21 0.42342854E-01 0.45395402E+03</pdfrwt>
<totfact> 0.68234664E+04</totfact>
</mgrwt>
</event>
<event>
 7    0  0.4748297E-002  0.4394485E+03  0.7546771E-02  0.1030916E+00
         21   -1    0    0  502  501  0.00000000000E+00  0.00000000000E+00  0.23727033240E+03  0.23727033240E+03  0.00000000000E+00 0.  1.
         21   -1    0    0  501  502 -0.00000000000E+00 -0.00000000000E+00 -0.20347566267E+03  0.20347566267E+03  0.00000000000E+00 0.  1.
      99926    2    1    2    0    0  0.00000000000E+00 -0.44408920985E-15  0.33794669736E+02  0.44074599507E+03  0.43944846395E+03 0.  0.
      99925    2    3    3    0    0  0.30391120358E+02 -0.32384055331E+01 -0.71579841899E+02  0.27435668270E+03  0.26308517273E+03 0.  0.
         25    1    4    4    0    0  0.23938072072E+02 -0.15810677935E+02  0.23661995096E+01  0.12835932312E+03  0.12509000000E+03 0.  0.
         25    1    3    3    0    0 -0.30391120358E+02  0.32384055331E+01  0.10537451163E+03  0.16638931237E+03  0.12509000000E+03 0.  0.
         25    1    4    4    0    0  0.64530482864E+01  0.12572272401E+02 -0.73946041409E+02  0.14599735958E+03  0.12509000000E+03 0.  0.
<mgrwt>
<rscale>  2 0.43944846E+03</rscale>
<asrwt>0</asrwt>
<pdfrwt beam="1">  1       21 0.34892696E-01 0.43944846E+03</pdfrwt>
<pdfrwt beam="2">  1       21 0.29922891E-01 0.43944846E+03</pdfrwt>
<totfact> 0.78954217E+04</totfact>
</mgrwt>
</event>
<event>
 7    0  0.4748297E-002  0.4527667E+03  0.7546771E-02  0.1026900E+00
         21   -1    0    0  502  501  0.00000000000E+00  0.00000000000E+00  0.14138822331E+04  0.14138822331E+04  0.00000000000E+00 0.  1.
         21   -1    0    0  501  502 -0.00000000000E+00 -0.00000000000E+00 -0.36247303001E+02  0.36247303001E+02  0.00000000000E+00 0.  1.
      99926    2    1    2    0    0 -0.13322676296E-14 -0.35527136788E-14  0.13776349301E+04  0.14501295361E+04  0.45276668477E+03 0.  0.
      99925    2    3    3    0    0 -0.20326386730E+01 -0.16953156122E+02  0.12203292669E+04  0.12484264848E+04  0.26281862036E+03 0.  0.
         25    1    4    4    0    0 -0.35676629319E+02  0.86425323325E+01  0.55283866157E+03  0.56800141643E+03  0.12509000000E+03 0.  0.
         25    1    4    4    0    0  0.33643990646E+02 -0.25595688454E+02  0.66749060530E+03  0.68042506835E+03  0.12509000000E+03 0.  0.
         25    1    3    3    0    0  0.20326386730E+01  0.16953156122E+02  0.15730566318E+03  0.20170305127E+03  0.12509000000E+03 0.  0.
<mgrwt>
<rscale>  2 0.45276668E+03</rscale>
<asrwt>0</asrwt>
<pdfrwt beam="1">  1       21 0.20792382E+00 0.45276668E+03</pdfrwt>
<pdfrwt beam="2">  1       21 0.53304867E-02 0.45276668E+03</pdfrwt>
<totfact> 0.25465215E+04</totfact>
</mgrwt>
</event>
<event>
 7    0  0.4748297E-002  0.4512995E+03  0.7546771E-02  0.1027335E+00
         21   -1    0    0  502  501  0.00000000000E+00  0.00000000000E+00  0.27847045240E+03  0.27847045240E+03  0.00000000000E+00 0. -1.
         21   -1    0    0  501  502 -0.00000000000E+00 -0.00000000000E+00 -0.18284814314E+03  0.18284814314E+03  0.00000000000E+00 0. -1.
      99926    2    1    2    0    0  0.00000000000E+00  0.00000000000E+00  0.95622309263E+02  0.46131859554E+03  0.45129947990E+03 0.  0.
      99925    2    3    3    0    0 -0.59818455921E+02  0.50846468447E+02  0.13867653040E+03  0.30748496761E+03  0.26296808590E+03 0.  0.
         25    1    4    4    0    0 -0.34529068158E+02  0.21592330952E+02  0.24607066337E+02  0.13383385639E+03  0.12509000000E+03 0.  0.
         25    1    4    4    0    0 -0.25289387763E+02  0.29254137496E+02  0.11406946407E+03  0.17365111122E+03  0.12509000000E+03 0.  0.
         25    1    3    3    0    0  0.59818455921E+02 -0.50846468447E+02 -0.43054221142E+02  0.15383362792E+03  0.12509000000E+03 0.  0.
<mgrwt>
<rscale>  2 0.45129948E+03</rscale>
<asrwt>0</asrwt>
<pdfrwt beam="1">  1       21 0.40951537E-01 0.45129948E+03</pdfrwt>
<pdfrwt beam="2">  1       21 0.26889433E-01 0.45129948E+03</pdfrwt>
<totfact> 0.70123325E+04</totfact>
</mgrwt>
</event>
<event>
 7    0  0.4748297E-002  0.4591082E+03  0.7546771E-02  0.1025040E+00
         21   -1    0    0  502  501  0.00000000000E+00  0.00000000000E+00  0.42118528219E+02  0.42118528219E+02  0.00000000000E+00 0. -1.
         21   -1    0    0  501  502 -0.00000000000E+00 -0.00000000000E+00 -0.12511138799E+04  0.12511138799E+04  0.00000000000E+00 0. -1.
      99926    2    1    2    0    0  0.71054273576E-14  0.14210854715E-13 -0.12089953517E+04  0.12932324081E+04  0.45910815830E+03 0.  0.
      99925    2    3    3    0    0  0.47985738902E+02  0.77551542443E+02 -0.96465887462E+03  0.10039839077E+04  0.26286892104E+03 0.  0.
         25    1    3    3    0    0 -0.47985738902E+02 -0.77551542443E+02 -0.24433647703E+03  0.28924850040E+03  0.12509000000E+03 0.  0.
         25    1    4    4    0    0  0.60627908595E+02  0.24140754667E+02 -0.45859136796E+03  0.47980419986E+03  0.12509000000E+03 0.  0.
         25    1    4    4    0    0 -0.12642169693E+02  0.53410787777E+02 -0.50606750666E+03  0.52417970783E+03  0.12509000000E+03 0.  0.
<mgrwt>
<rscale>  2 0.45910816E+03</rscale>
<asrwt>0</asrwt>
<pdfrwt beam="1">  1       21 0.61939010E-02 0.45910816E+03</pdfrwt>
<pdfrwt beam="2">  1       21 0.18398734E+00 0.45910816E+03</pdfrwt>
<totfact> 0.28393539E+04</totfact>
</mgrwt>
</event>
<event>
 7    0  0.4748297E-002  0.4608590E+03  0.7546771E-02  0.1024532E+00
         21   -1    0    0  502  501  0.00000000000E+00  0.00000000000E+00  0.37923399312E+02  0.37923399312E+02  0.00000000000E+00 0. -1.
         21   -1    0    0  501  502 -0.00000000000E+00 -0.00000000000E+00 -0.14001316229E+04  0.14001316229E+04  0.00000000000E+00 0. -1.
      99926    2    1    2    0    0  0.00000000000E+00  0.00000000000E+00 -0.13622082236E+04  0.14380550222E+04  0.46085898331E+03 0.  0.
      99925    2    3    3    0    0 -0.53138349721E+02  0.10100106031E+03 -0.95367769428E+03  0.99582250433E+03  0.26293804815E+03 0.  0.
         25    1    4    4    0    0 -0.16669744437E+02  0.20178687609E+02 -0.53195856993E+03  0.54709458783E+03  0.12509000000E+03 0.  0.
         25    1    4    4    0    0 -0.36468605284E+02  0.80822372705E+02 -0.42171912435E+03  0.44872791650E+03  0.12509000000E+03 0.  0.
         25    1    3    3    0    0  0.53138349721E+02 -0.10100106031E+03 -0.40853052928E+03  0.44223251786E+03  0.12509000000E+03 0.  0.
<mgrwt>
<rscale>  2 0.46085898E+03</rscale>
<asrwt>0</asrwt>
<pdfrwt beam="1">  1       21 0.55769710E-02 0.46085898E+03</pdfrwt>
<pdfrwt beam="2">  1       21 0.20590169E+00 0.46085898E+03</pdfrwt>
<totfact> 0.24214122E+04</totfact>
</mgrwt>
</event>
<event>
 7    0  0.4748297E-002  0.4623792E+03  0.7546771E-02  0.1024093E+00
         21   -1    0    0  502  501  0.00000000000E+00  0.00000000000E+00  0.12356510468E+03  0.12356510468E+03  0.00000000000E+00 0. -1.
         21   -1    0    0  501  502 -0.00000000000E+00 -0.00000000000E+00 -0.43255437054E+03  0.43255437054E+03  0.00000000000E+00 0. -1.
      99926    2    1    2    0    0 -0.14210854715E-13  0.00000000000E+00 -0.30898926586E+03  0.55611947523E+03  0.46237917806E+03 0.  0.
      99925    2    3    3    0    0 -0.71425748059E+02  0.61367555808E+02 -0.28255536046E+03  0.39733070407E+03  0.26299532748E+03 0.  0.
         25    1    3    3    0    0  0.71425748059E+02 -0.61367555808E+02 -0.26433905401E+02  0.15878877116E+03  0.12509000000E+03 0.  0.
         25    1    4    4    0    0 -0.71175453806E+02  0.50133890449E+02 -0.17417944837E+03  0.23144187290E+03  0.12509000000E+03 0.  0.
         25    1    4    4    0    0 -0.25029425279E+00  0.11233665360E+02 -0.10837591209E+03  0.16588883117E+03  0.12509000000E+03 0.  0.
<mgrwt>
<rscale>  2 0.46237918E+03</rscale>
<asrwt>0</asrwt>
<pdfrwt beam="1">  1       21 0.18171339E-01 0.46237918E+03</pdfrwt>
<pdfrwt beam="2">  1       21 0.63610936E-01 0.46237918E+03</pdfrwt>
<totfact> 0.58003097E+04</totfact>
</mgrwt>
</event>
<event>
 7    0  0.4748297E-002  0.4485981E+03  0.7546771E-02  0.1028141E+00
         21   -1    0    0  502  501  0.00000000000E+00  0.00000000000E+00  0.10809000381E+04  0.10809000381E+04  0.00000000000E+00 0.  1.
         21   -1    0    0  501  502 -0.00000000000E+00 -0.00000000000E+00 -0.46544598987E+02  0.46544598987E+02  0.00000000000E+00 0.  1.
      99926    2    1    2    0    0  0.00000000000E+00  0.00000000000E+00  0.10343554391E+04  0.11274446371E+04  0.44859807766E+03 0.  0.
      99925    2    3    3    0    0 -0.97914410521E+02  0.25670759444E+02  0.74317999206E+03  0.79476330496E+03  0.26284214015E+03 0.  0.
         25    1    3    3    0    0  0.97914410521E+02 -0.25670759444E+02  0.29117544707E+03  0.33268133214E+03  0.12509000000E+03 0.  0.
         25    1    4    4    0    0 -0.86680216998E+01  0.14793126456E+02  0.29640179776E+03  0.32217309789E+03  0.12509000000E+03 0.  0.
         25    1    4    4    0    0 -0.89246388821E+02  0.10877632988E+02  0.44677819430E+03  0.47259020707E+03  0.12509000000E+03 0.  0.
<mgrwt>
<rscale>  2 0.44859808E+03</rscale>
<asrwt>0</asrwt>
<pdfrwt beam="1">  1       21 0.15895587E+00 0.44859808E+03</pdfrwt>
<pdfrwt beam="2">  1       21 0.68447947E-02 0.44859808E+03</pdfrwt>
<totfact> 0.36323631E+04</totfact>
</mgrwt>
</event>
<event>
 7    0  0.4748297E-002  0.4596990E+03  0.7546771E-02  0.1024869E+00
         21   -1    0    0  502  501  0.00000000000E+00  0.00000000000E+00  0.47148590379E+03  0.47148590379E+03  0.00000000000E+00 0.  1.
         21   -1    0    0  501  502 -0.00000000000E+00 -0.00000000000E+00 -0.11205169449E+03  0.11205169449E+03  0.00000000000E+00 0.  1.
      99926    2    1    2    0    0  0.00000000000E+00 -0.35527136788E-14  0.35943420930E+03  0.58353759829E+03  0.45969900783E+03 0.  0.
      99925    2    3    3    0    0 -0.65437299491E+02  0.16560934267E+02  0.34732149421E+03  0.44088231210E+03  0.26303742714E+03 0.  0.
         25    1    4    4    0    0  0.56932155380E+01  0.19734100723E+02  0.14521205759E+03  0.19275865014E+03  0.12509000000E+03 0.  0.
         25    1    4    4    0    0 -0.71130515029E+02 -0.31731664558E+01  0.20210943663E+03  0.24812366197E+03  0.12509000000E+03 0.  0.
         25    1    3    3    0    0  0.65437299491E+02 -0.16560934267E+02  0.12112715086E+02  0.14265528618E+03  0.12509000000E+03 0.  0.
<mgrwt>
<rscale>  2 0.45969901E+03</rscale>
<asrwt>0</asrwt>
<pdfrwt beam="1">  1       21 0.69336162E-01 0.45969901E+03</pdfrwt>
<pdfrwt beam="2">  1       21 0.16478190E-01 0.45969901E+03</pdfrwt>
<totfact> 0.57535983E+04</totfact>
</mgrwt>
</event>
<event>
 7    0  0.4748297E-002  0.4541322E+03  0.7546771E-02  0.1026497E+00
         21   -1    0    0  502  501  0.00000000000E+00  0.00000000000E+00  0.10532165141E+04  0.10532165141E+04  0.00000000000E+00 0. -1.
         21   -1    0    0  501  502 -0.00000000000E+00 -0.00000000000E+00 -0.48953867698E+02  0.48953867698E+02  0.00000000000E+00 0. -1.
      99926    2    1    2    0    0 -0.14210854715E-13  0.00000000000E+00  0.10042626464E+04  0.11021703818E+04  0.45413223575E+03 0.  0.
      99925    2    3    3    0    0  0.98925762616E+02  0.53198516447E+02  0.62684637216E+03  0.68900341697E+03  0.26300750111E+03 0.  0.
         25    1    3    3    0    0 -0.98925762616E+02 -0.53198516447E+02  0.37741627421E+03  0.41316696479E+03  0.12509000000E+03 0.  0.
         25    1    4    4    0    0  0.75154935608E+02  0.23221110025E+02  0.25373958794E+03  0.29363033032E+03  0.12509000000E+03 0.  0.
         25    1    4    4    0    0  0.23770827008E+02  0.29977406423E+02  0.37310678423E+03  0.39537308665E+03  0.12509000000E+03 0.  0.
<mgrwt>
<rscale>  2 0.45413224E+03</rscale>
<asrwt>0</asrwt>
<pdfrwt beam="1">  1       21 0.15488477E+00 0.45413224E+03</pdfrwt>
<pdfrwt beam="2">  1       21 0.71990989E-02 0.45413224E+03</pdfrwt>
<totfact> 0.35659821E+04</totfact>
</mgrwt>
</event>
<event>
 7    0  0.4748297E-002  0.4619085E+03  0.7546771E-02  0.1024229E+00
         21   -1    0    0  502  501  0.00000000000E+00  0.00000000000E+00  0.14430521055E+04  0.14430521055E+04  0.00000000000E+00 0. -1.
         21   -1    0    0  501  502 -0.00000000000E+00 -0.00000000000E+00 -0.36963235313E+02  0.36963235313E+02  0.00000000000E+00 0. -1.
      99926    2    1    2    0    0  0.71054273576E-14  0.00000000000E+00  0.14060888702E+04  0.14800153408E+04  0.46190853876E+03 0.  0.
      99925    2    3    3    0    0 -0.50568252186E+02 -0.95051930552E+02  0.71211156269E+03  0.76668229864E+03  0.26288182080E+03 0.  0.
         25    1    3    3    0    0  0.50568252186E+02  0.95051930552E+02  0.69397730753E+03  0.71333304220E+03  0.12509000000E+03 0.  0.
         25    1    4    4    0    0 -0.85282072147E+01 -0.83696459935E+02  0.34894745712E+03  0.38011796019E+03  0.12509000000E+03 0.  0.
         25    1    4    4    0    0 -0.42040044971E+02 -0.11355470617E+02  0.36316410556E+03  0.38656433845E+03  0.12509000000E+03 0.  0.
<mgrwt>
<rscale>  2 0.46190854E+03</rscale>
<asrwt>0</asrwt>
<pdfrwt beam="1">  1       21 0.21221351E+00 0.46190854E+03</pdfrwt>
<pdfrwt beam="2">  1       21 0.54357709E-02 0.46190854E+03</pdfrwt>
<totfact> 0.23013228E+04</totfact>
</mgrwt>
</event>
<event>
 7    0  0.4748297E-002  0.4545393E+03  0.7546771E-02  0.1026377E+00
         21   -1    0    0  502  501  0.00000000000E+00  0.00000000000E+00  0.10173593880E+03  0.10173593880E+03  0.00000000000E+00 0. -1.
         21   -1    0    0  501  502 -0.00000000000E+00 -0.00000000000E+00 -0.50770150662E+03  0.50770150662E+03  0.00000000000E+00 0. -1.
      99926    2    1    2    0    0  0.00000000000E+00  0.00000000000E+00 -0.40596556782E+03  0.60943744541E+03  0.45453928061E+03 0.  0.
      99925    2    3    3    0    0  0.30298077186E+02 -0.28823437401E+02 -0.11563187166E+03  0.29054886416E+03  0.26324731470E+03 0.  0.
         25    1    4    4    0    0  0.14444041248E+02 -0.55580139476E+02 -0.58593052715E+02  0.14959423839E+03  0.12509000000E+03 0.  0.
         25    1    3    3    0    0 -0.30298077186E+02  0.28823437401E+02 -0.29033369616E+03  0.31888858125E+03  0.12509000000E+03 0.  0.
         25    1    4    4    0    0  0.15854035938E+02  0.26756702075E+02 -0.57038818946E+02  0.14095462578E+03  0.12509000000E+03 0.  0.
<mgrwt>
<rscale>  2 0.45453928E+03</rscale>
<asrwt>0</asrwt>
<pdfrwt beam="1">  1       21 0.14961167E-01 0.45453928E+03</pdfrwt>
<pdfrwt beam="2">  1       21 0.74661986E-01 0.45453928E+03</pdfrwt>
<totfact> 0.58313024E+04</totfact>
</mgrwt>
</event>
<event>
 7    0  0.4748297E-002  0.4537240E+03  0.7546771E-02  0.1026617E+00
         21   -1    0    0  502  501  0.00000000000E+00  0.00000000000E+00  0.19952929820E+03  0.19952929820E+03  0.00000000000E+00 0.  1.
         21   -1    0    0  501  502 -0.00000000000E+00 -0.00000000000E+00 -0.25793890674E+03  0.25793890674E+03  0.00000000000E+00 0.  1.
      99926    2    1    2    0    0 -0.35527136788E-14  0.00000000000E+00 -0.58409608539E+02  0.45746820494E+03  0.45372400880E+03 0.  0.
      99925    2    3    3    0    0 -0.20653486398E+02 -0.42918660940E+02  0.65250735649E+02  0.27523767297E+03  0.26311507019E+03 0.  0.
         25    1    4    4    0    0  0.30336704978E+02 -0.21887726768E+02  0.27808117496E+02  0.13349227600E+03  0.12509000000E+03 0.  0.
         25    1    4    4    0    0 -0.50990191376E+02 -0.21030934171E+02  0.37442618153E+02  0.14174539697E+03  0.12509000000E+03 0.  0.
         25    1    3    3    0    0  0.20653486398E+02  0.42918660940E+02 -0.12366034419E+03  0.18223053197E+03  0.12509000000E+03 0.  0.
<mgrwt>
<rscale>  2 0.45372401E+03</rscale>
<asrwt>0</asrwt>
<pdfrwt beam="1">  1       21 0.29342544E-01 0.45372401E+03</pdfrwt>
<pdfrwt beam="2">  1       21 0.37932192E-01 0.45372401E+03</pdfrwt>
<totfact> 0.69065585E+04</totfact>
</mgrwt>
</event>
<event>
 7    0  0.4748297E-002  0.4408132E+03  0.7546771E-02  0.1030498E+00
         21   -1    0    0  502  501  0.00000000000E+00  0.00000000000E+00  0.32784864563E+03  0.32784864563E+03  0.00000000000E+00 0. -1.
         21   -1    0    0  501  502 -0.00000000000E+00 -0.00000000000E+00 -0.14817528992E+03  0.14817528992E+03  0.00000000000E+00 0. -1.
      99926    2    1    2    0    0  0.00000000000E+00 -0.17763568394E-14  0.17967335571E+03  0.47602393555E+03  0.44081319452E+03 0.  0.
      99925    2    3    3    0    0 -0.97947591544E+02  0.13489718991E+02  0.10388618219E+03  0.29948241925E+03  0.26291001765E+03 0.  0.
         25    1    4    4    0    0 -0.66494143868E+02 -0.26474469873E+02  0.36998946254E+02  0.14879112490E+03  0.12509000000E+03 0.  0.
         25    1    4    4    0    0 -0.31453447677E+02  0.39964188865E+02  0.66887235936E+02  0.15069129435E+03  0.12509000000E+03 0.  0.
         25    1    3    3    0    0  0.97947591544E+02 -0.13489718991E+02  0.75787173515E+02  0.17654151630E+03  0.12509000000E+03 0.  0.
<mgrwt>
<rscale>  2 0.44081319E+03</rscale>
<asrwt>0</asrwt>
<pdfrwt beam="1">  1       21 0.48213036E-01 0.44081319E+03</pdfrwt>
<pdfrwt beam="2">  1       21 0.21790484E-01 0.44081319E+03</pdfrwt>
<totfact> 0.75098281E+04</totfact>
</mgrwt>
</event>
<event>
 7    0  0.4748297E-002  0.4543759E+03  0.7546771E-02  0.1026425E+00
         21   -1    0    0  502  501  0.00000000000E+00  0.00000000000E+00  0.26613016305E+03  0.26613016305E+03  0.00000000000E+00 0. -1.
         21   -1    0    0  501  502 -0.00000000000E+00 -0.00000000000E+00 -0.19394406578E+03  0.19394406578E+03  0.00000000000E+00 0. -1.
      99926    2    1    2    0    0  0.00000000000E+00  0.00000000000E+00  0.72186097278E+02  0.46007422883E+03  0.45437590538E+03 0.  0.
      99925    2    3    3    0    0  0.59757217683E+02 -0.57374293894E+02  0.12265281013E+03  0.30177978208E+03  0.26299161655E+03 0.  0.
         25    1    4    4    0    0  0.28083644644E+02  0.10070956378E+02  0.41717013433E+02  0.13519590441E+03  0.12509000000E+03 0.  0.
         25    1    4    4    0    0  0.31673573039E+02 -0.67445250273E+02  0.80935796698E+02  0.16658387767E+03  0.12509000000E+03 0.  0.
         25    1    3    3    0    0 -0.59757217683E+02  0.57374293894E+02 -0.50466712853E+02  0.15829444675E+03  0.12509000000E+03 0.  0.
<mgrwt>
<rscale>  2 0.45437591E+03</rscale>
<asrwt>0</asrwt>
<pdfrwt beam="1">  1       21 0.39136789E-01 0.45437591E+03</pdfrwt>
<pdfrwt beam="2">  1       21 0.28521186E-01 0.45437591E+03</pdfrwt>
<totfact> 0.68515486E+04</totfact>
</mgrwt>
</event>
<event>
 7    0  0.4748297E-002  0.4544911E+03  0.7546771E-02  0.1026391E+00
         21   -1    0    0  502  501  0.00000000000E+00  0.00000000000E+00  0.15651561097E+03  0.15651561097E+03  0.00000000000E+00 0.  1.
         21   -1    0    0  501  502 -0.00000000000E+00 -0.00000000000E+00 -0.32993858850E+03  0.32993858850E+03  0.00000000000E+00 0.  1.
      99926    2    1    2    0    0  0.00000000000E+00  0.00000000000E+00 -0.17342297754E+03  0.48645419947E+03  0.45449109897E+03 0.  0.
      99925    2    3    3    0    0  0.18538044668E+02  0.10094762949E+03 -0.59897362794E+02  0.28879374237E+03  0.26321103427E+03 0.  0.
         25    1    4    4    0    0 -0.23638415791E+02  0.75535294613E+02 -0.34227359127E+02  0.15193214158E+03  0.12509000000E+03 0.  0.
         25    1    3    3    0    0 -0.18538044668E+02 -0.10094762949E+03 -0.11352561474E+03  0.19766045710E+03  0.12509000000E+03 0.  0.
         25    1    4    4    0    0  0.42176460459E+02  0.25412334877E+02 -0.25670003666E+02  0.13686160078E+03  0.12509000000E+03 0.  0.
<mgrwt>
<rscale>  2 0.45449110E+03</rscale>
<asrwt>0</asrwt>
<pdfrwt beam="1">  1       21 0.23017002E-01 0.45449110E+03</pdfrwt>
<pdfrwt beam="2">  1       21 0.48520381E-01 0.45449110E+03</pdfrwt>
<totfact> 0.66501457E+04</totfact>
</mgrwt>
</event>
<event>
 7    0  0.4748297E-002  0.4298584E+03  0.7546771E-02  0.1033905E+00
         21   -1    0    0  502  501  0.00000000000E+00  0.00000000000E+00  0.13026722609E+03  0.13026722609E+03  0.00000000000E+00 0. -1.
         21   -1    0    0  501  502 -0.00000000000E+00 -0.00000000000E+00 -0.35461388085E+03  0.35461388085E+03  0.00000000000E+00 0. -1.
      99926    2    1    2    0    0  0.00000000000E+00  0.18041124150E-15 -0.22434665476E+03  0.48488110694E+03  0.42985842596E+03 0.  0.
      99925    2    3    3    0    0  0.85852409458E+02 -0.10911191936E+00 -0.12579354871E+03  0.30396435557E+03  0.26305829096E+03 0.  0.
         25    1    3    3    0    0 -0.85852409458E+02  0.10911191936E+00 -0.98553106045E+02  0.18091675137E+03  0.12509000000E+03 0.  0.
         25    1    4    4    0    0  0.64234319251E+02 -0.13402255786E+02 -0.10173564403E+03  0.17407848114E+03  0.12509000000E+03 0.  0.
         25    1    4    4    0    0  0.21618090207E+02  0.13293143867E+02 -0.24057904677E+02  0.12988587443E+03  0.12509000000E+03 0.  0.
<mgrwt>
<rscale>  2 0.42985843E+03</rscale>
<asrwt>0</asrwt>
<pdfrwt beam="1">  1       21 0.19156945E-01 0.42985843E+03</pdfrwt>
<pdfrwt beam="2">  1       21 0.52149099E-01 0.42985843E+03</pdfrwt>
<totfact> 0.81422544E+04</totfact>
</mgrwt>
</event>
<event>
 7    0  0.4748297E-002  0.4535390E+03  0.7546771E-02  0.1026672E+00
         21   -1    0    0  502  501  0.00000000000E+00  0.00000000000E+00  0.65880500496E+03  0.65880500496E+03  0.00000000000E+00 0.  1.
         21   -1    0    0  501  502 -0.00000000000E+00 -0.00000000000E+00 -0.78057112421E+02  0.78057112421E+02  0.00000000000E+00 0.  1.
      99926    2    1    2    0    0  0.00000000000E+00  0.00000000000E+00  0.58074789253E+03  0.73686211738E+03  0.45353904500E+03 0.  0.
      99925    2    3    3    0    0 -0.70127008118E+02  0.70436368196E+02  0.28077625104E+03  0.39699512423E+03  0.26247046744E+03 0.  0.
         25    1    3    3    0    0  0.70127008118E+02 -0.70436368196E+02  0.29997164149E+03  0.33986699315E+03  0.12509000000E+03 0.  0.
         25    1    4    4    0    0 -0.36152282405E+02 -0.20445841708E+01  0.10815164564E+03  0.16927922023E+03  0.12509000000E+03 0.  0.
         25    1    4    4    0    0 -0.33974725713E+02  0.72480952367E+02  0.17262460540E+03  0.22771590400E+03  0.12509000000E+03 0.  0.
<mgrwt>
<rscale>  2 0.45353905E+03</rscale>
<asrwt>0</asrwt>
<pdfrwt beam="1">  1       21 0.96883086E-01 0.45353905E+03</pdfrwt>
<pdfrwt beam="2">  1       21 0.11478987E-01 0.45353905E+03</pdfrwt>
<totfact> 0.51536282E+04</totfact>
</mgrwt>
</event>
<event>
 7    0  0.4748297E-002  0.4529013E+03  0.7546771E-02  0.1026860E+00
         21   -1    0    0  502  501  0.00000000000E+00  0.00000000000E+00  0.49645472851E+03  0.49645472851E+03  0.00000000000E+00 0. -1.
         21   -1    0    0  501  502 -0.00000000000E+00 -0.00000000000E+00 -0.10329220623E+03  0.10329220623E+03  0.00000000000E+00 0. -1.
      99926    2    1    2    0    0  0.00000000000E+00  0.00000000000E+00  0.39316252228E+03  0.59974693475E+03  0.45290133232E+03 0.  0.
      99925    2    3    3    0    0 -0.40708360393E+02  0.60694143300E+02  0.35815559122E+03  0.45070350833E+03  0.26366128889E+03 0.  0.
         25    1    4    4    0    0  0.19477169739E+02  0.19255461554E+02  0.15224821569E+03  0.19894009204E+03  0.12509000000E+03 0.  0.
         25    1    4    4    0    0 -0.60185530132E+02  0.41438681746E+02  0.20590737553E+03  0.25176341629E+03  0.12509000000E+03 0.  0.
         25    1    3    3    0    0  0.40708360393E+02 -0.60694143300E+02  0.35006931058E+02  0.14904342642E+03  0.12509000000E+03 0.  0.
<mgrwt>
<rscale>  2 0.45290133E+03</rscale>
<asrwt>0</asrwt>
<pdfrwt beam="1">  1       21 0.73008047E-01 0.45290133E+03</pdfrwt>
<pdfrwt beam="2">  1       21 0.15190031E-01 0.45290133E+03</pdfrwt>
<totfact> 0.59677281E+04</totfact>
</mgrwt>
</event>
<event>
 7    0  0.4748297E-002  0.4554164E+03  0.7546771E-02  0.1026119E+00
         21   -1    0    0  502  501  0.00000000000E+00  0.00000000000E+00  0.16669699326E+03  0.16669699326E+03  0.00000000000E+00 0.  1.
         21   -1    0    0  501  502 -0.00000000000E+00 -0.00000000000E+00 -0.31104961267E+03  0.31104961267E+03  0.00000000000E+00 0.  1.
      99926    2    1    2    0    0  0.71054273576E-14  0.71054273576E-14 -0.14435261940E+03  0.47774660593E+03  0.45541644760E+03 0.  0.
      99925    2    3    3    0    0 -0.50821483859E+02 -0.33348658178E+02 -0.19141319321E+03  0.33092303176E+03  0.26301347150E+03 0.  0.
         25    1    4    4    0    0 -0.17603872051E+02 -0.35233108785E+02 -0.13948956327E+03  0.19145786645E+03  0.12509000000E+03 0.  0.
         25    1    3    3    0    0  0.50821483859E+02  0.33348658178E+02  0.47060573805E+02  0.14682357417E+03  0.12509000000E+03 0.  0.
         25    1    4    4    0    0 -0.33217611808E+02  0.18844506069E+01 -0.51923629940E+02  0.13946516531E+03  0.12509000000E+03 0.  0.
<mgrwt>
<rscale>  2 0.45541645E+03</rscale>
<asrwt>0</asrwt>
<pdfrwt beam="1">  1       21 0.24514264E-01 0.45541645E+03</pdfrwt>
<pdfrwt beam="2">  1       21 0.45742590E-01 0.45541645E+03</pdfrwt>
<totfact> 0.66643948E+04</totfact>
</mgrwt>
</event>
<event>
 7    0  0.4748297E-002  0.4451940E+03  0.7546771E-02  0.1029165E+00
         21   -1    0    0  502  501  0.00000000000E+00  0.00000000000E+00  0.84040040327E+02  0.84040040327E+02  0.00000000000E+00 0.  1.
         21   -1    0    0  501  502 -0.00000000000E+00 -0.00000000000E+00 -0.58959318449E+03  0.58959318449E+03  0.00000000000E+00 0.  1.
      99926    2    1    2    0    0  0.13322676296E-14  0.00000000000E+00 -0.50555314417E+03  0.67363322482E+03  0.44519404759E+03 0.  0.
      99925    2    3    3    0    0 -0.22317246381E+01 -0.96361601702E+02 -0.37895852087E+03  0.47123696590E+03  0.26299083370E+03 0.  0.
         25    1    4    4    0    0 -0.21461365097E+02 -0.63109111475E+02 -0.14252672882E+03  0.20100927012E+03  0.12509000000E+03 0.  0.
         25    1    3    3    0    0  0.22317246381E+01  0.96361601702E+02 -0.12659462329E+03  0.20239625892E+03  0.12509000000E+03 0.  0.
         25    1    4    4    0    0  0.19229640459E+02 -0.33252490227E+02 -0.23643179205E+03  0.27022769579E+03  0.12509000000E+03 0.  0.
<mgrwt>
<rscale>  2 0.44519405E+03</rscale>
<asrwt>0</asrwt>
<pdfrwt beam="1">  1       21 0.12358829E-01 0.44519405E+03</pdfrwt>
<pdfrwt beam="2">  1       21 0.86704883E-01 0.44519405E+03</pdfrwt>
<totfact> 0.58767321E+04</totfact>
</mgrwt>
</event>
<event>
 7    0  0.4748297E-002  0.4468749E+03  0.7546771E-02  0.1028658E+00
         21   -1    0    0  502  501  0.00000000000E+00  0.00000000000E+00  0.12351415177E+03  0.12351415177E+03  0.00000000000E+00 0. -1.
         21   -1    0    0  501  502 -0.00000000000E+00 -0.00000000000E+00 -0.40419892513E+03  0.40419892513E+03  0.00000000000E+00 0. -1.
      99926    2    1    2    0    0 -0.31086244690E-14  0.00000000000E+00 -0.28068477336E+03  0.52771307690E+03  0.44687487011E+03 0.  0.
      99925    2    3    3    0    0 -0.37965165712E+01  0.10144621652E+03 -0.21029336908E+03  0.35190577819E+03  0.26326531723E+03 0.  0.
         25    1    4    4    0    0  0.20476024653E+02  0.14997388224E+02 -0.10618767736E+03  0.16603469566E+03  0.12509000000E+03 0.  0.
         25    1    4    4    0    0 -0.24272541224E+02  0.86448828294E+02 -0.10410569172E+03  0.18587108253E+03  0.12509000000E+03 0.  0.
         25    1    3    3    0    0  0.37965165712E+01 -0.10144621652E+03 -0.70391404279E+02  0.17580729871E+03  0.12509000000E+03 0.  0.
<mgrwt>
<rscale>  2 0.44687487E+03</rscale>
<asrwt>0</asrwt>
<pdfrwt beam="1">  1       21 0.18163846E-01 0.44687487E+03</pdfrwt>
<pdfrwt beam="2">  1       21 0.59441019E-01 0.44687487E+03</pdfrwt>
<totfact> 0.67608537E+04</totfact>
</mgrwt>
</event>
<event>
 7    0  0.4748297E-002  0.4605714E+03  0.7546771E-02  0.1024616E+00
         21   -1    0    0  502  501  0.00000000000E+00  0.00000000000E+00  0.57401760764E+03  0.57401760764E+03  0.00000000000E+00 0. -1.
         21   -1    0    0  501  502 -0.00000000000E+00 -0.00000000000E+00 -0.92386542901E+02  0.92386542901E+02  0.00000000000E+00 0. -1.
      99926    2    1    2    0    0  0.00000000000E+00 -0.35527136788E-14  0.48163106474E+03  0.66640415054E+03  0.46057139440E+03 0.  0.
      99925    2    3    3    0    0  0.72929008668E+02  0.29527297550E+02  0.42951821636E+03  0.50970776044E+03  0.26291747994E+03 0.  0.
         25    1    3    3    0    0 -0.72929008668E+02 -0.29527297550E+02  0.52112848382E+02  0.15669639011E+03  0.12509000000E+03 0.  0.
         25    1    4    4    0    0  0.55955667141E+02 -0.74765171399E+01  0.27056175092E+03  0.30337782410E+03  0.12509000000E+03 0.  0.
         25    1    4    4    0    0  0.16973341527E+02  0.37003814690E+02  0.15895646544E+03  0.20632993634E+03  0.12509000000E+03 0.  0.
<mgrwt>
<rscale>  2 0.46057139E+03</rscale>
<asrwt>0</asrwt>
<pdfrwt beam="1">  1       21 0.84414352E-01 0.46057139E+03</pdfrwt>
<pdfrwt beam="2">  1       21 0.13586257E-01 0.46057139E+03</pdfrwt>
<totfact> 0.52424064E+04</totfact>
</mgrwt>
</event>
<event>
 7    0  0.4748297E-002  0.4574815E+03  0.7546771E-02  0.1025514E+00
         21   -1    0    0  502  501  0.00000000000E+00  0.00000000000E+00  0.58241195255E+02  0.58241195255E+02  0.00000000000E+00 0. -1.
         21   -1    0    0  501  502 -0.00000000000E+00 -0.00000000000E+00 -0.89837312652E+03  0.89837312652E+03  0.00000000000E+00 0. -1.
      99926    2    1    2    0    0  0.14210854715E-13 -0.35527136788E-14 -0.84013193126E+03  0.95661432177E+03  0.45748147361E+03 0.  0.
      99925    2    3    3    0    0 -0.11419243363E+03 -0.15800122828E+02 -0.53986596754E+03  0.61151040575E+03  0.26305922843E+03 0.  0.
         25    1    4    4    0    0 -0.31233620299E+02 -0.34852436000E+02 -0.21444133811E+03  0.25263180109E+03  0.12509000000E+03 0.  0.
         25    1    3    3    0    0  0.11419243363E+03  0.15800122828E+02 -0.30026596373E+03  0.34510391602E+03  0.12509000000E+03 0.  0.
         25    1    4    4    0    0 -0.82958813332E+02  0.19052313172E+02 -0.32542462942E+03  0.35887860466E+03  0.12509000000E+03 0.  0.
<mgrwt>
<rscale>  2 0.45748147E+03</rscale>
<asrwt>0</asrwt>
<pdfrwt beam="1">  1       21 0.85648814E-02 0.45748147E+03</pdfrwt>
<pdfrwt beam="2">  1       21 0.13211370E+00 0.45748147E+03</pdfrwt>
<totfact> 0.40090587E+04</totfact>
</mgrwt>
</event>
<event>
 7    0  0.4748297E-002  0.4456774E+03  0.7546771E-02  0.1029019E+00
         21   -1    0    0  502  501  0.00000000000E+00  0.00000000000E+00  0.39860670916E+03  0.39860670916E+03  0.00000000000E+00 0. -1.
         21   -1    0    0  501  502 -0.00000000000E+00 -0.00000000000E+00 -0.12457663729E+03  0.12457663729E+03  0.00000000000E+00 0. -1.
      99926    2    1    2    0    0  0.00000000000E+00  0.00000000000E+00  0.27403007187E+03  0.52318334645E+03  0.44567738749E+03 0.  0.
      99925    2    3    3    0    0  0.71586160828E+01  0.99745159410E+02  0.13912562791E+03  0.31378645128E+03  0.26287954286E+03 0.  0.
         25    1    4    4    0    0  0.14643588503E+02  0.38186939285E+02  0.10916967313E+03  0.17099182041E+03  0.12509000000E+03 0.  0.
         25    1    3    3    0    0 -0.71586160828E+01 -0.99745159410E+02  0.13490444396E+03  0.20939689518E+03  0.12509000000E+03 0.  0.
         25    1    4    4    0    0 -0.74849724205E+01  0.61558220125E+02  0.29955954778E+02  0.14279463086E+03  0.12509000000E+03 0.  0.
<mgrwt>
<rscale>  2 0.44567739E+03</rscale>
<asrwt>0</asrwt>
<pdfrwt beam="1">  1       21 0.58618633E-01 0.44567739E+03</pdfrwt>
<pdfrwt beam="2">  1       21 0.18320094E-01 0.44567739E+03</pdfrwt>
<totfact> 0.68598845E+04</totfact>
</mgrwt>
</event>
<event>
 7    0  0.4748297E-002  0.4364878E+03  0.7546771E-02  0.1031830E+00
         21   -1    0    0  502  501  0.00000000000E+00  0.00000000000E+00  0.26202572269E+03  0.26202572269E+03  0.00000000000E+00 0. -1.
         21   -1    0    0  501  502 -0.00000000000E+00 -0.00000000000E+00 -0.18177758751E+03  0.18177758751E+03  0.00000000000E+00 0. -1.
      99926    2    1    2    0    0 -0.88817841970E-15 -0.71054273576E-14  0.80248135177E+02  0.44380331020E+03  0.43648781764E+03 0.  0.
      99925    2    3    3    0    0  0.33604744171E+01 -0.38740685962E+02 -0.36275877184E+02  0.26848221309E+03  0.26316273661E+03 0.  0.
         25    1    3    3    0    0 -0.33604744171E+01  0.38740685962E+02  0.11652401236E+03  0.17532109712E+03  0.12509000000E+03 0.  0.
         25    1    4    4    0    0  0.23723598006E+02 -0.46953286057E+02 -0.39842688455E+02  0.14142972848E+03  0.12509000000E+03 0.  0.
         25    1    4    4    0    0 -0.20363123589E+02  0.82126000949E+01  0.35668112706E+01  0.12705248461E+03  0.12509000000E+03 0.  0.
<mgrwt>
<rscale>  2 0.43648782E+03</rscale>
<asrwt>0</asrwt>
<pdfrwt beam="1">  1       21 0.38533195E-01 0.43648782E+03</pdfrwt>
<pdfrwt beam="2">  1       21 0.26731998E-01 0.43648782E+03</pdfrwt>
<totfact> 0.80637377E+04</totfact>
</mgrwt>
</event>
<event>
 7    0  0.4748297E-002  0.4552064E+03  0.7546771E-02  0.1026181E+00
         21   -1    0    0  502  501  0.00000000000E+00  0.00000000000E+00  0.15067383409E+03  0.15067383409E+03  0.00000000000E+00 0.  1.
         21   -1    0    0  501  502 -0.00000000000E+00 -0.00000000000E+00 -0.34381034107E+03  0.34381034107E+03  0.00000000000E+00 0.  1.
      99926    2    1    2    0    0  0.00000000000E+00 -0.71054273576E-14 -0.19313650698E+03  0.49448417516E+03  0.45520642478E+03 0.  0.
      99925    2    3    3    0    0 -0.95727731340E+02  0.48474861498E+02 -0.16032522499E+03  0.32644340907E+03  0.26333915548E+03 0.  0.
         25    1    3    3    0    0  0.95727731340E+02 -0.48474861498E+02 -0.32811281992E+02  0.16804076610E+03  0.12509000000E+03 0.  0.
         25    1    4    4    0    0 -0.87361122228E+02  0.21870123967E+02 -0.67883573009E+02  0.16842195695E+03  0.12509000000E+03 0.  0.
         25    1    4    4    0    0 -0.83666091122E+01  0.26604737530E+02 -0.92441651983E+02  0.15802145211E+03  0.12509000000E+03 0.  0.
<mgrwt>
<rscale>  2 0.45520642E+03</rscale>
<asrwt>0</asrwt>
<pdfrwt beam="1">  1       21 0.22157917E-01 0.45520642E+03</pdfrwt>
<pdfrwt beam="2">  1       21 0.50560344E-01 0.45520642E+03</pdfrwt>
<totfact> 0.65552434E+04</totfact>
</mgrwt>
</event>
<event>
 7    0  0.4748297E-002  0.4525780E+03  0.7546771E-02  0.1026956E+00
         21   -1    0    0  502  501  0.00000000000E+00  0.00000000000E+00  0.10726542740E+04  0.10726542740E+04  0.00000000000E+00 0.  1.
         21   -1    0    0  501  502 -0.00000000000E+00 -0.00000000000E+00 -0.47738328700E+02  0.47738328700E+02  0.00000000000E+00 0.  1.
      99926    2    1    2    0    0 -0.11102230246E-15  0.71054273576E-14  0.10249159453E+04  0.11203926027E+04  0.45257804770E+03 0.  0.
      99925    2    3    3    0    0 -0.67480937853E+00  0.37795882675E+02  0.90437443902E+03  0.94260973810E+03  0.26304183753E+03 0.  0.
         25    1    4    4    0    0 -0.12502039133E+02 -0.23474688041E+01  0.32653386705E+03  0.34990525292E+03  0.12509000000E+03 0.  0.
         25    1    4    4    0    0  0.11827229754E+02  0.40143351479E+02  0.57784057198E+03  0.59270448518E+03  0.12509000000E+03 0.  0.
         25    1    3    3    0    0  0.67480937853E+00 -0.37795882675E+02  0.12054150632E+03  0.17778286464E+03  0.12509000000E+03 0.  0.
<mgrwt>
<rscale>  2 0.45257805E+03</rscale>
<asrwt>0</asrwt>
<pdfrwt beam="1">  1       21 0.15774326E+00 0.45257805E+03</pdfrwt>
<pdfrwt beam="2">  1       21 0.70203432E-02 0.45257805E+03</pdfrwt>
<totfact> 0.35451064E+04</totfact>
</mgrwt>
</event>
<event>
 7    0  0.4748297E-002  0.4583021E+03  0.7546771E-02  0.1025275E+00
         21   -1    0    0  502  501  0.00000000000E+00  0.00000000000E+00  0.15038942762E+03  0.15038942762E+03  0.00000000000E+00 0.  1.
         21   -1    0    0  501  502 -0.00000000000E+00 -0.00000000000E+00 -0.34916154288E+03  0.34916154288E+03  0.00000000000E+00 0.  1.
      99926    2    1    2    0    0 -0.88817841970E-15  0.00000000000E+00 -0.19877211526E+03  0.49955097051E+03  0.45830210378E+03 0.  0.
      99925    2    3    3    0    0 -0.65662172777E+01 -0.44803538006E+02 -0.79025388887E+01  0.26689419431E+03  0.26290604521E+03 0.  0.
         25    1    4    4    0    0  0.36068371988E+02 -0.18137814493E+02  0.43791493244E+01  0.13151651159E+03  0.12509000000E+03 0.  0.
         25    1    3    3    0    0  0.65662172777E+01  0.44803538006E+02 -0.19086957637E+03  0.23265677620E+03  0.12509000000E+03 0.  0.
         25    1    4    4    0    0 -0.42634589266E+02 -0.26665723513E+02 -0.12281688213E+02  0.13537768272E+03  0.12509000000E+03 0.  0.
<mgrwt>
<rscale>  2 0.45830210E+03</rscale>
<asrwt>0</asrwt>
<pdfrwt beam="1">  1       21 0.22116092E-01 0.45830210E+03</pdfrwt>
<pdfrwt beam="2">  1       21 0.51347286E-01 0.45830210E+03</pdfrwt>
<totfact> 0.63618161E+04</totfact>
</mgrwt>
</event>
<event>
 7    0  0.4748297E-002  0.4540218E+03  0.7546771E-02  0.1026529E+00
         21   -1    0    0  502  501  0.00000000000E+00  0.00000000000E+00  0.82451545120E+03  0.82451545120E+03  0.00000000000E+00 0. -1.
         21   -1    0    0  501  502 -0.00000000000E+00 -0.00000000000E+00 -0.62502111798E+02  0.62502111798E+02  0.00000000000E+00 0. -1.
      99926    2    1    2    0    0 -0.88817841970E-15 -0.17763568394E-14  0.76201333940E+03  0.88701756300E+03  0.45402183608E+03 0.  0.
      99925    2    3    3    0    0 -0.68309720436E+01  0.14273536834E+02  0.69701766258E+03  0.74516432145E+03  0.26303202842E+03 0.  0.
         25    1    3    3    0    0  0.68309720436E+01 -0.14273536834E+02  0.64995676820E+02  0.14185324155E+03  0.12509000000E+03 0.  0.
         25    1    4    4    0    0 -0.18478226828E+02 -0.67078412222E+01  0.24835979210E+03  0.27877685419E+03  0.12509000000E+03 0.  0.
         25    1    4    4    0    0  0.11647254785E+02  0.20981378056E+02  0.44865787049E+03  0.46638746726E+03  0.12509000000E+03 0.  0.
<mgrwt>
<rscale>  2 0.45402184E+03</rscale>
<asrwt>0</asrwt>
<pdfrwt beam="1">  1       21 0.12125227E+00 0.45402184E+03</pdfrwt>
<pdfrwt beam="2">  1       21 0.91914875E-02 0.45402184E+03</pdfrwt>
<totfact> 0.44136894E+04</totfact>
</mgrwt>
</event>
<event>
 7    0  0.4748297E-002  0.4497881E+03  0.7546771E-02  0.1027785E+00
         21   -1    0    0  502  501  0.00000000000E+00  0.00000000000E+00  0.15557606437E+04  0.15557606437E+04  0.00000000000E+00 0.  1.
         21   -1    0    0  501  502 -0.00000000000E+00 -0.00000000000E+00 -0.32509720908E+02  0.32509720908E+02  0.00000000000E+00 0.  1.
      99926    2    1    2    0    0  0.00000000000E+00  0.00000000000E+00  0.15232509228E+04  0.15882703646E+04  0.44978814714E+03 0.  0.
      99925    2    3    3    0    0  0.49683956990E+02 -0.84109111918E+02  0.79903799067E+03  0.84686985379E+03  0.26302851639E+03 0.  0.
         25    1    4    4    0    0  0.35024766436E+02 -0.45145163677E+01  0.32734827776E+03  0.35220948053E+03  0.12509000000E+03 0.  0.
         25    1    4    4    0    0  0.14659190555E+02 -0.79594595551E+02  0.47168971291E+03  0.49466037326E+03  0.12509000000E+03 0.  0.
         25    1    3    3    0    0 -0.49683956990E+02  0.84109111918E+02  0.72421293212E+03  0.74140051081E+03  0.12509000000E+03 0.  0.
<mgrwt>
<rscale>  2 0.44978815E+03</rscale>
<asrwt>0</asrwt>
<pdfrwt beam="1">  1       21 0.22878828E+00 0.44978815E+03</pdfrwt>
<pdfrwt beam="2">  1       21 0.47808423E-02 0.44978815E+03</pdfrwt>
<totfact> 0.22596909E+04</totfact>
</mgrwt>
</event>
<event>
 7    0  0.4748297E-002  0.4541304E+03  0.7546771E-02  0.1026497E+00
         21   -1    0    0  502  501  0.00000000000E+00  0.00000000000E+00  0.60012096060E+03  0.60012096060E+03  0.00000000000E+00 0.  1.
         21   -1    0    0  501  502 -0.00000000000E+00 -0.00000000000E+00 -0.85913707000E+02  0.85913707000E+02  0.00000000000E+00 0.  1.
      99926    2    1    2    0    0  0.00000000000E+00  0.00000000000E+00  0.51420725360E+03  0.68603466760E+03  0.45413044987E+03 0.  0.
      99925    2    3    3    0    0 -0.60473412299E+02 -0.93613158356E+02  0.30137261451E+03  0.41517206644E+03  0.26291050751E+03 0.  0.
         25    1    3    3    0    0  0.60473412299E+02  0.93613158356E+02  0.21283463909E+03  0.27086260117E+03  0.12509000000E+03 0.  0.
         25    1    4    4    0    0 -0.38514415126E+02 -0.75490774170E+02  0.11967190011E+03  0.19274617748E+03  0.12509000000E+03 0.  0.
         25    1    4    4    0    0 -0.21958997173E+02 -0.18122384186E+02  0.18170071440E+03  0.22242588896E+03  0.12509000000E+03 0.  0.
<mgrwt>
<rscale>  2 0.45413045E+03</rscale>
<asrwt>0</asrwt>
<pdfrwt beam="1">  1       21 0.88253081E-01 0.45413045E+03</pdfrwt>
<pdfrwt beam="2">  1       21 0.12634369E-01 0.45413045E+03</pdfrwt>
<totfact> 0.54036941E+04</totfact>
</mgrwt>
</event>
<event>
 7    0  0.4748297E-002  0.4536235E+03  0.7546771E-02  0.1026647E+00
         21   -1    0    0  502  501  0.00000000000E+00  0.00000000000E+00  0.36078754466E+03  0.36078754466E+03  0.00000000000E+00 0.  1.
         21   -1    0    0  501  502 -0.00000000000E+00 -0.00000000000E+00 -0.14258689861E+03  0.14258689861E+03  0.00000000000E+00 0.  1.
      99926    2    1    2    0    0  0.14210854715E-13  0.35527136788E-14  0.21820064605E+03  0.50337444327E+03  0.45362353136E+03 0.  0.
      99925    2    3    3    0    0  0.78236979015E+02  0.28738420967E+02  0.54655784922E+02  0.28124531095E+03  0.26299191695E+03 0.  0.
         25    1    4    4    0    0 -0.27896512144E+01  0.15762309550E+02  0.20085390919E+02  0.12769950503E+03  0.12509000000E+03 0.  0.
         25    1    4    4    0    0  0.81026630230E+02  0.12976111417E+02  0.34570394002E+02  0.15354580592E+03  0.12509000000E+03 0.  0.
         25    1    3    3    0    0 -0.78236979015E+02 -0.28738420967E+02  0.16354486113E+03  0.22212913232E+03  0.12509000000E+03 0.  0.
<mgrwt>
<rscale>  2 0.45362353E+03</rscale>
<asrwt>0</asrwt>
<pdfrwt beam="1">  1       21 0.53056992E-01 0.45362353E+03</pdfrwt>
<pdfrwt beam="2">  1       21 0.20968662E-01 0.45362353E+03</pdfrwt>
<totfact> 0.65749667E+04</totfact>
</mgrwt>
</event>
<event>
 7    0  0.4748297E-002  0.4539167E+03  0.7546771E-02  0.1026560E+00
         21   -1    0    0  502  501  0.00000000000E+00  0.00000000000E+00  0.10271640775E+04  0.10271640775E+04  0.00000000000E+00 0. -1.
         21   -1    0    0  501  502 -0.00000000000E+00 -0.00000000000E+00 -0.50147880737E+02  0.50147880737E+02  0.00000000000E+00 0. -1.
      99926    2    1    2    0    0 -0.35527136788E-14  0.00000000000E+00  0.97701619674E+03  0.10773119582E+04  0.45391673974E+03 0.  0.
      99925    2    3    3    0    0 -0.30957147978E+02 -0.10783783920E+03  0.61450876126E+03  0.67775408574E+03  0.26294911771E+03 0.  0.
         25    1    3    3    0    0  0.30957147978E+02  0.10783783920E+03  0.36250743548E+03  0.39955787247E+03  0.12509000000E+03 0.  0.
         25    1    4    4    0    0 -0.38408583462E+01 -0.83092343716E+02  0.26342721359E+03  0.30324988827E+03  0.12509000000E+03 0.  0.
         25    1    4    4    0    0 -0.27116289632E+02 -0.24745495485E+02  0.35108154767E+03  0.37450419747E+03  0.12509000000E+03 0.  0.
<mgrwt>
<rscale>  2 0.45391674E+03</rscale>
<asrwt>0</asrwt>
<pdfrwt beam="1">  1       21 0.15105353E+00 0.45391674E+03</pdfrwt>
<pdfrwt beam="2">  1       21 0.73746890E-02 0.45391674E+03</pdfrwt>
<totfact> 0.36599303E+04</totfact>
</mgrwt>
</event>
<event>
 7    0  0.4748297E-002  0.4554695E+03  0.7546771E-02  0.1026103E+00
         21   -1    0    0  502  501  0.00000000000E+00  0.00000000000E+00  0.14859309714E+03  0.14859309714E+03  0.00000000000E+00 0. -1.
         21   -1    0    0  501  502 -0.00000000000E+00 -0.00000000000E+00 -0.34902772069E+03  0.34902772069E+03  0.00000000000E+00 0. -1.
      99926    2    1    2    0    0  0.00000000000E+00  0.00000000000E+00 -0.20043462355E+03  0.49762081783E+03  0.45546947210E+03 0.  0.
      99925    2    3    3    0    0  0.10410606003E+03  0.10167531639E+02 -0.17462737933E+03  0.33253001739E+03  0.26294493800E+03 0.  0.
         25    1    4    4    0    0  0.61752990391E+02 -0.31369764566E+02 -0.71292043680E+02  0.15977345694E+03  0.12509000000E+03 0.  0.
         25    1    3    3    0    0 -0.10410606003E+03 -0.10167531639E+02 -0.25807244223E+02  0.16509080044E+03  0.12509000000E+03 0.  0.
         25    1    4    4    0    0  0.42353069643E+02  0.41537296205E+02 -0.10333533565E+03  0.17275656045E+03  0.12509000000E+03 0.  0.
<mgrwt>
<rscale>  2 0.45546947E+03</rscale>
<asrwt>0</asrwt>
<pdfrwt beam="1">  1       21 0.21851926E-01 0.45546947E+03</pdfrwt>
<pdfrwt beam="2">  1       21 0.51327606E-01 0.45546947E+03</pdfrwt>
<totfact> 0.65194819E+04</totfact>
</mgrwt>
</event>
<event>
 7    0  0.4748297E-002  0.4555121E+03  0.7546771E-02  0.1026091E+00
         21   -1    0    0  502  501  0.00000000000E+00  0.00000000000E+00  0.22873381561E+03  0.22873381561E+03  0.00000000000E+00 0.  1.
         21   -1    0    0  501  502 -0.00000000000E+00 -0.00000000000E+00 -0.22678244199E+03  0.22678244199E+03  0.00000000000E+00 0.  1.
      99926    2    1    2    0    0 -0.35527136788E-14  0.00000000000E+00  0.19513736177E+01  0.45551625760E+03  0.45551207787E+03 0.  0.
      99925    2    3    3    0    0 -0.26879207395E+02  0.60440421968E+02 -0.91062527218E+02  0.28618040716E+03  0.26311842425E+03 0.  0.
         25    1    4    4    0    0 -0.17146016743E+02  0.12106543060E+02 -0.58035573857E+01  0.12697142849E+03  0.12509000000E+03 0.  0.
         25    1    4    4    0    0 -0.97331906519E+01  0.48333878908E+02 -0.85258969833E+02  0.15920897866E+03  0.12509000000E+03 0.  0.
         25    1    3    3    0    0  0.26879207395E+02 -0.60440421968E+02  0.93013900836E+02  0.16933585045E+03  0.12509000000E+03 0.  0.
<mgrwt>
<rscale>  2 0.45551208E+03</rscale>
<asrwt>0</asrwt>
<pdfrwt beam="1">  1       21 0.33637326E-01 0.45551208E+03</pdfrwt>
<pdfrwt beam="2">  1       21 0.33350359E-01 0.45551208E+03</pdfrwt>
<totfact> 0.68228786E+04</totfact>
</mgrwt>
</event>
<event>
 7    0  0.4748297E-002  0.4639834E+03  0.7546771E-02  0.1023632E+00
         21   -1    0    0  502  501  0.00000000000E+00  0.00000000000E+00  0.50471842078E+03  0.50471842078E+03  0.00000000000E+00 0.  1.
         21   -1    0    0  501  502 -0.00000000000E+00 -0.00000000000E+00 -0.10663402414E+03  0.10663402414E+03  0.00000000000E+00 0.  1.
      99926    2    1    2    0    0  0.00000000000E+00  0.00000000000E+00  0.39808439663E+03  0.61135244492E+03  0.46398343189E+03 0.  0.
      99925    2    3    3    0    0 -0.99524097350E+02 -0.30294241570E+02  0.33085795875E+03  0.43531355980E+03  0.26307436106E+03 0.  0.
         25    1    4    4    0    0 -0.61686551207E+02 -0.10199508013E+02  0.11009387982E+03  0.17798154690E+03  0.12509000000E+03 0.  0.
         25    1    4    4    0    0 -0.37837546143E+02 -0.20094733557E+02  0.22076407893E+03  0.25733201290E+03  0.12509000000E+03 0.  0.
         25    1    3    3    0    0  0.99524097350E+02  0.30294241570E+02  0.67226437882E+02  0.17603888512E+03  0.12509000000E+03 0.  0.
<mgrwt>
<rscale>  2 0.46398343E+03</rscale>
<asrwt>0</asrwt>
<pdfrwt beam="1">  1       21 0.74223296E-01 0.46398343E+03</pdfrwt>
<pdfrwt beam="2">  1       21 0.15681474E-01 0.46398343E+03</pdfrwt>
<totfact> 0.54046413E+04</totfact>
</mgrwt>
</event>
<event>
 7    0  0.4748297E-002  0.4553390E+03  0.7546771E-02  0.1026142E+00
         21   -1    0    0  502  501  0.00000000000E+00  0.00000000000E+00  0.92792363986E+02  0.92792363986E+02  0.00000000000E+00 0.  1.
         21   -1    0    0  501  502 -0.00000000000E+00 -0.00000000000E+00 -0.55859554927E+03  0.55859554927E+03  0.00000000000E+00 0.  1.
      99926    2    1    2    0    0  0.00000000000E+00 -0.35527136788E-14 -0.46580318528E+03  0.65138791325E+03  0.45533900131E+03 0.  0.
      99925    2    3    3    0    0  0.19440640180E+02  0.27788266757E+02 -0.13783353288E+03  0.29873833186E+03  0.26286190647E+03 0.  0.
         25    1    4    4    0    0 -0.77224600865E+01 -0.11437896492E+01 -0.29974479536E+02  0.12886784769E+03  0.12509000000E+03 0.  0.
         25    1    4    4    0    0  0.27163100266E+02  0.28932056406E+02 -0.10785905334E+03  0.16987048417E+03  0.12509000000E+03 0.  0.
         25    1    3    3    0    0 -0.19440640180E+02 -0.27788266757E+02 -0.32796965240E+03  0.35264958139E+03  0.12509000000E+03 0.  0.
<mgrwt>
<rscale>  2 0.45533900E+03</rscale>
<asrwt>0</asrwt>
<pdfrwt beam="1">  1       21 0.13645936E-01 0.45533900E+03</pdfrwt>
<pdfrwt beam="2">  1       21 0.82146402E-01 0.45533900E+03</pdfrwt>
<totfact> 0.55473108E+04</totfact>
</mgrwt>
</event>
<event>
 7    0  0.4748297E-002  0.4542805E+03  0.7546771E-02  0.1026453E+00
         21   -1    0    0  502  501  0.00000000000E+00  0.00000000000E+00  0.11565736661E+04  0.11565736661E+04  0.00000000000E+00 0.  1.
         21   -1    0    0  501  502 -0.00000000000E+00 -0.00000000000E+00 -0.44608228730E+02  0.44608228730E+02  0.00000000000E+00 0.  1.
      99926    2    1    2    0    0  0.35527136788E-14  0.00000000000E+00  0.11119654374E+04  0.12011818948E+04  0.45428054170E+03 0.  0.
      99925    2    3    3    0    0  0.24175327730E+02 -0.10108917893E+03  0.58660382680E+03  0.65122207945E+03  0.26302600363E+03 0.  0.
         25    1    3    3    0    0 -0.24175327730E+02  0.10108917893E+03  0.52536161059E+03  0.54995981539E+03  0.12509000000E+03 0.  0.
         25    1    4    4    0    0  0.21137720323E+02 -0.37318622210E+02  0.19873105815E+03  0.23870698431E+03  0.12509000000E+03 0.  0.
         25    1    4    4    0    0  0.30376074070E+01 -0.63770556722E+02  0.38787276865E+03  0.41251509515E+03  0.12509000000E+03 0.  0.
<mgrwt>
<rscale>  2 0.45428054E+03</rscale>
<asrwt>0</asrwt>
<pdfrwt beam="1">  1       21 0.17008434E+00 0.45428054E+03</pdfrwt>
<pdfrwt beam="2">  1       21 0.65600344E-02 0.45428054E+03</pdfrwt>
<totfact> 0.32299153E+04</totfact>
</mgrwt>
</event>
<event>
 7    0  0.4748297E-002  0.4567929E+03  0.7546771E-02  0.1025715E+00
         21   -1    0    0  502  501  0.00000000000E+00  0.00000000000E+00  0.53982865769E+02  0.53982865769E+02  0.00000000000E+00 0. -1.
         21   -1    0    0  501  502 -0.00000000000E+00 -0.00000000000E+00 -0.96632419453E+03  0.96632419453E+03  0.00000000000E+00 0. -1.
      99926    2    1    2    0    0  0.00000000000E+00  0.00000000000E+00 -0.91234132876E+03  0.10203070603E+04  0.45679294777E+03 0.  0.
      99925    2    3    3    0    0 -0.80548523774E+02  0.25375492999E+02 -0.74705474214E+03  0.79647867930E+03  0.26297436850E+03 0.  0.
         25    1    3    3    0    0  0.80548523774E+02 -0.25375492999E+02 -0.16528658662E+03  0.22382838101E+03  0.12509000000E+03 0.  0.
         25    1    4    4    0    0 -0.56837517864E+02 -0.24140452492E+02 -0.36712078598E+03  0.39273202630E+03  0.12509000000E+03 0.  0.
         25    1    4    4    0    0 -0.23711005910E+02  0.49515945490E+02 -0.37993395616E+03  0.40374665299E+03  0.12509000000E+03 0.  0.
<mgrwt>
<rscale>  2 0.45679295E+03</rscale>
<asrwt>0</asrwt>
<pdfrwt beam="1">  1       21 0.79386565E-02 0.45679295E+03</pdfrwt>
<pdfrwt beam="2">  1       21 0.14210650E+00 0.45679295E+03</pdfrwt>
<totfact> 0.37853415E+04</totfact>
</mgrwt>
</event>
<event>
 7    0  0.4748297E-002  0.4502613E+03  0.7546771E-02  0.1027644E+00
         21   -1    0    0  502  501  0.00000000000E+00  0.00000000000E+00  0.58217979273E+03  0.58217979273E+03  0.00000000000E+00 0.  1.
         21   -1    0    0  501  502 -0.00000000000E+00 -0.00000000000E+00 -0.87058703176E+02  0.87058703176E+02  0.00000000000E+00 0.  1.
      99926    2    1    2    0    0 -0.71054273576E-14  0.00000000000E+00  0.49512108955E+03  0.66923849591E+03  0.45026133643E+03 0.  0.
      99925    2    3    3    0    0 -0.25496747359E+02  0.99377326752E+02  0.36598270125E+03  0.46223567315E+03  0.26304475420E+03 0.  0.
         25    1    4    4    0    0  0.11866247077E+02  0.35409073152E+02  0.22252845990E+03  0.25799425158E+03  0.12509000000E+03 0.  0.
         25    1    4    4    0    0 -0.37362994436E+02  0.63968253600E+02  0.14345424135E+03  0.20424142157E+03  0.12509000000E+03 0.  0.
         25    1    3    3    0    0  0.25496747359E+02 -0.99377326752E+02  0.12913838830E+03  0.20700282276E+03  0.12509000000E+03 0.  0.
<mgrwt>
<rscale>  2 0.45026134E+03</rscale>
<asrwt>0</asrwt>
<pdfrwt beam="1">  1       21 0.85614674E-01 0.45026134E+03</pdfrwt>
<pdfrwt beam="2">  1       21 0.12802751E-01 0.45026134E+03</pdfrwt>
<totfact> 0.56692809E+04</totfact>
</mgrwt>
</event>
<event>
 7    0  0.4748297E-002  0.4584246E+03  0.7546771E-02  0.1025239E+00
         21   -1    0    0  502  501  0.00000000000E+00  0.00000000000E+00  0.16484735436E+03  0.16484735436E+03  0.00000000000E+00 0. -1.
         21   -1    0    0  501  502 -0.00000000000E+00 -0.00000000000E+00 -0.31870868787E+03  0.31870868787E+03  0.00000000000E+00 0. -1.
      99926    2    1    2    0    0  0.00000000000E+00  0.00000000000E+00 -0.15386133351E+03  0.48355604223E+03  0.45842462415E+03 0.  0.
      99925    2    3    3    0    0 -0.95049513851E+02  0.25910777685E+02 -0.30430005485E+02  0.28208996736E+03  0.26256996395E+03 0.  0.
         25    1    3    3    0    0  0.95049513851E+02 -0.25910777685E+02 -0.12343132803E+03  0.20146607487E+03  0.12509000000E+03 0.  0.
         25    1    4    4    0    0 -0.80996873757E+02 -0.43500547856E+01  0.51008287298E-01  0.14908697876E+03  0.12509000000E+03 0.  0.
         25    1    4    4    0    0 -0.14052640094E+02  0.30260832470E+02 -0.30481013772E+02  0.13300298860E+03  0.12509000000E+03 0.  0.
<mgrwt>
<rscale>  2 0.45842462E+03</rscale>
<asrwt>0</asrwt>
<pdfrwt beam="1">  1       21 0.24242258E-01 0.45842462E+03</pdfrwt>
<pdfrwt beam="2">  1       21 0.46868925E-01 0.45842462E+03</pdfrwt>
<totfact> 0.64666299E+04</totfact>
</mgrwt>
</event>
<event>
 7    0  0.4748297E-002  0.4564016E+03  0.7546771E-02  0.1025830E+00
         21   -1    0    0  502  501  0.00000000000E+00  0.00000000000E+00  0.23399227743E+03  0.23399227743E+03  0.00000000000E+00 0. -1.
         21   -1    0    0  501  502 -0.00000000000E+00 -0.00000000000E+00 -0.22255265080E+03  0.22255265080E+03  0.00000000000E+00 0. -1.
      99926    2    1    2    0    0 -0.35527136788E-14  0.44408920985E-15  0.11439626626E+02  0.45654492823E+03  0.45640158461E+03 0.  0.
      99925    2    3    3    0    0 -0.21856770527E+02 -0.28121483591E+01  0.11956196860E+03  0.28974092489E+03  0.26300021412E+03 0.  0.
         25    1    3    3    0    0  0.21856770527E+02  0.28121483591E+01 -0.10812234197E+03  0.16680400334E+03  0.12509000000E+03 0.  0.
         25    1    4    4    0    0 -0.48652052871E+02 -0.16489514865E+02  0.63717694079E+02  0.14948705291E+03  0.12509000000E+03 0.  0.
         25    1    4    4    0    0  0.26795282344E+02  0.13677366506E+02  0.55844274516E+02  0.14025387198E+03  0.12509000000E+03 0.  0.
<mgrwt>
<rscale>  2 0.45640158E+03</rscale>
<asrwt>0</asrwt>
<pdfrwt beam="1">  1       21 0.34410629E-01 0.45640158E+03</pdfrwt>
<pdfrwt beam="2">  1       21 0.32728331E-01 0.45640158E+03</pdfrwt>
<totfact> 0.67672799E+04</totfact>
</mgrwt>
</event>
<event>
 7    0  0.4748297E-002  0.4497296E+03  0.7546771E-02  0.1027803E+00
         21   -1    0    0  502  501  0.00000000000E+00  0.00000000000E+00  0.41546407983E+02  0.41546407983E+02  0.00000000000E+00 0.  1.
         21   -1    0    0  501  502 -0.00000000000E+00 -0.00000000000E+00 -0.12170527868E+04  0.12170527868E+04  0.00000000000E+00 0.  1.
      99926    2    1    2    0    0  0.71054273576E-14  0.17763568394E-14 -0.11755063788E+04  0.12585991948E+04  0.44972957037E+03 0.  0.
      99925    2    3    3    0    0 -0.62499858442E+02 -0.11907932505E+02 -0.98814435472E+03  0.10245050527E+04  0.26293213225E+03 0.  0.
         25    1    3    3    0    0  0.62499858442E+02  0.11907932505E+02 -0.18736202408E+03  0.23409414202E+03  0.12509000000E+03 0.  0.
         25    1    4    4    0    0 -0.30262489783E+02  0.34252917244E+02 -0.50463477981E+03  0.52191268401E+03  0.12509000000E+03 0.  0.
         25    1    4    4    0    0 -0.32237368659E+02 -0.46160849749E+02 -0.48350957490E+03  0.50259236873E+03  0.12509000000E+03 0.  0.
<mgrwt>
<rscale>  2 0.44972957E+03</rscale>
<asrwt>0</asrwt>
<pdfrwt beam="1">  1       21 0.61097670E-02 0.44972957E+03</pdfrwt>
<pdfrwt beam="2">  1       21 0.17897832E+00 0.44972957E+03</pdfrwt>
<totfact> 0.31618358E+04</totfact>
</mgrwt>
</event>
<event>
 7    0  0.4748297E-002  0.4481358E+03  0.7546771E-02  0.1028279E+00
         21   -1    0    0  502  501  0.00000000000E+00  0.00000000000E+00  0.15203655899E+03  0.15203655899E+03  0.00000000000E+00 0. -1.
         21   -1    0    0  501  502 -0.00000000000E+00 -0.00000000000E+00 -0.33022605566E+03  0.33022605566E+03  0.00000000000E+00 0. -1.
      99926    2    1    2    0    0  0.00000000000E+00  0.00000000000E+00 -0.17818949667E+03  0.48226261465E+03  0.44813584187E+03 0.  0.
      99925    2    3    3    0    0  0.72489708484E+02  0.44764670319E+02 -0.18167318819E+03  0.33087477580E+03  0.26308617677E+03 0.  0.
         25    1    4    4    0    0  0.39345482904E+02 -0.48924694190E+01 -0.52267007460E+02  0.14124925292E+03  0.12509000000E+03 0.  0.
         25    1    4    4    0    0  0.33144225580E+02  0.49657139738E+02 -0.12940618073E+03  0.18962552288E+03  0.12509000000E+03 0.  0.
         25    1    3    3    0    0 -0.72489708484E+02 -0.44764670319E+02  0.34836915251E+01  0.15138783885E+03  0.12509000000E+03 0.  0.
<mgrwt>
<rscale>  2 0.44813584E+03</rscale>
<asrwt>0</asrwt>
<pdfrwt beam="1">  1       21 0.22358317E-01 0.44813584E+03</pdfrwt>
<pdfrwt beam="2">  1       21 0.48562655E-01 0.44813584E+03</pdfrwt>
<totfact> 0.70288468E+04</totfact>
</mgrwt>
</event>
<event>
 7    0  0.4748297E-002  0.4559686E+03  0.7546771E-02  0.1025957E+00
         21   -1    0    0  502  501  0.00000000000E+00  0.00000000000E+00  0.79659060072E+02  0.79659060072E+02  0.00000000000E+00 0. -1.
         21   -1    0    0  501  502 -0.00000000000E+00 -0.00000000000E+00 -0.65249128976E+03  0.65249128976E+03  0.00000000000E+00 0. -1.
      99926    2    1    2    0    0  0.00000000000E+00 -0.14210854715E-13 -0.57283222969E+03  0.73215034983E+03  0.45596860790E+03 0.  0.
      99925    2    3    3    0    0 -0.23978306259E+02 -0.67822089014E+02 -0.21798773992E+03  0.34908780279E+03  0.26299970413E+03 0.  0.
         25    1    4    4    0    0 -0.12908067642E+02  0.78232843391E+01 -0.10442518853E+03  0.16364580681E+03  0.12509000000E+03 0.  0.
         25    1    3    3    0    0  0.23978306259E+02  0.67822089014E+02 -0.35484448977E+03  0.38306254704E+03  0.12509000000E+03 0.  0.
         25    1    4    4    0    0 -0.11070238617E+02 -0.75645373353E+02 -0.11356255139E+03  0.18544199598E+03  0.12509000000E+03 0.  0.
<mgrwt>
<rscale>  2 0.45596861E+03</rscale>
<asrwt>0</asrwt>
<pdfrwt beam="1">  1       21 0.11714567E-01 0.45596861E+03</pdfrwt>
<pdfrwt beam="2">  1       21 0.95954606E-01 0.45596861E+03</pdfrwt>
<totfact> 0.50803906E+04</totfact>
</mgrwt>
</event>
<event>
 7    0  0.4748297E-002  0.4563269E+03  0.7546771E-02  0.1025852E+00
         21   -1    0    0  502  501  0.00000000000E+00  0.00000000000E+00  0.12399147881E+03  0.12399147881E+03  0.00000000000E+00 0. -1.
         21   -1    0    0  501  502 -0.00000000000E+00 -0.00000000000E+00 -0.41985599647E+03  0.41985599647E+03  0.00000000000E+00 0. -1.
      99926    2    1    2    0    0  0.00000000000E+00  0.00000000000E+00 -0.29586451766E+03  0.54384747528E+03  0.45632692619E+03 0.  0.
      99925    2    3    3    0    0 -0.65500152463E+02  0.20991716530E+02 -0.29501942579E+03  0.40109193453E+03  0.26288278037E+03 0.  0.
         25    1    3    3    0    0  0.65500152463E+02 -0.20991716530E+02 -0.84509186496E+00  0.14275554075E+03  0.12509000000E+03 0.  0.
         25    1    4    4    0    0 -0.69162004621E+02 -0.83635057644E+01 -0.15720995094E+03  0.21264009003E+03  0.12509000000E+03 0.  0.
         25    1    4    4    0    0  0.36618521578E+01  0.29355222295E+02 -0.13780947485E+03  0.18845184450E+03  0.12509000000E+03 0.  0.
<mgrwt>
<rscale>  2 0.45632693E+03</rscale>
<asrwt>0</asrwt>
<pdfrwt beam="1">  1       21 0.18234041E-01 0.45632693E+03</pdfrwt>
<pdfrwt beam="2">  1       21 0.61743529E-01 0.45632693E+03</pdfrwt>
<totfact> 0.61625285E+04</totfact>
</mgrwt>
</event>
<event>
 7    0  0.4748297E-002  0.4548542E+03  0.7546771E-02  0.1026284E+00
         21   -1    0    0  502  501  0.00000000000E+00  0.00000000000E+00  0.10361392545E+04  0.10361392545E+04  0.00000000000E+00 0. -1.
         21   -1    0    0  501  502 -0.00000000000E+00 -0.00000000000E+00 -0.49919044969E+02  0.49919044969E+02  0.00000000000E+00 0. -1.
      99926    2    1    2    0    0 -0.26645352591E-14  0.35527136788E-14  0.98622020954E+03  0.10860582995E+04  0.45485418340E+03 0.  0.
      99925    2    3    3    0    0 -0.66172755754E+01 -0.30484286445E+02  0.87996641902E+03  0.91899407184E+03  0.26312758391E+03 0.  0.
         25    1    4    4    0    0 -0.37860872159E+02 -0.23910857241E+02  0.37714456884E+03  0.39986336246E+03  0.12509000000E+03 0.  0.
         25    1    4    4    0    0  0.31243596583E+02 -0.65734292040E+01  0.50282185018E+03  0.51913070938E+03  0.12509000000E+03 0.  0.
         25    1    3    3    0    0  0.66172755754E+01  0.30484286445E+02  0.10625379052E+03  0.16706422763E+03  0.12509000000E+03 0.  0.
<mgrwt>
<rscale>  2 0.45485418E+03</rscale>
<asrwt>0</asrwt>
<pdfrwt beam="1">  1       21 0.15237341E+00 0.45485418E+03</pdfrwt>
<pdfrwt beam="2">  1       21 0.73410367E-02 0.45485418E+03</pdfrwt>
<totfact> 0.36022408E+04</totfact>
</mgrwt>
</event>
<event>
 7    0  0.4748297E-002  0.4554697E+03  0.7546771E-02  0.1026103E+00
         21   -1    0    0  502  501  0.00000000000E+00  0.00000000000E+00  0.46338877756E+03  0.46338877756E+03  0.00000000000E+00 0.  1.
         21   -1    0    0  501  502 -0.00000000000E+00 -0.00000000000E+00 -0.11192147853E+03  0.11192147853E+03  0.00000000000E+00 0.  1.
      99926    2    1    2    0    0  0.00000000000E+00  0.00000000000E+00  0.35146729903E+03  0.57531025610E+03  0.45546967900E+03 0.  0.
      99925    2    3    3    0    0  0.52296604784E+02  0.80751925410E+02  0.14467776734E+03  0.31518485010E+03  0.26297152896E+03 0.  0.
         25    1    4    4    0    0  0.13934842500E+02  0.54789950752E+02  0.11369747497E+03  0.17824349204E+03  0.12509000000E+03 0.  0.
         25    1    3    3    0    0 -0.52296604784E+02 -0.80751925410E+02  0.20678953169E+03  0.26012540600E+03  0.12509000000E+03 0.  0.
         25    1    4    4    0    0  0.38361762284E+02  0.25961974658E+02  0.30980292377E+02  0.13694135807E+03  0.12509000000E+03 0.  0.
<mgrwt>
<rscale>  2 0.45546968E+03</rscale>
<asrwt>0</asrwt>
<pdfrwt beam="1">  1       21 0.68145408E-01 0.45546968E+03</pdfrwt>
<pdfrwt beam="2">  1       21 0.16459041E-01 0.45546968E+03</pdfrwt>
<totfact> 0.60001186E+04</totfact>
</mgrwt>
</event>
<event>
 7    0  0.4748297E-002  0.4511127E+03  0.7546771E-02  0.1027391E+00
         21   -1    0    0  502  501  0.00000000000E+00  0.00000000000E+00  0.24672949860E+03  0.24672949860E+03  0.00000000000E+00 0.  1.
         21   -1    0    0  501  502 -0.00000000000E+00 -0.00000000000E+00 -0.20620016804E+03  0.20620016804E+03  0.00000000000E+00 0.  1.
      99926    2    1    2    0    0 -0.35527136788E-14  0.00000000000E+00  0.40529330555E+02  0.45292966664E+03  0.45111268691E+03 0.  0.
      99925    2    3    3    0    0 -0.28777351807E+02 -0.99238116863E+02 -0.10734717925E+02  0.28277723327E+03  0.26300454306E+03 0.  0.
         25    1    3    3    0    0  0.28777351807E+02  0.99238116863E+02  0.51264048480E+02  0.17015243337E+03  0.12509000000E+03 0.  0.
         25    1    4    4    0    0  0.52897119297E+01 -0.39184220559E+02 -0.39547556671E+02  0.13702153674E+03  0.12509000000E+03 0.  0.
         25    1    4    4    0    0 -0.34067063737E+02 -0.60053896304E+02  0.28812838746E+02  0.14575569653E+03  0.12509000000E+03 0.  0.
<mgrwt>
<rscale>  2 0.45111269E+03</rscale>
<asrwt>0</asrwt>
<pdfrwt beam="1">  1       21 0.36283750E-01 0.45111269E+03</pdfrwt>
<pdfrwt beam="2">  1       21 0.30323554E-01 0.45111269E+03</pdfrwt>
<totfact> 0.70870452E+04</totfact>
</mgrwt>
</event>
<event>
 7    0  0.4748297E-002  0.4558930E+03  0.7546771E-02  0.1025979E+00
         21   -1    0    0  502  501  0.00000000000E+00  0.00000000000E+00  0.24690412319E+03  0.24690412319E+03  0.00000000000E+00 0.  1.
         21   -1    0    0  501  502 -0.00000000000E+00 -0.00000000000E+00 -0.21044446228E+03  0.21044446228E+03  0.00000000000E+00 0.  1.
      99926    2    1    2    0    0  0.14210854715E-13  0.00000000000E+00  0.36459660907E+02  0.45734858547E+03  0.45589299376E+03 0.  0.
      99925    2    3    3    0    0  0.79686038564E+02 -0.65344356565E+02  0.71592370667E+02  0.29151262715E+03  0.26312429492E+03 0.  0.
         25    1    4    4    0    0  0.71072531657E+02 -0.55960829094E+02  0.20234798479E+02  0.15569160003E+03  0.12509000000E+03 0.  0.
         25    1    4    4    0    0  0.86135069064E+01 -0.93835274712E+01  0.51357572188E+02  0.13582102713E+03  0.12509000000E+03 0.  0.
         25    1    3    3    0    0 -0.79686038564E+02  0.65344356565E+02 -0.35132709760E+02  0.16583595832E+03  0.12509000000E+03 0.  0.
<mgrwt>
<rscale>  2 0.45589299E+03</rscale>
<asrwt>0</asrwt>
<pdfrwt beam="1">  1       21 0.36309430E-01 0.45589299E+03</pdfrwt>
<pdfrwt beam="2">  1       21 0.30947715E-01 0.45589299E+03</pdfrwt>
<totfact> 0.67889115E+04</totfact>
</mgrwt>
</event>
<event>
 7    0  0.4748297E-002  0.4551989E+03  0.7546771E-02  0.1026183E+00
         21   -1    0    0  502  501  0.00000000000E+00  0.00000000000E+00  0.23296640355E+04  0.23296640355E+04  0.00000000000E+00 0.  1.
         21   -1    0    0  501  502 -0.00000000000E+00 -0.00000000000E+00 -0.22235616053E+02  0.22235616053E+02  0.00000000000E+00 0.  1.
      99926    2    1    2    0    0  0.00000000000E+00 -0.14210854715E-13  0.23074284195E+04  0.23518996516E+04  0.45519892367E+03 0.  0.
      99925    2    3    3    0    0  0.14108160948E+02 -0.93595304169E+02  0.11310555170E+04  0.11651141466E+04  0.26314496156E+03 0.  0.
         25    1    3    3    0    0 -0.14108160948E+02  0.93595304169E+02  0.11763729024E+04  0.11867855050E+04  0.12509000000E+03 0.  0.
         25    1    4    4    0    0 -0.31146834803E+02 -0.61399729705E+02  0.57833340741E+03  0.59569882520E+03  0.12509000000E+03 0.  0.
         25    1    4    4    0    0  0.45254995751E+02 -0.32195574464E+02  0.55272210962E+03  0.56941532138E+03  0.12509000000E+03 0.  0.
<mgrwt>
<rscale>  2 0.45519892E+03</rscale>
<asrwt>0</asrwt>
<pdfrwt beam="1">  1       21 0.34259748E+00 0.45519892E+03</pdfrwt>
<pdfrwt beam="2">  1       21 0.32699452E-02 0.45519892E+03</pdfrwt>
<totfact> 0.87548082E+03</totfact>
</mgrwt>
</event>
<event>
 7    0  0.4748297E-002  0.4407128E+03  0.7546771E-02  0.1030528E+00
         21   -1    0    0  502  501  0.00000000000E+00  0.00000000000E+00  0.89781625714E+02  0.89781625714E+02  0.00000000000E+00 0. -1.
         21   -1    0    0  501  502 -0.00000000000E+00 -0.00000000000E+00 -0.54083395261E+03  0.54083395261E+03  0.00000000000E+00 0. -1.
      99926    2    1    2    0    0 -0.14210854715E-13  0.00000000000E+00 -0.45105232690E+03  0.63061557833E+03  0.44071283851E+03 0.  0.
      99925    2    3    3    0    0 -0.78914231864E+02  0.57709070243E+02 -0.26653154006E+03  0.38719573186E+03  0.26329390449E+03 0.  0.
         25    1    4    4    0    0 -0.23775883810E+00  0.10920324148E+02 -0.11060892757E+03  0.16733545042E+03  0.12509000000E+03 0.  0.
         25    1    3    3    0    0  0.78914231864E+02 -0.57709070243E+02 -0.18452078684E+03  0.24341984647E+03  0.12509000000E+03 0.  0.
         25    1    4    4    0    0 -0.78676473026E+02  0.46788746095E+02 -0.15592261249E+03  0.21986028144E+03  0.12509000000E+03 0.  0.
<mgrwt>
<rscale>  2 0.44071284E+03</rscale>
<asrwt>0</asrwt>
<pdfrwt beam="1">  1       21 0.13203181E-01 0.44071284E+03</pdfrwt>
<pdfrwt beam="2">  1       21 0.79534403E-01 0.44071284E+03</pdfrwt>
<totfact> 0.63719608E+04</totfact>
</mgrwt>
</event>
<event>
 7    0  0.4748297E-002  0.4476565E+03  0.7546771E-02  0.1028423E+00
         21   -1    0    0  502  501  0.00000000000E+00  0.00000000000E+00  0.35611888529E+03  0.35611888529E+03  0.00000000000E+00 0. -1.
         21   -1    0    0  501  502 -0.00000000000E+00 -0.00000000000E+00 -0.14068076041E+03  0.14068076041E+03  0.00000000000E+00 0. -1.
      99926    2    1    2    0    0 -0.17763568394E-14  0.00000000000E+00  0.21543812487E+03  0.49679964570E+03  0.44765645569E+03 0.  0.
      99925    2    3    3    0    0 -0.10813666591E+02 -0.86655862660E+02  0.20337814010E+03  0.34376656022E+03  0.26303346961E+03 0.  0.
         25    1    4    4    0    0 -0.30932090800E+02 -0.18959912120E+02  0.12307265909E+03  0.17919447543E+03  0.12509000000E+03 0.  0.
         25    1    3    3    0    0  0.10813666591E+02  0.86655862660E+02  0.12059984767E+02  0.15303308548E+03  0.12509000000E+03 0.  0.
         25    1    4    4    0    0  0.20118424209E+02 -0.67695950540E+02  0.80305481018E+02  0.16457208479E+03  0.12509000000E+03 0.  0.
<mgrwt>
<rscale>  2 0.44765646E+03</rscale>
<asrwt>0</asrwt>
<pdfrwt beam="1">  1       21 0.52370424E-01 0.44765646E+03</pdfrwt>
<pdfrwt beam="2">  1       21 0.20688347E-01 0.44765646E+03</pdfrwt>
<totfact> 0.69457473E+04</totfact>
</mgrwt>
</event>
<event>
 7    0  0.4748297E-002  0.4606030E+03  0.7546771E-02  0.1024606E+00
         21   -1    0    0  502  501  0.00000000000E+00  0.00000000000E+00  0.56331932957E+03  0.56331932957E+03  0.00000000000E+00 0. -1.
         21   -1    0    0  501  502 -0.00000000000E+00 -0.00000000000E+00 -0.94154026128E+02  0.94154026128E+02  0.00000000000E+00 0. -1.
      99926    2    1    2    0    0  0.71054273576E-14 -0.71054273576E-14  0.46916530344E+03  0.65747335570E+03  0.46060300857E+03 0.  0.
      99925    2    3    3    0    0  0.48974407634E+02 -0.54647788802E+02  0.16102519540E+03  0.31691101529E+03  0.26290417386E+03 0.  0.
         25    1    3    3    0    0 -0.48974407634E+02  0.54647788802E+02  0.30814010804E+03  0.34056234041E+03  0.12509000000E+03 0.  0.
         25    1    4    4    0    0  0.56521135418E+00 -0.23091465381E+02  0.11543064968E+03  0.17177100519E+03  0.12509000000E+03 0.  0.
         25    1    4    4    0    0  0.48409196279E+02 -0.31556323420E+02  0.45594545721E+02  0.14514001010E+03  0.12509000000E+03 0.  0.
<mgrwt>
<rscale>  2 0.46060301E+03</rscale>
<asrwt>0</asrwt>
<pdfrwt beam="1">  1       21 0.82841076E-01 0.46060301E+03</pdfrwt>
<pdfrwt beam="2">  1       21 0.13846181E-01 0.46060301E+03</pdfrwt>
<totfact> 0.52896296E+04</totfact>
</mgrwt>
</event>
<event>
 7    0  0.4748297E-002  0.4570144E+03  0.7546771E-02  0.1025651E+00
         21   -1    0    0  502  501  0.00000000000E+00  0.00000000000E+00  0.63236429696E+02  0.63236429696E+02  0.00000000000E+00 0.  1.
         21   -1    0    0  501  502 -0.00000000000E+00 -0.00000000000E+00 -0.82571941748E+03  0.82571941748E+03  0.00000000000E+00 0.  1.
      99926    2    1    2    0    0  0.71054273576E-14  0.71054273576E-14 -0.76248298778E+03  0.88895584717E+03  0.45701443256E+03 0.  0.
      99925    2    3    3    0    0  0.63247345530E+02  0.56046124749E+02 -0.63042190897E+03  0.68838408582E+03  0.26324792778E+03 0.  0.
         25    1    4    4    0    0  0.16767616944E+02  0.30722911293E+02 -0.40376411268E+03  0.42414386362E+03  0.12509000000E+03 0.  0.
         25    1    4    4    0    0  0.46479728586E+02  0.25323213457E+02 -0.22665779629E+03  0.26424022220E+03  0.12509000000E+03 0.  0.
         25    1    3    3    0    0 -0.63247345530E+02 -0.56046124749E+02 -0.13206107881E+03  0.20057176135E+03  0.12509000000E+03 0.  0.
<mgrwt>
<rscale>  2 0.45701443E+03</rscale>
<asrwt>0</asrwt>
<pdfrwt beam="1">  1       21 0.92994746E-02 0.45701443E+03</pdfrwt>
<pdfrwt beam="2">  1       21 0.12142933E+00 0.45701443E+03</pdfrwt>
<totfact> 0.43031812E+04</totfact>
</mgrwt>
</event>
<event>
 7    0  0.4748297E-002  0.4544979E+03  0.7546771E-02  0.1026389E+00
         21   -1    0    0  502  501  0.00000000000E+00  0.00000000000E+00  0.24865148340E+03  0.24865148340E+03  0.00000000000E+00 0.  1.
         21   -1    0    0  501  502 -0.00000000000E+00 -0.00000000000E+00 -0.20768859013E+03  0.20768859013E+03  0.00000000000E+00 0.  1.
      99926    2    1    2    0    0  0.00000000000E+00  0.00000000000E+00  0.40962893271E+02  0.45634007354E+03  0.45449785928E+03 0.  0.
      99925    2    3    3    0    0  0.91107765903E+02  0.39555295608E+02 -0.27526154430E+02  0.28254851974E+03  0.26307932341E+03 0.  0.
         25    1    3    3    0    0 -0.91107765903E+02 -0.39555295608E+02  0.68489047701E+02  0.17379155380E+03  0.12509000000E+03 0.  0.
         25    1    4    4    0    0  0.14222400231E+02  0.55401823733E+01 -0.37562361252E+02  0.13149680366E+03  0.12509000000E+03 0.  0.
         25    1    4    4    0    0  0.76885365672E+02  0.34015113235E+02  0.10036206822E+02  0.15105171608E+03  0.12509000000E+03 0.  0.
<mgrwt>
<rscale>  2 0.45449786E+03</rscale>
<asrwt>0</asrwt>
<pdfrwt beam="1">  1       21 0.36566395E-01 0.45449786E+03</pdfrwt>
<pdfrwt beam="2">  1       21 0.30542440E-01 0.45449786E+03</pdfrwt>
<totfact> 0.68722667E+04</totfact>
</mgrwt>
</event>
<event>
 7    0  0.4748297E-002  0.4559094E+03  0.7546771E-02  0.1025974E+00
         21   -1    0    0  502  501  0.00000000000E+00  0.00000000000E+00  0.10880875640E+04  0.10880875640E+04  0.00000000000E+00 0. -1.
         21   -1    0    0  501  502 -0.00000000000E+00 -0.00000000000E+00 -0.47756584091E+02  0.47756584091E+02  0.00000000000E+00 0. -1.
      99926    2    1    2    0    0  0.35527136788E-14  0.00000000000E+00  0.10403309799E+04  0.11358441480E+04  0.45590939997E+03 0.  0.
      99925    2    3    3    0    0 -0.25803847146E+02 -0.69570579036E+01  0.37818750289E+03  0.46145870086E+03  0.26306673311E+03 0.  0.
         25    1    4    4    0    0  0.25526837823E+02  0.69391149128E+01  0.19937238289E+03  0.23684726286E+03  0.12509000000E+03 0.  0.
         25    1    4    4    0    0 -0.51330684969E+02 -0.13896172816E+02  0.17881512001E+03  0.22461143800E+03  0.12509000000E+03 0.  0.
         25    1    3    3    0    0  0.25803847146E+02  0.69570579036E+01  0.66214347697E+03  0.67438544718E+03  0.12509000000E+03 0.  0.
<mgrwt>
<rscale>  2 0.45590940E+03</rscale>
<asrwt>0</asrwt>
<pdfrwt beam="1">  1       21 0.16001286E+00 0.45590940E+03</pdfrwt>
<pdfrwt beam="2">  1       21 0.70230278E-02 0.45590940E+03</pdfrwt>
<totfact> 0.34016765E+04</totfact>
</mgrwt>
</event>
<event>
 7    0  0.4748297E-002  0.4542068E+03  0.7546771E-02  0.1026475E+00
         21   -1    0    0  502  501  0.00000000000E+00  0.00000000000E+00  0.39028467327E+02  0.39028467327E+02  0.00000000000E+00 0. -1.
         21   -1    0    0  501  502 -0.00000000000E+00 -0.00000000000E+00 -0.13214957592E+04  0.13214957592E+04  0.00000000000E+00 0. -1.
      99926    2    1    2    0    0  0.00000000000E+00  0.00000000000E+00 -0.12824672918E+04  0.13605242265E+04  0.45420679898E+03 0.  0.
      99925    2    3    3    0    0  0.10747942849E+03  0.32885207828E+02 -0.80348642920E+03  0.85287923310E+03  0.26301954282E+03 0.  0.
         25    1    4    4    0    0  0.84006012139E+02  0.22275277046E+02 -0.34903659545E+03  0.38082443607E+03  0.12509000000E+03 0.  0.
         25    1    3    3    0    0 -0.10747942849E+03 -0.32885207828E+02 -0.47898086265E+03  0.50764499340E+03  0.12509000000E+03 0.  0.
         25    1    4    4    0    0  0.23473416354E+02  0.10609930782E+02 -0.45444983375E+03  0.47205479703E+03  0.12509000000E+03 0.  0.
<mgrwt>
<rscale>  2 0.45420680E+03</rscale>
<asrwt>0</asrwt>
<pdfrwt beam="1">  1       21 0.57394821E-02 0.45420680E+03</pdfrwt>
<pdfrwt beam="2">  1       21 0.19433756E+00 0.45420680E+03</pdfrwt>
<totfact> 0.27572839E+04</totfact>
</mgrwt>
</event>
<event>
 7    0  0.4748297E-002  0.4497604E+03  0.7546771E-02  0.1027794E+00
         21   -1    0    0  502  501  0.00000000000E+00  0.00000000000E+00  0.49547414553E+03  0.49547414553E+03  0.00000000000E+00 0. -1.
         21   -1    0    0  501  502 -0.00000000000E+00 -0.00000000000E+00 -0.10206608762E+03  0.10206608762E+03  0.00000000000E+00 0. -1.
      99926    2    1    2    0    0  0.35527136788E-14  0.00000000000E+00  0.39340805791E+03  0.59754023315E+03  0.44976041423E+03 0.  0.
      99925    2    3    3    0    0  0.17364285758E+02  0.10667829199E+03  0.24837262874E+03  0.37762079287E+03  0.26310971874E+03 0.  0.
         25    1    3    3    0    0 -0.17364285758E+02 -0.10667829199E+03  0.14503542917E+03  0.21991944028E+03  0.12509000000E+03 0.  0.
         25    1    4    4    0    0  0.33824508369E+02  0.85962626649E+02  0.11982350359E+03  0.19631314439E+03  0.12509000000E+03 0.  0.
         25    1    4    4    0    0 -0.16460222611E+02  0.20715665338E+02  0.12854912515E+03  0.18130764848E+03  0.12509000000E+03 0.  0.
<mgrwt>
<rscale>  2 0.44976041E+03</rscale>
<asrwt>0</asrwt>
<pdfrwt beam="1">  1       21 0.72863844E-01 0.44976041E+03</pdfrwt>
<pdfrwt beam="2">  1       21 0.15009719E-01 0.44976041E+03</pdfrwt>
<totfact> 0.61329896E+04</totfact>
</mgrwt>
</event>
<event>
 7    0  0.4748297E-002  0.4631210E+03  0.7546771E-02  0.1023880E+00
         21   -1    0    0  502  501  0.00000000000E+00  0.00000000000E+00  0.10623168670E+04  0.10623168670E+04  0.00000000000E+00 0. -1.
         21   -1    0    0  501  502 -0.00000000000E+00 -0.00000000000E+00 -0.50474827699E+02  0.50474827699E+02  0.00000000000E+00 0. -1.
      99926    2    1    2    0    0  0.00000000000E+00  0.00000000000E+00  0.10118420393E+04  0.11127916947E+04  0.46312098128E+03 0.  0.
      99925    2    3    3    0    0 -0.67056626977E+02 -0.97578931007E+02  0.57804910698E+03  0.64605616441E+03  0.26311510505E+03 0.  0.
         25    1    3    3    0    0  0.67056626977E+02  0.97578931007E+02  0.43379293237E+03  0.46673553033E+03  0.12509000000E+03 0.  0.
         25    1    4    4    0    0 -0.31195663919E+02 -0.66603050687E+02  0.38280157931E+03  0.40938208684E+03  0.12509000000E+03 0.  0.
         25    1    4    4    0    0 -0.35860963058E+02 -0.30975880319E+02  0.19524752767E+03  0.23667407757E+03  0.12509000000E+03 0.  0.
<mgrwt>
<rscale>  2 0.46312098E+03</rscale>
<asrwt>0</asrwt>
<pdfrwt beam="1">  1       21 0.15622305E+00 0.46312098E+03</pdfrwt>
<pdfrwt beam="2">  1       21 0.74227694E-02 0.46312098E+03</pdfrwt>
<totfact> 0.32915131E+04</totfact>
</mgrwt>
</event>
<event>
 7    0  0.4748297E-002  0.4519114E+03  0.7546771E-02  0.1027154E+00
         21   -1    0    0  502  501  0.00000000000E+00  0.00000000000E+00  0.10673501652E+04  0.10673501652E+04  0.00000000000E+00 0. -1.
         21   -1    0    0  501  502 -0.00000000000E+00 -0.00000000000E+00 -0.47834332976E+02  0.47834332976E+02  0.00000000000E+00 0. -1.
      99926    2    1    2    0    0  0.00000000000E+00  0.14210854715E-13  0.10195158322E+04  0.11151844982E+04  0.45191142142E+03 0.  0.
      99925    2    3    3    0    0 -0.55621841001E+02  0.94863400454E+02  0.66117180927E+03  0.72002528870E+03  0.26305018734E+03 0.  0.
         25    1    3    3    0    0  0.55621841001E+02 -0.94863400454E+02  0.35834402295E+03  0.39515920946E+03  0.12509000000E+03 0.  0.
         25    1    4    4    0    0 -0.54426124931E+02  0.37509730819E+02  0.40851708461E+03  0.43232267984E+03  0.12509000000E+03 0.  0.
         25    1    4    4    0    0 -0.11957160695E+01  0.57353669635E+02  0.25265472466E+03  0.28770260887E+03  0.12509000000E+03 0.  0.
<mgrwt>
<rscale>  2 0.45191142E+03</rscale>
<asrwt>0</asrwt>
<pdfrwt beam="1">  1       21 0.15696324E+00 0.45191142E+03</pdfrwt>
<pdfrwt beam="2">  1       21 0.70344614E-02 0.45191142E+03</pdfrwt>
<totfact> 0.35821074E+04</totfact>
</mgrwt>
</event>
<event>
 7    0  0.4748297E-002  0.4514425E+03  0.7546771E-02  0.1027293E+00
         21   -1    0    0  502  501  0.00000000000E+00  0.00000000000E+00  0.41852728977E+02  0.41852728977E+02  0.00000000000E+00 0.  1.
         21   -1    0    0  501  502 -0.00000000000E+00 -0.00000000000E+00 -0.12173657536E+04  0.12173657536E+04  0.00000000000E+00 0.  1.
      99926    2    1    2    0    0  0.00000000000E+00  0.00000000000E+00 -0.11755130246E+04  0.12592184826E+04  0.45144248339E+03 0.  0.
      99925    2    3    3    0    0 -0.24563553371E+01  0.36890792948E+02 -0.10304582209E+04  0.10641406303E+04  0.26302884186E+03 0.  0.
         25    1    4    4    0    0  0.28690778125E+01  0.58838033604E+02 -0.51445711123E+03  0.53271359397E+03  0.12509000000E+03 0.  0.
         25    1    3    3    0    0  0.24563553371E+01 -0.36890792948E+02 -0.14505480374E+03  0.19507785234E+03  0.12509000000E+03 0.  0.
         25    1    4    4    0    0 -0.53254331496E+01 -0.21947240656E+02 -0.51600110967E+03  0.53142703628E+03  0.12509000000E+03 0.  0.
<mgrwt>
<rscale>  2 0.45144248E+03</rscale>
<asrwt>0</asrwt>
<pdfrwt beam="1">  1       21 0.61548140E-02 0.45144248E+03</pdfrwt>
<pdfrwt beam="2">  1       21 0.17902435E+00 0.45144248E+03</pdfrwt>
<totfact> 0.31176848E+04</totfact>
</mgrwt>
</event>
<event>
 7    0  0.4748297E-002  0.4516237E+03  0.7546771E-02  0.1027239E+00
         21   -1    0    0  502  501  0.00000000000E+00  0.00000000000E+00  0.23576780886E+03  0.23576780886E+03  0.00000000000E+00 0. -1.
         21   -1    0    0  501  502 -0.00000000000E+00 -0.00000000000E+00 -0.21627629674E+03  0.21627629674E+03  0.00000000000E+00 0. -1.
      99926    2    1    2    0    0 -0.14210854715E-13  0.00000000000E+00  0.19491512125E+02  0.45204410560E+03  0.45162368667E+03 0.  0.
      99925    2    3    3    0    0 -0.82846778214E+02  0.47938312955E+02  0.66260710197E+02  0.28773787779E+03  0.26313672129E+03 0.  0.
         25    1    4    4    0    0 -0.14767167210E+01  0.23418866364E+02  0.45153623690E+02  0.13504436984E+03  0.12509000000E+03 0.  0.
         25    1    3    3    0    0  0.82846778214E+02 -0.47938312955E+02 -0.46769198073E+02  0.16430622781E+03  0.12509000000E+03 0.  0.
         25    1    4    4    0    0 -0.81370061493E+02  0.24519446591E+02  0.21107086508E+02  0.15269350795E+03  0.12509000000E+03 0.  0.
<mgrwt>
<rscale>  2 0.45162369E+03</rscale>
<asrwt>0</asrwt>
<pdfrwt beam="1">  1       21 0.34671737E-01 0.45162369E+03</pdfrwt>
<pdfrwt beam="2">  1       21 0.31805338E-01 0.45162369E+03</pdfrwt>
<totfact> 0.70646983E+04</totfact>
</mgrwt>
</event>
<event>
 7    0  0.4748297E-002  0.4570866E+03  0.7546771E-02  0.1025630E+00
         21   -1    0    0  502  501  0.00000000000E+00  0.00000000000E+00  0.89190397312E+03  0.89190397312E+03  0.00000000000E+00 0.  1.
         21   -1    0    0  501  502 -0.00000000000E+00 -0.00000000000E+00 -0.58562393060E+02  0.58562393060E+02  0.00000000000E+00 0.  1.
      99926    2    1    2    0    0  0.00000000000E+00  0.00000000000E+00  0.83334158006E+03  0.95046636618E+03  0.45708656093E+03 0.  0.
      99925    2    3    3    0    0  0.91540408178E+02 -0.66859858101E+02  0.48222083325E+03  0.56087276524E+03  0.26304265778E+03 0.  0.
         25    1    3    3    0    0 -0.91540408178E+02  0.66859858101E+02  0.35112074681E+03  0.38959360094E+03  0.12509000000E+03 0.  0.
         25    1    4    4    0    0  0.36163462970E+02 -0.62495880875E+02  0.30016285291E+03  0.33310475461E+03  0.12509000000E+03 0.  0.
         25    1    4    4    0    0  0.55376945208E+02 -0.43639772264E+01  0.18205798034E+03  0.22776801063E+03  0.12509000000E+03 0.  0.
<mgrwt>
<rscale>  2 0.45708656E+03</rscale>
<asrwt>0</asrwt>
<pdfrwt beam="1">  1       21 0.13116234E+00 0.45708656E+03</pdfrwt>
<pdfrwt beam="2">  1       21 0.86121172E-02 0.45708656E+03</pdfrwt>
<totfact> 0.40457760E+04</totfact>
</mgrwt>
</event>
<event>
 7    0  0.4748297E-002  0.4604694E+03  0.7546771E-02  0.1024645E+00
         21   -1    0    0  502  501  0.00000000000E+00  0.00000000000E+00  0.93672392384E+03  0.93672392384E+03  0.00000000000E+00 0. -1.
         21   -1    0    0  501  502 -0.00000000000E+00 -0.00000000000E+00 -0.56588726659E+02  0.56588726659E+02  0.00000000000E+00 0. -1.
      99926    2    1    2    0    0  0.00000000000E+00  0.00000000000E+00  0.88013519718E+03  0.99331265050E+03  0.46046938696E+03 0.  0.
      99925    2    3    3    0    0  0.10388646585E+03 -0.55555049830E+02  0.53033963985E+03  0.60359069657E+03  0.26302629914E+03 0.  0.
         25    1    3    3    0    0 -0.10388646585E+03  0.55555049830E+02  0.34979555733E+03  0.38972195393E+03  0.12509000000E+03 0.  0.
         25    1    4    4    0    0  0.16852375888E+02 -0.27193149333E+02  0.19127715601E+03  0.23077679358E+03  0.12509000000E+03 0.  0.
         25    1    4    4    0    0  0.87034089957E+02 -0.28361900497E+02  0.33906248384E+03  0.37281390299E+03  0.12509000000E+03 0.  0.
<mgrwt>
<rscale>  2 0.46046939E+03</rscale>
<asrwt>0</asrwt>
<pdfrwt beam="1">  1       21 0.13775351E+00 0.46046939E+03</pdfrwt>
<pdfrwt beam="2">  1       21 0.83218722E-02 0.46046939E+03</pdfrwt>
<totfact> 0.37787643E+04</totfact>
</mgrwt>
</event>
<event>
 7    0  0.4748297E-002  0.4560247E+03  0.7546771E-02  0.1025941E+00
         21   -1    0    0  502  501  0.00000000000E+00  0.00000000000E+00  0.16475844239E+04  0.16475844239E+04  0.00000000000E+00 0.  1.
         21   -1    0    0  501  502 -0.00000000000E+00 -0.00000000000E+00 -0.31555061317E+02  0.31555061317E+02  0.00000000000E+00 0.  1.
      99926    2    1    2    0    0  0.00000000000E+00  0.14210854715E-13  0.16160293626E+04  0.16791394852E+04  0.45602468144E+03 0.  0.
      99925    2    3    3    0    0 -0.49442154714E+02  0.10075868756E+03  0.93848384972E+03  0.98106193230E+03  0.26293295541E+03 0.  0.
         25    1    4    4    0    0 -0.11164053872E+02  0.16939542215E+02  0.34358722069E+03  0.36621205675E+03  0.12509000000E+03 0.  0.
         25    1    3    3    0    0  0.49442154714E+02 -0.10075868756E+03  0.67754551285E+03  0.69807755290E+03  0.12509000000E+03 0.  0.
         25    1    4    4    0    0 -0.38278100842E+02  0.83819145349E+02  0.59489662903E+03  0.61484987554E+03  0.12509000000E+03 0.  0.
<mgrwt>
<rscale>  2 0.45602468E+03</rscale>
<asrwt>0</asrwt>
<pdfrwt beam="1">  1       21 0.24229177E+00 0.45602468E+03</pdfrwt>
<pdfrwt beam="2">  1       21 0.46404513E-02 0.45602468E+03</pdfrwt>
<totfact> 0.19543219E+04</totfact>
</mgrwt>
</event>
<event>
 7    0  0.4748297E-002  0.4754446E+03  0.7546771E-02  0.1020395E+00
         21   -1    0    0  502  501  0.00000000000E+00  0.00000000000E+00  0.57061383852E+02  0.57061383852E+02  0.00000000000E+00 0.  1.
         21   -1    0    0  501  502 -0.00000000000E+00 -0.00000000000E+00 -0.99037034848E+03  0.99037034848E+03  0.00000000000E+00 0.  1.
      99926    2    1    2    0    0  0.00000000000E+00  0.00000000000E+00 -0.93330896463E+03  0.10474317323E+04  0.47544464498E+03 0.  0.
      99925    2    3    3    0    0 -0.11182699439E+03 -0.18765249097E+02 -0.72388755884E+03  0.77842941905E+03  0.26283407571E+03 0.  0.
         25    1    3    3    0    0  0.11182699439E+03  0.18765249097E+02 -0.20942140579E+03  0.26900231328E+03  0.12509000000E+03 0.  0.
         25    1    4    4    0    0 -0.24245802763E+02 -0.33299485507E+02 -0.36953193277E+03  0.39229844777E+03  0.12509000000E+03 0.  0.
         25    1    4    4    0    0 -0.87581191627E+02  0.14534236410E+02 -0.35435562607E+03  0.38613097128E+03  0.12509000000E+03 0.  0.
<mgrwt>
<rscale>  2 0.47544464E+03</rscale>
<asrwt>0</asrwt>
<pdfrwt beam="1">  1       21 0.83913807E-02 0.47544464E+03</pdfrwt>
<pdfrwt beam="2">  1       21 0.14564269E+00 0.47544464E+03</pdfrwt>
<totfact> 0.31958750E+04</totfact>
</mgrwt>
</event>
<event>
 7    0  0.4748297E-002  0.4474533E+03  0.7546771E-02  0.1028484E+00
         21   -1    0    0  502  501  0.00000000000E+00  0.00000000000E+00  0.51142846490E+03  0.51142846490E+03  0.00000000000E+00 0.  1.
         21   -1    0    0  501  502 -0.00000000000E+00 -0.00000000000E+00 -0.97870205683E+02  0.97870205683E+02  0.00000000000E+00 0.  1.
      99926    2    1    2    0    0  0.71054273576E-14 -0.14210854715E-13  0.41355825922E+03  0.60929867058E+03  0.44745327824E+03 0.  0.
      99925    2    3    3    0    0 -0.61372344626E+02  0.67430039702E+02  0.18872660738E+03  0.33633318795E+03  0.26303784147E+03 0.  0.
         25    1    4    4    0    0 -0.16845721843E+02  0.70561483136E+02  0.11238202602E+03  0.18313909774E+03  0.12509000000E+03 0.  0.
         25    1    3    3    0    0  0.61372344626E+02 -0.67430039702E+02  0.22483165184E+03  0.27296548263E+03  0.12509000000E+03 0.  0.
         25    1    4    4    0    0 -0.44526622784E+02 -0.31314434343E+01  0.76344581355E+02  0.15319409021E+03  0.12509000000E+03 0.  0.
<mgrwt>
<rscale>  2 0.44745328E+03</rscale>
<asrwt>0</asrwt>
<pdfrwt beam="1">  1       21 0.75210067E-01 0.44745328E+03</pdfrwt>
<pdfrwt beam="2">  1       21 0.14392678E-01 0.44745328E+03</pdfrwt>
<totfact> 0.61706390E+04</totfact>
</mgrwt>
</event>
<event>
 7    0  0.4748297E-002  0.4586327E+03  0.7546771E-02  0.1025179E+00
         21   -1    0    0  502  501  0.00000000000E+00  0.00000000000E+00  0.56185241407E+03  0.56185241407E+03  0.00000000000E+00 0.  1.
         21   -1    0    0  501  502 -0.00000000000E+00 -0.00000000000E+00 -0.93593963302E+02  0.93593963302E+02  0.00000000000E+00 0.  1.
      99926    2    1    2    0    0  0.71054273576E-14  0.00000000000E+00  0.46825845077E+03  0.65544637737E+03  0.45863272549E+03 0.  0.
      99925    2    3    3    0    0 -0.62729948675E+02 -0.72411061294E+02  0.19852399478E+03  0.34306425063E+03  0.26287429563E+03 0.  0.
         25    1    4    4    0    0 -0.76343875380E+01 -0.31226029784E+02  0.54202886475E+02  0.14006716179E+03  0.12509000000E+03 0.  0.
         25    1    4    4    0    0 -0.55095561137E+02 -0.41185031510E+02  0.14432110830E+03  0.20299708885E+03  0.12509000000E+03 0.  0.
         25    1    3    3    0    0  0.62729948675E+02  0.72411061294E+02  0.26973445599E+03  0.31238212674E+03  0.12509000000E+03 0.  0.
<mgrwt>
<rscale>  2 0.45863273E+03</rscale>
<asrwt>0</asrwt>
<pdfrwt beam="1">  1       21 0.82625354E-01 0.45863273E+03</pdfrwt>
<pdfrwt beam="2">  1       21 0.13763818E-01 0.45863273E+03</pdfrwt>
<totfact> 0.53829708E+04</totfact>
</mgrwt>
</event>
<event>
 7    0  0.4748297E-002  0.4562705E+03  0.7546771E-02  0.1025868E+00
         21   -1    0    0  502  501  0.00000000000E+00  0.00000000000E+00  0.93095039172E+02  0.93095039172E+02  0.00000000000E+00 0.  1.
         21   -1    0    0  501  502 -0.00000000000E+00 -0.00000000000E+00 -0.55905972716E+03  0.55905972716E+03  0.00000000000E+00 0.  1.
      99926    2    1    2    0    0  0.00000000000E+00 -0.71054273576E-14 -0.46596468799E+03  0.65215476633E+03  0.45627047767E+03 0.  0.
      99925    2    3    3    0    0  0.61593741166E+02  0.56656230631E+02 -0.40434987443E+03  0.48952755222E+03  0.26293475619E+03 0.  0.
         25    1    4    4    0    0  0.57137122854E+02  0.98683619529E+01 -0.16156542472E+03  0.21239804599E+03  0.12509000000E+03 0.  0.
         25    1    4    4    0    0  0.44566183127E+01  0.46787868678E+02 -0.24278444971E+03  0.27712950623E+03  0.12509000000E+03 0.  0.
         25    1    3    3    0    0 -0.61593741166E+02 -0.56656230631E+02 -0.61614813559E+02  0.16262721411E+03  0.12509000000E+03 0.  0.
<mgrwt>
<rscale>  2 0.45627048E+03</rscale>
<asrwt>0</asrwt>
<pdfrwt beam="1">  1       21 0.13690447E-01 0.45627048E+03</pdfrwt>
<pdfrwt beam="2">  1       21 0.82214666E-01 0.45627048E+03</pdfrwt>
<totfact> 0.55023991E+04</totfact>
</mgrwt>
</event>
<event>
 7    0  0.4748297E-002  0.4562581E+03  0.7546771E-02  0.1025872E+00
         21   -1    0    0  502  501  0.00000000000E+00  0.00000000000E+00  0.49316864389E+03  0.49316864389E+03  0.00000000000E+00 0. -1.
         21   -1    0    0  501  502 -0.00000000000E+00 -0.00000000000E+00 -0.10552750251E+03  0.10552750251E+03  0.00000000000E+00 0. -1.
      99926    2    1    2    0    0  0.00000000000E+00  0.00000000000E+00  0.38764114138E+03  0.59869614640E+03  0.45625806429E+03 0.  0.
      99925    2    3    3    0    0  0.68324523175E+02  0.91146419518E+02  0.23018636138E+03  0.36757837101E+03  0.26296803534E+03 0.  0.
         25    1    3    3    0    0 -0.68324523175E+02 -0.91146419518E+02  0.15745478000E+03  0.23111777539E+03  0.12509000000E+03 0.  0.
         25    1    4    4    0    0  0.24144418831E+02  0.37505168785E+02  0.16078400102E+03  0.20853918991E+03  0.12509000000E+03 0.  0.
         25    1    4    4    0    0  0.44180104344E+02  0.53641250733E+02  0.69402360360E+02  0.15903918110E+03  0.12509000000E+03 0.  0.
<mgrwt>
<rscale>  2 0.45625806E+03</rscale>
<asrwt>0</asrwt>
<pdfrwt beam="1">  1       21 0.72524800E-01 0.45625806E+03</pdfrwt>
<pdfrwt beam="2">  1       21 0.15518751E-01 0.45625806E+03</pdfrwt>
<totfact> 0.58178101E+04</totfact>
</mgrwt>
</event>
<event>
 7    0  0.4748297E-002  0.4638838E+03  0.7546771E-02  0.1023661E+00
         21   -1    0    0  502  501  0.00000000000E+00  0.00000000000E+00  0.55249063583E+03  0.55249063583E+03  0.00000000000E+00 0.  1.
         21   -1    0    0  501  502 -0.00000000000E+00 -0.00000000000E+00 -0.97371866261E+02  0.97371866261E+02  0.00000000000E+00 0.  1.
      99926    2    1    2    0    0 -0.14210854715E-13  0.17763568394E-14  0.45511876956E+03  0.64986250209E+03  0.46388379710E+03 0.  0.
      99925    2    3    3    0    0 -0.11843618166E+03  0.11444479156E+02  0.25082813175E+03  0.38239235791E+03  0.26296588843E+03 0.  0.
         25    1    4    4    0    0 -0.48934713044E+02  0.31200771224E+02  0.82975996627E+02  0.16093669060E+03  0.12509000000E+03 0.  0.
         25    1    3    3    0    0  0.11843618166E+03 -0.11444479156E+02  0.20429063781E+03  0.26747014418E+03  0.12509000000E+03 0.  0.
         25    1    4    4    0    0 -0.69501468615E+02 -0.19756292068E+02  0.16785213512E+03  0.22145566730E+03  0.12509000000E+03 0.  0.
<mgrwt>
<rscale>  2 0.46388380E+03</rscale>
<asrwt>0</asrwt>
<pdfrwt beam="1">  1       21 0.81248622E-01 0.46388380E+03</pdfrwt>
<pdfrwt beam="2">  1       21 0.14319392E-01 0.46388380E+03</pdfrwt>
<totfact> 0.51969945E+04</totfact>
</mgrwt>
</event>
<event>
 7    0  0.4748297E-002  0.4551038E+03  0.7546771E-02  0.1026211E+00
         21   -1    0    0  502  501  0.00000000000E+00  0.00000000000E+00  0.28087290778E+03  0.28087290778E+03  0.00000000000E+00 0.  1.
         21   -1    0    0  501  502 -0.00000000000E+00 -0.00000000000E+00 -0.18435340526E+03  0.18435340526E+03  0.00000000000E+00 0.  1.
      99926    2    1    2    0    0  0.00000000000E+00  0.17763568394E-14  0.96519502514E+02  0.46522631304E+03  0.45510384307E+03 0.  0.
      99925    2    3    3    0    0 -0.11292144538E+03  0.10618031846E+02  0.57806630503E+02  0.29199181883E+03  0.26278055542E+03 0.  0.
         25    1    4    4    0    0 -0.86982784667E+02  0.34532711962E+02  0.29917545966E+02  0.15906313426E+03  0.12509000000E+03 0.  0.
         25    1    4    4    0    0 -0.25938660709E+02 -0.23914680116E+02  0.27889084537E+02  0.13292868457E+03  0.12509000000E+03 0.  0.
         25    1    3    3    0    0  0.11292144538E+03 -0.10618031846E+02  0.38712872011E+02  0.17323449421E+03  0.12509000000E+03 0.  0.
<mgrwt>
<rscale>  2 0.45510384E+03</rscale>
<asrwt>0</asrwt>
<pdfrwt beam="1">  1       21 0.41304839E-01 0.45510384E+03</pdfrwt>
<pdfrwt beam="2">  1       21 0.27110795E-01 0.45510384E+03</pdfrwt>
<totfact> 0.67737265E+04</totfact>
</mgrwt>
</event>
<event>
 7    0  0.4748297E-002  0.4624614E+03  0.7546771E-02  0.1024070E+00
         21   -1    0    0  502  501  0.00000000000E+00  0.00000000000E+00  0.86726337127E+03  0.86726337127E+03  0.00000000000E+00 0. -1.
         21   -1    0    0  501  502 -0.00000000000E+00 -0.00000000000E+00 -0.61650970609E+02  0.61650970609E+02  0.00000000000E+00 0. -1.
      99926    2    1    2    0    0  0.00000000000E+00  0.00000000000E+00  0.80561240066E+03  0.92891434188E+03  0.46246136536E+03 0.  0.
      99925    2    3    3    0    0  0.11370639213E+03 -0.37148205316E+02  0.52343307848E+03  0.59788290721E+03  0.26300693968E+03 0.  0.
         25    1    4    4    0    0  0.51578565225E+02 -0.29194880330E+02  0.18013900643E+03  0.22717891444E+03  0.12509000000E+03 0.  0.
         25    1    4    4    0    0  0.62127826904E+02 -0.79533249864E+01  0.34329407206E+03  0.37070399278E+03  0.12509000000E+03 0.  0.
         25    1    3    3    0    0 -0.11370639213E+03  0.37148205316E+02  0.28217932218E+03  0.33103143466E+03  0.12509000000E+03 0.  0.
<mgrwt>
<rscale>  2 0.46246137E+03</rscale>
<asrwt>0</asrwt>
<pdfrwt beam="1">  1       21 0.12753872E+00 0.46246137E+03</pdfrwt>
<pdfrwt beam="2">  1       21 0.90663197E-02 0.46246137E+03</pdfrwt>
<totfact> 0.39641266E+04</totfact>
</mgrwt>
</event>
<event>
 7    0  0.4748297E-002  0.4567401E+03  0.7546771E-02  0.1025731E+00
         21   -1    0    0  502  501  0.00000000000E+00  0.00000000000E+00  0.52710504144E+03  0.52710504144E+03  0.00000000000E+00 0.  1.
         21   -1    0    0  501  502 -0.00000000000E+00 -0.00000000000E+00 -0.98942081955E+02  0.98942081955E+02  0.00000000000E+00 0.  1.
      99926    2    1    2    0    0  0.00000000000E+00  0.00000000000E+00  0.42816295948E+03  0.62604712339E+03  0.45674005828E+03 0.  0.
      99925    2    3    3    0    0 -0.52913821026E+02  0.88110722971E+02  0.19831398312E+03  0.34490404239E+03  0.26280599423E+03 0.  0.
         25    1    4    4    0    0 -0.23919814702E+02  0.81055167288E+01  0.11707181022E+03  0.17317959980E+03  0.12509000000E+03 0.  0.
         25    1    4    4    0    0 -0.28994006324E+02  0.80005206242E+02  0.81242172894E+02  0.17172444260E+03  0.12509000000E+03 0.  0.
         25    1    3    3    0    0  0.52913821026E+02 -0.88110722971E+02  0.22984897636E+03  0.28114308100E+03  0.12509000000E+03 0.  0.
<mgrwt>
<rscale>  2 0.45674006E+03</rscale>
<asrwt>0</asrwt>
<pdfrwt beam="1">  1       21 0.77515446E-01 0.45674006E+03</pdfrwt>
<pdfrwt beam="2">  1       21 0.14550306E-01 0.45674006E+03</pdfrwt>
<totfact> 0.56325180E+04</totfact>
</mgrwt>
</event>
<event>
 7    0  0.4748297E-002  0.4586557E+03  0.7546771E-02  0.1025172E+00
         21   -1    0    0  502  501  0.00000000000E+00  0.00000000000E+00  0.86117957899E+02  0.86117957899E+02  0.00000000000E+00 0.  1.
         21   -1    0    0  501  502 -0.00000000000E+00 -0.00000000000E+00 -0.61068862459E+03  0.61068862459E+03  0.00000000000E+00 0.  1.
      99926    2    1    2    0    0  0.00000000000E+00  0.00000000000E+00 -0.52457066669E+03  0.69680658249E+03  0.45865567591E+03 0.  0.
      99925    2    3    3    0    0  0.78765736850E+02  0.15306817097E+02 -0.20054019876E+03  0.34032153063E+03  0.26299055675E+03 0.  0.
         25    1    3    3    0    0 -0.78765736850E+02 -0.15306817097E+02 -0.32403046793E+03  0.35648505186E+03  0.12509000000E+03 0.  0.
         25    1    4    4    0    0  0.78845134814E+02  0.31335552304E+01 -0.12530072581E+03  0.19384053870E+03  0.12509000000E+03 0.  0.
         25    1    4    4    0    0 -0.79397963336E-01  0.12173261867E+02 -0.75239472941E+02  0.14648099193E+03  0.12509000000E+03 0.  0.
<mgrwt>
<rscale>  2 0.45865568E+03</rscale>
<asrwt>0</asrwt>
<pdfrwt beam="1">  1       21 0.12664405E-01 0.45865568E+03</pdfrwt>
<pdfrwt beam="2">  1       21 0.89807155E-01 0.45865568E+03</pdfrwt>
<totfact> 0.51576621E+04</totfact>
</mgrwt>
</event>
<event>
 7    0  0.4748297E-002  0.4525190E+03  0.7546771E-02  0.1026974E+00
         21   -1    0    0  502  501  0.00000000000E+00  0.00000000000E+00  0.18571653080E+03  0.18571653080E+03  0.00000000000E+00 0. -1.
         21   -1    0    0  501  502 -0.00000000000E+00 -0.00000000000E+00 -0.27565324271E+03  0.27565324271E+03  0.00000000000E+00 0. -1.
      99926    2    1    2    0    0 -0.71054273576E-14  0.14210854715E-13 -0.89936711914E+02  0.46136977351E+03  0.45251901149E+03 0.  0.
      99925    2    3    3    0    0 -0.46860909289E+02  0.10006808201E+03 -0.66130544514E+02  0.29277615690E+03  0.26293547359E+03 0.  0.
         25    1    4    4    0    0  0.61683190803E+01  0.23260070992E+02 -0.13639842700E+02  0.12811179677E+03  0.12509000000E+03 0.  0.
         25    1    4    4    0    0 -0.53029228369E+02  0.76808011023E+02 -0.52490701814E+02  0.16466436013E+03  0.12509000000E+03 0.  0.
         25    1    3    3    0    0  0.46860909289E+02 -0.10006808201E+03 -0.23806167400E+02  0.16859361662E+03  0.12509000000E+03 0.  0.
<mgrwt>
<rscale>  2 0.45251901E+03</rscale>
<asrwt>0</asrwt>
<pdfrwt beam="1">  1       21 0.27311255E-01 0.45251901E+03</pdfrwt>
<pdfrwt beam="2">  1       21 0.40537241E-01 0.45251901E+03</pdfrwt>
<totfact> 0.69439977E+04</totfact>
</mgrwt>
</event>
<event>
 7    0  0.4748297E-002  0.4749709E+03  0.7546771E-02  0.1020527E+00
         21   -1    0    0  502  501  0.00000000000E+00  0.00000000000E+00  0.41824470509E+03  0.41824470509E+03  0.00000000000E+00 0. -1.
         21   -1    0    0  501  502 -0.00000000000E+00 -0.00000000000E+00 -0.13484769558E+03  0.13484769558E+03  0.00000000000E+00 0. -1.
      99926    2    1    2    0    0  0.00000000000E+00  0.71054273576E-14  0.28339700951E+03  0.55309240067E+03  0.47497088193E+03 0.  0.
      99925    2    3    3    0    0 -0.78675917093E+02 -0.59565175677E+02  0.74853260611E+02  0.29065019105E+03  0.26293842026E+03 0.  0.
         25    1    4    4    0    0 -0.76981015120E+02 -0.18228413710E+02  0.52329514340E+02  0.15698483343E+03  0.12509000000E+03 0.  0.
         25    1    3    3    0    0  0.78675917093E+02  0.59565175677E+02  0.20854374890E+03  0.26244220962E+03  0.12509000000E+03 0.  0.
         25    1    4    4    0    0 -0.16949019725E+01 -0.41336761967E+02  0.22523746271E+02  0.13366535762E+03  0.12509000000E+03 0.  0.
<mgrwt>
<rscale>  2 0.47497088E+03</rscale>
<asrwt>0</asrwt>
<pdfrwt beam="1">  1       21 0.61506574E-01 0.47497088E+03</pdfrwt>
<pdfrwt beam="2">  1       21 0.19830544E-01 0.47497088E+03</pdfrwt>
<totfact> 0.52805609E+04</totfact>
</mgrwt>
</event>
<event>
 7    0  0.4748297E-002  0.4575621E+03  0.7546771E-02  0.1025491E+00
         21   -1    0    0  502  501  0.00000000000E+00  0.00000000000E+00  0.96315679715E+03  0.96315679715E+03  0.00000000000E+00 0.  1.
         21   -1    0    0  501  502 -0.00000000000E+00 -0.00000000000E+00 -0.54342927636E+02  0.54342927636E+02  0.00000000000E+00 0.  1.
      99926    2    1    2    0    0  0.00000000000E+00  0.00000000000E+00  0.90881386952E+03  0.10174997248E+04  0.45756206193E+03 0.  0.
      99925    2    3    3    0    0 -0.24305441014E+02  0.45667784970E+02  0.80039097187E+03  0.84406577805E+03  0.26295442338E+03 0.  0.
         25    1    3    3    0    0  0.24305441014E+02 -0.45667784970E+02  0.10842289764E+03  0.17343394674E+03  0.12509000000E+03 0.  0.
         25    1    4    4    0    0 -0.38272856636E+02  0.36160575334E+01  0.47386157362E+03  0.49159962010E+03  0.12509000000E+03 0.  0.
         25    1    4    4    0    0  0.13967415622E+02  0.42051727436E+02  0.32652939825E+03  0.35246615795E+03  0.12509000000E+03 0.  0.
<mgrwt>
<rscale>  2 0.45756206E+03</rscale>
<asrwt>0</asrwt>
<pdfrwt beam="1">  1       21 0.14164069E+00 0.45756206E+03</pdfrwt>
<pdfrwt beam="2">  1       21 0.79916076E-02 0.45756206E+03</pdfrwt>
<totfact> 0.37732447E+04</totfact>
</mgrwt>
</event>
<event>
 7    0  0.4748297E-002  0.4568706E+03  0.7546771E-02  0.1025693E+00
         21   -1    0    0  502  501  0.00000000000E+00  0.00000000000E+00  0.23819743982E+03  0.23819743982E+03  0.00000000000E+00 0. -1.
         21   -1    0    0  501  502 -0.00000000000E+00 -0.00000000000E+00 -0.21907327312E+03  0.21907327312E+03  0.00000000000E+00 0. -1.
      99926    2    1    2    0    0  0.14210854715E-13 -0.17763568394E-14  0.19124166696E+02  0.45727071293E+03  0.45687062847E+03 0.  0.
      99925    2    3    3    0    0  0.93395943357E+02 -0.83851557966E+01 -0.54998766350E+02  0.28425386296E+03  0.26264478147E+03 0.  0.
         25    1    4    4    0    0  0.53285228955E+02  0.22918219868E+02 -0.56989495948E+02  0.14919742349E+03  0.12509000000E+03 0.  0.
         25    1    3    3    0    0 -0.93395943357E+02  0.83851557966E+01  0.74122933046E+02  0.17301684998E+03  0.12509000000E+03 0.  0.
         25    1    4    4    0    0  0.40110714402E+02 -0.31303375664E+02  0.19907295986E+01  0.13505643947E+03  0.12509000000E+03 0.  0.
<mgrwt>
<rscale>  2 0.45687063E+03</rscale>
<asrwt>0</asrwt>
<pdfrwt beam="1">  1       21 0.35029035E-01 0.45687063E+03</pdfrwt>
<pdfrwt beam="2">  1       21 0.32216658E-01 0.45687063E+03</pdfrwt>
<totfact> 0.67368640E+04</totfact>
</mgrwt>
</event>
<event>
 7    0  0.4748297E-002  0.4543846E+03  0.7546771E-02  0.1026423E+00
         21   -1    0    0  502  501  0.00000000000E+00  0.00000000000E+00  0.23549265090E+03  0.23549265090E+03  0.00000000000E+00 0.  1.
         21   -1    0    0  501  502 -0.00000000000E+00 -0.00000000000E+00 -0.21918448043E+03  0.21918448043E+03  0.00000000000E+00 0.  1.
      99926    2    1    2    0    0 -0.14210854715E-13  0.00000000000E+00  0.16308170468E+02  0.45467713134E+03  0.45438456987E+03 0.  0.
      99925    2    3    3    0    0  0.79065968592E+02  0.74034759185E+02  0.39411094867E+02  0.28760281801E+03  0.26349492134E+03 0.  0.
         25    1    4    4    0    0  0.25893880724E+02  0.59167777338E+02  0.52489010834E+02  0.15024620891E+03  0.12509000000E+03 0.  0.
         25    1    4    4    0    0  0.53172087868E+02  0.14866981847E+02 -0.13077915967E+02  0.13735660910E+03  0.12509000000E+03 0.  0.
         25    1    3    3    0    0 -0.79065968592E+02 -0.74034759185E+02 -0.23102924399E+02  0.16707431332E+03  0.12509000000E+03 0.  0.
<mgrwt>
<rscale>  2 0.45438457E+03</rscale>
<asrwt>0</asrwt>
<pdfrwt beam="1">  1       21 0.34631272E-01 0.45438457E+03</pdfrwt>
<pdfrwt beam="2">  1       21 0.32233012E-01 0.45438457E+03</pdfrwt>
<totfact> 0.68907212E+04</totfact>
</mgrwt>
</event>
<event>
 7    0  0.4748297E-002  0.4423156E+03  0.7546771E-02  0.1030039E+00
         21   -1    0    0  502  501  0.00000000000E+00  0.00000000000E+00  0.88388761495E+02  0.88388761495E+02  0.00000000000E+00 0.  1.
         21   -1    0    0  501  502 -0.00000000000E+00 -0.00000000000E+00 -0.55335962445E+03  0.55335962445E+03  0.00000000000E+00 0.  1.
      99926    2    1    2    0    0  0.00000000000E+00  0.71054273576E-14 -0.46497086296E+03  0.64174838595E+03  0.44231559713E+03 0.  0.
      99925    2    3    3    0    0 -0.78142199662E+02  0.31385097175E+02 -0.21556136108E+03  0.35029712858E+03  0.26296416146E+03 0.  0.
         25    1    3    3    0    0  0.78142199662E+02 -0.31385097175E+02 -0.24940950188E+03  0.29145125737E+03  0.12509000000E+03 0.  0.
         25    1    4    4    0    0 -0.41507545425E+02 -0.73117128848E+01 -0.14851818717E+03  0.19869951558E+03  0.12509000000E+03 0.  0.
         25    1    4    4    0    0 -0.36634654237E+02  0.38696810060E+02 -0.67043173912E+02  0.15159761300E+03  0.12509000000E+03 0.  0.
<mgrwt>
<rscale>  2 0.44231560E+03</rscale>
<asrwt>0</asrwt>
<pdfrwt beam="1">  1       21 0.12998348E-01 0.44231560E+03</pdfrwt>
<pdfrwt beam="2">  1       21 0.81376414E-01 0.44231560E+03</pdfrwt>
<totfact> 0.62172014E+04</totfact>
</mgrwt>
</event>
<event>
 7    0  0.4748297E-002  0.4564094E+03  0.7546771E-02  0.1025828E+00
         21   -1    0    0  502  501  0.00000000000E+00  0.00000000000E+00  0.30839133474E+03  0.30839133474E+03  0.00000000000E+00 0. -1.
         21   -1    0    0  501  502 -0.00000000000E+00 -0.00000000000E+00 -0.16886785094E+03  0.16886785094E+03  0.00000000000E+00 0. -1.
      99926    2    1    2    0    0  0.00000000000E+00  0.00000000000E+00  0.13952348381E+03  0.47725918568E+03  0.45640938617E+03 0.  0.
      99925    2    3    3    0    0  0.87969055952E+02  0.42603062678E+02  0.25512162868E+02  0.28181183943E+03  0.26308452374E+03 0.  0.
         25    1    4    4    0    0  0.33965388203E+02  0.44223415179E+02 -0.19441811494E+02  0.13832877568E+03  0.12509000000E+03 0.  0.
         25    1    3    3    0    0 -0.87969055952E+02 -0.42603062678E+02  0.11401132094E+03  0.19544734625E+03  0.12509000000E+03 0.  0.
         25    1    4    4    0    0  0.54003667749E+02 -0.16203525008E+01  0.44953974362E+02  0.14348306375E+03  0.12509000000E+03 0.  0.
<mgrwt>
<rscale>  2 0.45640939E+03</rscale>
<asrwt>0</asrwt>
<pdfrwt beam="1">  1       21 0.45351667E-01 0.45640939E+03</pdfrwt>
<pdfrwt beam="2">  1       21 0.24833507E-01 0.45640939E+03</pdfrwt>
<totfact> 0.66157059E+04</totfact>
</mgrwt>
</event>
<event>
 7    0  0.4748297E-002  0.4500840E+03  0.7546771E-02  0.1027697E+00
         21   -1    0    0  502  501  0.00000000000E+00  0.00000000000E+00  0.37546515816E+03  0.37546515816E+03  0.00000000000E+00 0. -1.
         21   -1    0    0  501  502 -0.00000000000E+00 -0.00000000000E+00 -0.13488311405E+03  0.13488311405E+03  0.00000000000E+00 0. -1.
      99926    2    1    2    0    0 -0.35527136788E-14 -0.71054273576E-14  0.24058204411E+03  0.51034827221E+03  0.45008403548E+03 0.  0.
      99925    2    3    3    0    0 -0.26273918090E+02  0.50653064419E+02  0.47848873316E+02  0.27360023118E+03  0.26327081136E+03 0.  0.
         25    1    4    4    0    0  0.74233453246E+00 -0.13310703160E+02  0.13945624451E+02  0.12656901051E+03  0.12509000000E+03 0.  0.
         25    1    3    3    0    0  0.26273918090E+02 -0.50653064419E+02  0.19273317080E+03  0.23674804103E+03  0.12509000000E+03 0.  0.
         25    1    4    4    0    0 -0.27016252622E+02  0.63963767579E+02  0.33903248865E+02  0.14703122067E+03  0.12509000000E+03 0.  0.
<mgrwt>
<rscale>  2 0.45008404E+03</rscale>
<asrwt>0</asrwt>
<pdfrwt beam="1">  1       21 0.55215464E-01 0.45008404E+03</pdfrwt>
<pdfrwt beam="2">  1       21 0.19835752E-01 0.45008404E+03</pdfrwt>
<totfact> 0.67130444E+04</totfact>
</mgrwt>
</event>
<event>
 7    0  0.4748297E-002  0.4555978E+03  0.7546771E-02  0.1026066E+00
         21   -1    0    0  502  501  0.00000000000E+00  0.00000000000E+00  0.66781119728E+03  0.66781119728E+03  0.00000000000E+00 0. -1.
         21   -1    0    0  501  502 -0.00000000000E+00 -0.00000000000E+00 -0.77705119591E+02  0.77705119591E+02  0.00000000000E+00 0. -1.
      99926    2    1    2    0    0  0.00000000000E+00  0.00000000000E+00  0.59010607769E+03  0.74551631688E+03  0.45559784437E+03 0.  0.
      99925    2    3    3    0    0  0.93544780100E+02 -0.37735224897E+02  0.28474549863E+03  0.40045521442E+03  0.26288744109E+03 0.  0.
         25    1    4    4    0    0  0.67511800827E+02  0.15657382341E+02  0.14978274032E+03  0.20708784192E+03  0.12509000000E+03 0.  0.
         25    1    4    4    0    0  0.26032979273E+02 -0.53392607239E+02  0.13496275831E+03  0.19336737250E+03  0.12509000000E+03 0.  0.
         25    1    3    3    0    0 -0.93544780100E+02  0.37735224897E+02  0.30536057906E+03  0.34506110245E+03  0.12509000000E+03 0.  0.
<mgrwt>
<rscale>  2 0.45559784E+03</rscale>
<asrwt>0</asrwt>
<pdfrwt beam="1">  1       21 0.98207526E-01 0.45559784E+03</pdfrwt>
<pdfrwt beam="2">  1       21 0.11427224E-01 0.45559784E+03</pdfrwt>
<totfact> 0.50263780E+04</totfact>
</mgrwt>
</event>
<event>
 7    0  0.4748297E-002  0.4452494E+03  0.7546771E-02  0.1029148E+00
         21   -1    0    0  502  501  0.00000000000E+00  0.00000000000E+00  0.20700776261E+03  0.20700776261E+03  0.00000000000E+00 0.  1.
         21   -1    0    0  501  502 -0.00000000000E+00 -0.00000000000E+00 -0.23941977029E+03  0.23941977029E+03  0.00000000000E+00 0.  1.
      99926    2    1    2    0    0  0.00000000000E+00  0.00000000000E+00 -0.32412007681E+02  0.44642753290E+03  0.44524937270E+03 0.  0.
      99925    2    3    3    0    0  0.78238296550E+02 -0.68321836433E+02 -0.15118546944E+02  0.28291705537E+03  0.26272492340E+03 0.  0.
         25    1    4    4    0    0  0.68795704694E+01 -0.38503050502E+02 -0.31920013574E+02  0.13489332361E+03  0.12509000000E+03 0.  0.
         25    1    3    3    0    0 -0.78238296550E+02  0.68321836433E+02 -0.17293460736E+02  0.16351047754E+03  0.12509000000E+03 0.  0.
         25    1    4    4    0    0  0.71358726080E+02 -0.29818785931E+02  0.16801466630E+02  0.14802373176E+03  0.12509000000E+03 0.  0.
<mgrwt>
<rscale>  2 0.44524937E+03</rscale>
<asrwt>0</asrwt>
<pdfrwt beam="1">  1       21 0.30442318E-01 0.44524937E+03</pdfrwt>
<pdfrwt beam="2">  1       21 0.35208790E-01 0.44524937E+03</pdfrwt>
<totfact> 0.74833031E+04</totfact>
</mgrwt>
</event>
<event>
 7    0  0.4748297E-002  0.4536507E+03  0.7546771E-02  0.1026639E+00
         21   -1    0    0  502  501  0.00000000000E+00  0.00000000000E+00  0.20521054836E+03  0.20521054836E+03  0.00000000000E+00 0. -1.
         21   -1    0    0  501  502 -0.00000000000E+00 -0.00000000000E+00 -0.25071680684E+03  0.25071680684E+03  0.00000000000E+00 0. -1.
      99926    2    1    2    0    0  0.00000000000E+00  0.00000000000E+00 -0.45506258485E+02  0.45592735520E+03  0.45365067360E+03 0.  0.
      99925    2    3    3    0    0  0.34888680650E+02  0.76708670176E+02  0.45303793271E+02  0.27987221123E+03  0.26301060970E+03 0.  0.
         25    1    4    4    0    0  0.23803490304E+02 -0.20631964093E+01  0.11835959027E+02  0.12790019920E+03  0.12509000000E+03 0.  0.
         25    1    4    4    0    0  0.11085190346E+02  0.78771866585E+02  0.33467834244E+02  0.15197201203E+03  0.12509000000E+03 0.  0.
         25    1    3    3    0    0 -0.34888680650E+02 -0.76708670176E+02 -0.90810051756E+02  0.17605514397E+03  0.12509000000E+03 0.  0.
<mgrwt>
<rscale>  2 0.45365067E+03</rscale>
<asrwt>0</asrwt>
<pdfrwt beam="1">  1       21 0.30178022E-01 0.45365067E+03</pdfrwt>
<pdfrwt beam="2">  1       21 0.36870118E-01 0.45365067E+03</pdfrwt>
<totfact> 0.69220104E+04</totfact>
</mgrwt>
</event>
<event>
 7    0  0.4748297E-002  0.4528333E+03  0.7546771E-02  0.1026880E+00
         21   -1    0    0  502  501  0.00000000000E+00  0.00000000000E+00  0.28408681639E+02  0.28408681639E+02  0.00000000000E+00 0. -1.
         21   -1    0    0  501  502 -0.00000000000E+00 -0.00000000000E+00 -0.18045367159E+04  0.18045367159E+04  0.00000000000E+00 0. -1.
      99926    2    1    2    0    0  0.00000000000E+00  0.44408920985E-14 -0.17761280343E+04  0.18329453976E+04  0.45283334272E+03 0.  0.
      99925    2    3    3    0    0 -0.10775653827E+03  0.70878861951E+01 -0.12259994192E+04  0.12585320352E+04  0.26299543338E+03 0.  0.
         25    1    3    3    0    0  0.10775653827E+03 -0.70878861951E+01 -0.55012861511E+03  0.57441336243E+03  0.12509000000E+03 0.  0.
         25    1    4    4    0    0 -0.73259272635E+02  0.36299184848E+02 -0.57651317906E+03  0.59556654169E+03  0.12509000000E+03 0.  0.
         25    1    4    4    0    0 -0.34497265638E+02 -0.29211298653E+02 -0.64948624014E+03  0.66296549347E+03  0.12509000000E+03 0.  0.
<mgrwt>
<rscale>  2 0.45283334E+03</rscale>
<asrwt>0</asrwt>
<pdfrwt beam="1">  1       21 0.41777458E-02 0.45283334E+03</pdfrwt>
<pdfrwt beam="2">  1       21 0.26537314E+00 0.45283334E+03</pdfrwt>
<totfact> 0.16917581E+04</totfact>
</mgrwt>
</event>
<event>
 7    0  0.4748297E-002  0.4526416E+03  0.7546771E-02  0.1026937E+00
         21   -1    0    0  502  501  0.00000000000E+00  0.00000000000E+00  0.10434043098E+04  0.10434043098E+04  0.00000000000E+00 0. -1.
         21   -1    0    0  501  502 -0.00000000000E+00 -0.00000000000E+00 -0.49090368178E+02  0.49090368178E+02  0.00000000000E+00 0. -1.
      99926    2    1    2    0    0  0.00000000000E+00  0.00000000000E+00  0.99431394160E+03  0.10924946780E+04  0.45264158768E+03 0.  0.
      99925    2    3    3    0    0 -0.94771122551E+02 -0.51125372414E+02  0.56055698837E+03  0.62839558083E+03  0.26279554682E+03 0.  0.
         25    1    4    4    0    0 -0.29568586014E+02 -0.18257249473E+02  0.34571871358E+03  0.36929197860E+03  0.12509000000E+03 0.  0.
         25    1    3    3    0    0  0.94771122551E+02  0.51125372414E+02  0.43375695323E+03  0.46409909712E+03  0.12509000000E+03 0.  0.
         25    1    4    4    0    0 -0.65202536537E+02 -0.32868122941E+02  0.21483827479E+03  0.25910360223E+03  0.12509000000E+03 0.  0.
<mgrwt>
<rscale>  2 0.45264159E+03</rscale>
<asrwt>0</asrwt>
<pdfrwt beam="1">  1       21 0.15344180E+00 0.45264159E+03</pdfrwt>
<pdfrwt beam="2">  1       21 0.72191725E-02 0.45264159E+03</pdfrwt>
<totfact> 0.36421134E+04</totfact>
</mgrwt>
</event>
<event>
 7    0  0.4748297E-002  0.4562487E+03  0.7546771E-02  0.1025875E+00
         21   -1    0    0  502  501  0.00000000000E+00  0.00000000000E+00  0.79856590794E+02  0.79856590794E+02  0.00000000000E+00 0.  1.
         21   -1    0    0  501  502 -0.00000000000E+00 -0.00000000000E+00 -0.65167727730E+03  0.65167727730E+03  0.00000000000E+00 0.  1.
      99926    2    1    2    0    0  0.71054273576E-14  0.00000000000E+00 -0.57182068651E+03  0.73153386810E+03  0.45624872893E+03 0.  0.
      99925    2    3    3    0    0  0.59486578388E+02 -0.12507892410E+02 -0.51396949947E+03  0.58090396296E+03  0.26379853566E+03 0.  0.
         25    1    4    4    0    0  0.29330574233E+02  0.54998251276E+01 -0.34193611079E+03  0.36531950759E+03  0.12509000000E+03 0.  0.
         25    1    3    3    0    0 -0.59486578388E+02  0.12507892410E+02 -0.57851187046E+02  0.15062990514E+03  0.12509000000E+03 0.  0.
         25    1    4    4    0    0  0.30156004155E+02 -0.18007717537E+02 -0.17203338867E+03  0.21558445537E+03  0.12509000000E+03 0.  0.
<mgrwt>
<rscale>  2 0.45624873E+03</rscale>
<asrwt>0</asrwt>
<pdfrwt beam="1">  1       21 0.11743616E-01 0.45624873E+03</pdfrwt>
<pdfrwt beam="2">  1       21 0.95834892E-01 0.45624873E+03</pdfrwt>
<totfact> 0.50724220E+04</totfact>
</mgrwt>
</event>
<event>
 7    0  0.4748297E-002  0.4610711E+03  0.7546771E-02  0.1024471E+00
         21   -1    0    0  502  501  0.00000000000E+00  0.00000000000E+00  0.17868047730E+03  0.17868047730E+03  0.00000000000E+00 0. -1.
         21   -1    0    0  501  502 -0.00000000000E+00 -0.00000000000E+00 -0.29743950481E+03  0.29743950481E+03  0.00000000000E+00 0. -1.
      99926    2    1    2    0    0  0.14210854715E-13 -0.71054273576E-14 -0.11875902751E+03  0.47611998211E+03  0.46107106909E+03 0.  0.
      99925    2    3    3    0    0 -0.88037034663E+02  0.49824744788E+02 -0.13869514259E+03  0.31401513502E+03  0.26293751687E+03 0.  0.
         25    1    4    4    0    0 -0.11969768486E+02  0.31173898492E+02 -0.36555093680E+02  0.13453204183E+03  0.12509000000E+03 0.  0.
         25    1    3    3    0    0  0.88037034663E+02 -0.49824744788E+02  0.19936115081E+02  0.16210484709E+03  0.12509000000E+03 0.  0.
         25    1    4    4    0    0 -0.76067266178E+02  0.18650846297E+02 -0.10214004891E+03  0.17948309319E+03  0.12509000000E+03 0.  0.
<mgrwt>
<rscale>  2 0.46107107E+03</rscale>
<asrwt>0</asrwt>
<pdfrwt beam="1">  1       21 0.26276541E-01 0.46107107E+03</pdfrwt>
<pdfrwt beam="2">  1       21 0.43741103E-01 0.46107107E+03</pdfrwt>
<totfact> 0.63851944E+04</totfact>
</mgrwt>
</event>
<event>
 7    0  0.4748297E-002  0.4561170E+03  0.7546771E-02  0.1025913E+00
         21   -1    0    0  502  501  0.00000000000E+00  0.00000000000E+00  0.52192294723E+03  0.52192294723E+03  0.00000000000E+00 0.  1.
         21   -1    0    0  501  502 -0.00000000000E+00 -0.00000000000E+00 -0.99652007654E+02  0.99652007654E+02  0.00000000000E+00 0.  1.
      99926    2    1    2    0    0  0.00000000000E+00 -0.71054273576E-14  0.42227093958E+03  0.62157495489E+03  0.45611695663E+03 0.  0.
      99925    2    3    3    0    0 -0.31121280661E+02  0.63104705730E+02  0.14293833783E+03  0.30752886194E+03  0.26304352208E+03 0.  0.
         25    1    3    3    0    0  0.31121280661E+02 -0.63104705730E+02  0.27933260175E+03  0.31404609294E+03  0.12509000000E+03 0.  0.
         25    1    4    4    0    0 -0.76327664856E+01  0.72137307221E+02  0.79958991831E+02  0.16523619062E+03  0.12509000000E+03 0.  0.
         25    1    4    4    0    0 -0.23488514176E+02 -0.90326014907E+01  0.62979346000E+02  0.14229267132E+03  0.12509000000E+03 0.  0.
<mgrwt>
<rscale>  2 0.45611696E+03</rscale>
<asrwt>0</asrwt>
<pdfrwt beam="1">  1       21 0.76753373E-01 0.45611696E+03</pdfrwt>
<pdfrwt beam="2">  1       21 0.14654707E-01 0.45611696E+03</pdfrwt>
<totfact> 0.56866338E+04</totfact>
</mgrwt>
</event>
<event>
 7    0  0.4748297E-002  0.4577639E+03  0.7546771E-02  0.1025432E+00
         21   -1    0    0  502  501  0.00000000000E+00  0.00000000000E+00  0.49318727518E+02  0.49318727518E+02  0.00000000000E+00 0.  1.
         21   -1    0    0  501  502 -0.00000000000E+00 -0.00000000000E+00 -0.10622120079E+04  0.10622120079E+04  0.00000000000E+00 0.  1.
      99926    2    1    2    0    0  0.00000000000E+00  0.00000000000E+00 -0.10128932804E+04  0.11115307355E+04  0.45776388930E+03 0.  0.
      99925    2    3    3    0    0  0.64730867886E+02 -0.76240861924E+02 -0.49390021338E+03  0.56838796784E+03  0.26291577914E+03 0.  0.
         25    1    4    4    0    0  0.23851450503E+02  0.24494350199E+01 -0.20578401768E+03  0.24201128374E+03  0.12509000000E+03 0.  0.
         25    1    3    3    0    0 -0.64730867886E+02  0.76240861924E+02 -0.51899306704E+03  0.54314276762E+03  0.12509000000E+03 0.  0.
         25    1    4    4    0    0  0.40879417383E+02 -0.78690296944E+02 -0.28811619570E+03  0.32637668410E+03  0.12509000000E+03 0.  0.
<mgrwt>
<rscale>  2 0.45776389E+03</rscale>
<asrwt>0</asrwt>
<pdfrwt beam="1">  1       21 0.72527550E-02 0.45776389E+03</pdfrwt>
<pdfrwt beam="2">  1       21 0.15620763E+00 0.45776389E+03</pdfrwt>
<totfact> 0.34346805E+04</totfact>
</mgrwt>
</event>
<event>
 7    0  0.4748297E-002  0.4554070E+03  0.7546771E-02  0.1026122E+00
         21   -1    0    0  502  501  0.00000000000E+00  0.00000000000E+00  0.25642100913E+03  0.25642100913E+03  0.00000000000E+00 0. -1.
         21   -1    0    0  501  502 -0.00000000000E+00 -0.00000000000E+00 -0.20220216974E+03  0.20220216974E+03  0.00000000000E+00 0. -1.
      99926    2    1    2    0    0  0.00000000000E+00  0.35527136788E-14  0.54218839391E+02  0.45862317887E+03  0.45540700220E+03 0.  0.
      99925    2    3    3    0    0  0.10513904453E+03 -0.46351602127E+01  0.77079308360E+02  0.29356012262E+03  0.26298407256E+03 0.  0.
         25    1    3    3    0    0 -0.10513904453E+03  0.46351602127E+01 -0.22860468969E+02  0.16506305625E+03  0.12509000000E+03 0.  0.
         25    1    4    4    0    0  0.43803286104E+02 -0.39620555255E+02  0.23866886720E+02  0.14037682378E+03  0.12509000000E+03 0.  0.
         25    1    4    4    0    0  0.61335758431E+02  0.34985395042E+02  0.53212421640E+02  0.15318329885E+03  0.12509000000E+03 0.  0.
<mgrwt>
<rscale>  2 0.45540700E+03</rscale>
<asrwt>0</asrwt>
<pdfrwt beam="1">  1       21 0.37708972E-01 0.45540700E+03</pdfrwt>
<pdfrwt beam="2">  1       21 0.29735613E-01 0.45540700E+03</pdfrwt>
<totfact> 0.68059786E+04</totfact>
</mgrwt>
</event>
<event>
 7    0  0.4748297E-002  0.4630661E+03  0.7546771E-02  0.1023896E+00
         21   -1    0    0  502  501  0.00000000000E+00  0.00000000000E+00  0.68485081036E+03  0.68485081036E+03  0.00000000000E+00 0. -1.
         21   -1    0    0  501  502 -0.00000000000E+00 -0.00000000000E+00 -0.78276253168E+02  0.78276253168E+02  0.00000000000E+00 0. -1.
      99926    2    1    2    0    0  0.00000000000E+00 -0.35527136788E-14  0.60657455720E+03  0.76312706353E+03  0.46306610938E+03 0.  0.
      99925    2    3    3    0    0  0.42902245662E+02 -0.27389301991E+02  0.55929283613E+03  0.62004021650E+03  0.26277484085E+03 0.  0.
         25    1    4    4    0    0  0.16613082749E+02  0.24947062061E+02  0.29523763182E+03  0.32204210558E+03  0.12509000000E+03 0.  0.
         25    1    3    3    0    0 -0.42902245662E+02  0.27389301991E+02  0.47281721068E+02  0.14308684703E+03  0.12509000000E+03 0.  0.
         25    1    4    4    0    0  0.26289162914E+02 -0.52336364053E+02  0.26405520431E+03  0.29799811092E+03  0.12509000000E+03 0.  0.
<mgrwt>
<rscale>  2 0.46306611E+03</rscale>
<asrwt>0</asrwt>
<pdfrwt beam="1">  1       21 0.10071335E+00 0.46306611E+03</pdfrwt>
<pdfrwt beam="2">  1       21 0.11511214E-01 0.46306611E+03</pdfrwt>
<totfact> 0.46579274E+04</totfact>
</mgrwt>
</event>
<event>
 7    0  0.4748297E-002  0.4596321E+03  0.7546771E-02  0.1024888E+00
         21   -1    0    0  502  501  0.00000000000E+00  0.00000000000E+00  0.48136273827E+03  0.48136273827E+03  0.00000000000E+00 0. -1.
         21   -1    0    0  501  502 -0.00000000000E+00 -0.00000000000E+00 -0.10972062346E+03  0.10972062346E+03  0.00000000000E+00 0. -1.
      99926    2    1    2    0    0  0.00000000000E+00  0.71054273576E-14  0.37164211481E+03  0.59108336173E+03  0.45963211269E+03 0.  0.
      99925    2    3    3    0    0  0.57049789343E+02  0.61996533609E+02  0.12786762847E+03  0.30442719673E+03  0.26311126744E+03 0.  0.
         25    1    4    4    0    0  0.13848657830E+02  0.69128755619E+02  0.71491212793E+02  0.16040284219E+03  0.12509000000E+03 0.  0.
         25    1    3    3    0    0 -0.57049789343E+02 -0.61996533609E+02  0.24377448634E+03  0.28665616500E+03  0.12509000000E+03 0.  0.
         25    1    4    4    0    0  0.43201131512E+02 -0.71322220098E+01  0.56376415680E+02  0.14402435454E+03  0.12509000000E+03 0.  0.
<mgrwt>
<rscale>  2 0.45963211E+03</rscale>
<asrwt>0</asrwt>
<pdfrwt beam="1">  1       21 0.70788637E-01 0.45963211E+03</pdfrwt>
<pdfrwt beam="2">  1       21 0.16135386E-01 0.45963211E+03</pdfrwt>
<totfact> 0.57110796E+04</totfact>
</mgrwt>
</event>
<event>
 7    0  0.4748297E-002  0.4604641E+03  0.7546771E-02  0.1024647E+00
         21   -1    0    0  502  501  0.00000000000E+00  0.00000000000E+00  0.10140472121E+03  0.10140472121E+03  0.00000000000E+00 0. -1.
         21   -1    0    0  501  502 -0.00000000000E+00 -0.00000000000E+00 -0.52272502640E+03  0.52272502640E+03  0.00000000000E+00 0. -1.
      99926    2    1    2    0    0 -0.71054273576E-14  0.00000000000E+00 -0.42132030520E+03  0.62412974761E+03  0.46046405102E+03 0.  0.
      99925    2    3    3    0    0  0.48194638949E+02 -0.93620199883E+02 -0.19113582894E+03  0.34178268059E+03  0.26304948317E+03 0.  0.
         25    1    4    4    0    0  0.59218467470E+02 -0.70125381586E+02 -0.11423331995E+03  0.19266851201E+03  0.12509000000E+03 0.  0.
         25    1    3    3    0    0 -0.48194638949E+02  0.93620199883E+02 -0.23018447625E+03  0.28234706703E+03  0.12509000000E+03 0.  0.
         25    1    4    4    0    0 -0.11023828521E+02 -0.23494818297E+02 -0.76902508988E+02  0.14911416858E+03  0.12509000000E+03 0.  0.
<mgrwt>
<rscale>  2 0.46046405E+03</rscale>
<asrwt>0</asrwt>
<pdfrwt beam="1">  1       21 0.14912459E-01 0.46046405E+03</pdfrwt>
<pdfrwt beam="2">  1       21 0.76871325E-01 0.46046405E+03</pdfrwt>
<totfact> 0.54813681E+04</totfact>
</mgrwt>
</event>
<event>
 7    0  0.4748297E-002  0.4911378E+03  0.7546771E-02  0.1016118E+00
         21   -1    0    0  502  501  0.00000000000E+00  0.00000000000E+00  0.17843882998E+03  0.17843882998E+03  0.00000000000E+00 0. -1.
         21   -1    0    0  501  502 -0.00000000000E+00 -0.00000000000E+00 -0.33795384211E+03  0.33795384211E+03  0.00000000000E+00 0. -1.
      99926    2    1    2    0    0 -0.35527136788E-14 -0.14210854715E-13 -0.15951501214E+03  0.51639267209E+03  0.49113781436E+03 0.  0.
      99925    2    3    3    0    0 -0.21086648527E+02 -0.11441573314E+03 -0.18751005973E+03  0.34328334962E+03  0.26295974766E+03 0.  0.
         25    1    3    3    0    0  0.21086648527E+02  0.11441573314E+03  0.27995047594E+02  0.17310932247E+03  0.12509000000E+03 0.  0.
         25    1    4    4    0    0 -0.93781925336E+01 -0.21007362979E+02 -0.56626675600E+02  0.13922409376E+03  0.12509000000E+03 0.  0.
         25    1    4    4    0    0 -0.11708455993E+02 -0.93408370164E+02 -0.13088338413E+03  0.20405925585E+03  0.12509000000E+03 0.  0.
<mgrwt>
<rscale>  2 0.49113781E+03</rscale>
<asrwt>0</asrwt>
<pdfrwt beam="1">  1       21 0.26241005E-01 0.49113781E+03</pdfrwt>
<pdfrwt beam="2">  1       21 0.49699093E-01 0.49113781E+03</pdfrwt>
<totfact> 0.48617634E+04</totfact>
</mgrwt>
</event>
<event>
 7    0  0.4748297E-002  0.4685199E+03  0.7546771E-02  0.1022339E+00
         21   -1    0    0  502  501  0.00000000000E+00  0.00000000000E+00  0.51333888660E+02  0.51333888660E+02  0.00000000000E+00 0.  1.
         21   -1    0    0  501  502 -0.00000000000E+00 -0.00000000000E+00 -0.10690351099E+04  0.10690351099E+04  0.00000000000E+00 0.  1.
      99926    2    1    2    0    0  0.00000000000E+00 -0.71054273576E-14 -0.10177012213E+04  0.11203689986E+04  0.46851992191E+03 0.  0.
      99925    2    3    3    0    0  0.10997027559E+03  0.59628049669E+02 -0.61179892845E+03  0.67759010881E+03  0.26302368882E+03 0.  0.
         25    1    4    4    0    0  0.38521279062E+02  0.53598287145E+02 -0.36940085856E+03  0.39555172574E+03  0.12509000000E+03 0.  0.
         25    1    3    3    0    0 -0.10997027559E+03 -0.59628049669E+02 -0.40590229281E+03  0.44277888977E+03  0.12509000000E+03 0.  0.
         25    1    4    4    0    0  0.71448996526E+02  0.60297625238E+01 -0.24239806989E+03  0.28203838307E+03  0.12509000000E+03 0.  0.
<mgrwt>
<rscale>  2 0.46851992E+03</rscale>
<asrwt>0</asrwt>
<pdfrwt beam="1">  1       21 0.75491016E-02 0.46851992E+03</pdfrwt>
<pdfrwt beam="2">  1       21 0.15721104E+00 0.46851992E+03</pdfrwt>
<totfact> 0.31350105E+04</totfact>
</mgrwt>
</event>
<event>
 7    0  0.4748297E-002  0.4570828E+03  0.7546771E-02  0.1025631E+00
         21   -1    0    0  502  501  0.00000000000E+00  0.00000000000E+00  0.87411839566E+02  0.87411839566E+02  0.00000000000E+00 0. -1.
         21   -1    0    0  501  502 -0.00000000000E+00 -0.00000000000E+00 -0.59752972932E+03  0.59752972932E+03  0.00000000000E+00 0. -1.
      99926    2    1    2    0    0 -0.35527136788E-14  0.00000000000E+00 -0.51011788976E+03  0.68494156889E+03  0.45708280578E+03 0.  0.
      99925    2    3    3    0    0 -0.18661046018E+02  0.97077190118E+02 -0.23206499228E+03  0.36442146441E+03  0.26301450074E+03 0.  0.
         25    1    3    3    0    0  0.18661046018E+02 -0.97077190118E+02 -0.27805289748E+03  0.32052010448E+03  0.12509000000E+03 0.  0.
         25    1    4    4    0    0  0.18213523594E+01  0.43832043879E+02 -0.16440524538E+03  0.21118986293E+03  0.12509000000E+03 0.  0.
         25    1    4    4    0    0 -0.20482398378E+02  0.53245146238E+02 -0.67659746893E+02  0.15323160148E+03  0.12509000000E+03 0.  0.
<mgrwt>
<rscale>  2 0.45708281E+03</rscale>
<asrwt>0</asrwt>
<pdfrwt beam="1">  1       21 0.12854682E-01 0.45708281E+03</pdfrwt>
<pdfrwt beam="2">  1       21 0.87872020E-01 0.45708281E+03</pdfrwt>
<totfact> 0.52856317E+04</totfact>
</mgrwt>
</event>
<event>
 7    0  0.4748297E-002  0.4528387E+03  0.7546771E-02  0.1026879E+00
         21   -1    0    0  502  501  0.00000000000E+00  0.00000000000E+00  0.10022884480E+03  0.10022884480E+03  0.00000000000E+00 0. -1.
         21   -1    0    0  501  502 -0.00000000000E+00 -0.00000000000E+00 -0.51148662658E+03  0.51148662658E+03  0.00000000000E+00 0. -1.
      99926    2    1    2    0    0  0.00000000000E+00  0.35527136788E-14 -0.41125778177E+03  0.61171547138E+03  0.45283866317E+03 0.  0.
      99925    2    3    3    0    0  0.10506395471E+03  0.16246401417E+02 -0.30260021858E+03  0.41484913531E+03  0.26311695622E+03 0.  0.
         25    1    4    4    0    0  0.36116659287E+02  0.38158753818E+02 -0.17958615762E+03  0.22507598646E+03  0.12509000000E+03 0.  0.
         25    1    3    3    0    0 -0.10506395471E+03 -0.16246401417E+02 -0.10865756319E+03  0.19686633607E+03  0.12509000000E+03 0.  0.
         25    1    4    4    0    0  0.68947295418E+02 -0.21912352401E+02 -0.12301406096E+03  0.18977314886E+03  0.12509000000E+03 0.  0.
<mgrwt>
<rscale>  2 0.45283866E+03</rscale>
<asrwt>0</asrwt>
<pdfrwt beam="1">  1       21 0.14739536E-01 0.45283866E+03</pdfrwt>
<pdfrwt beam="2">  1       21 0.75218622E-01 0.45283866E+03</pdfrwt>
<totfact> 0.58963023E+04</totfact>
</mgrwt>
</event>
<event>
 7    0  0.4748297E-002  0.4562287E+03  0.7546771E-02  0.1025881E+00
         21   -1    0    0  502  501  0.00000000000E+00  0.00000000000E+00  0.12714492099E+03  0.12714492099E+03  0.00000000000E+00 0. -1.
         21   -1    0    0  501  502 -0.00000000000E+00 -0.00000000000E+00 -0.40926656048E+03  0.40926656048E+03  0.00000000000E+00 0. -1.
      99926    2    1    2    0    0  0.00000000000E+00  0.00000000000E+00 -0.28212163949E+03  0.53641148147E+03  0.45622873429E+03 0.  0.
      99925    2    3    3    0    0 -0.61919930973E+02 -0.49744095308E+02 -0.81812550652E+02  0.28725331476E+03  0.26365246163E+03 0.  0.
         25    1    4    4    0    0 -0.18579806991E+02  0.62954086880E+01 -0.11267401249E+02  0.12711925043E+03  0.12509000000E+03 0.  0.
         25    1    3    3    0    0  0.61919930973E+02  0.49744095308E+02 -0.20030908884E+03  0.24915816671E+03  0.12509000000E+03 0.  0.
         25    1    4    4    0    0 -0.43340123983E+02 -0.56039503996E+02 -0.70545149403E+02  0.16013406433E+03  0.12509000000E+03 0.  0.
<mgrwt>
<rscale>  2 0.45622873E+03</rscale>
<asrwt>0</asrwt>
<pdfrwt beam="1">  1       21 0.18697783E-01 0.45622873E+03</pdfrwt>
<pdfrwt beam="2">  1       21 0.60186258E-01 0.45622873E+03</pdfrwt>
<totfact> 0.62166698E+04</totfact>
</mgrwt>
</event>
<event>
 7    0  0.4748297E-002  0.4644751E+03  0.7546771E-02  0.1023491E+00
         21   -1    0    0  502  501  0.00000000000E+00  0.00000000000E+00  0.33793927635E+03  0.33793927635E+03  0.00000000000E+00 0. -1.
         21   -1    0    0  501  502 -0.00000000000E+00 -0.00000000000E+00 -0.15959757825E+03  0.15959757825E+03  0.00000000000E+00 0. -1.
      99926    2    1    2    0    0  0.00000000000E+00  0.00000000000E+00  0.17834169810E+03  0.49753685459E+03  0.46447514508E+03 0.  0.
      99925    2    3    3    0    0 -0.25337720538E+02 -0.15290243725E+02 -0.15705465925E+02  0.26477602971E+03  0.26264784906E+03 0.  0.
         25    1    3    3    0    0  0.25337720538E+02  0.15290243725E+02  0.19404716402E+03  0.23276082488E+03  0.12509000000E+03 0.  0.
         25    1    4    4    0    0  0.16612497412E+02 -0.29639432109E+02 -0.23904327042E+02  0.13180817864E+03  0.12509000000E+03 0.  0.
         25    1    4    4    0    0 -0.41950217950E+02  0.14349188384E+02  0.81988611171E+01  0.13296785107E+03  0.12509000000E+03 0.  0.
<mgrwt>
<rscale>  2 0.46447515E+03</rscale>
<asrwt>0</asrwt>
<pdfrwt beam="1">  1       21 0.49696952E-01 0.46447515E+03</pdfrwt>
<pdfrwt beam="2">  1       21 0.23470232E-01 0.46447515E+03</pdfrwt>
<totfact> 0.60744672E+04</totfact>
</mgrwt>
</event>
<event>
 7    0  0.4748297E-002  0.4368278E+03  0.7546771E-02  0.1031725E+00
         21   -1    0    0  502  501  0.00000000000E+00  0.00000000000E+00  0.13750507187E+03  0.13750507187E+03  0.00000000000E+00 0. -1.
         21   -1    0    0  501  502 -0.00000000000E+00 -0.00000000000E+00 -0.34692997230E+03  0.34692997230E+03  0.00000000000E+00 0. -1.
      99926    2    1    2    0    0  0.00000000000E+00  0.00000000000E+00 -0.20942490042E+03  0.48443504417E+03  0.43682779571E+03 0.  0.
      99925    2    3    3    0    0  0.44606014736E+02 -0.23789595745E+02 -0.22384699664E+03  0.34874736464E+03  0.26260541697E+03 0.  0.
         25    1    4    4    0    0  0.35001234727E+02 -0.45469384123E+02 -0.92490221447E+02  0.16581465704E+03  0.12509000000E+03 0.  0.
         25    1    3    3    0    0 -0.44606014736E+02  0.23789595745E+02  0.14422096218E+02  0.13568767953E+03  0.12509000000E+03 0.  0.
         25    1    4    4    0    0  0.96047800091E+01  0.21679788378E+02 -0.13135677519E+03  0.18293270761E+03  0.12509000000E+03 0.  0.
<mgrwt>
<rscale>  2 0.43682780E+03</rscale>
<asrwt>0</asrwt>
<pdfrwt beam="1">  1       21 0.20221335E-01 0.43682780E+03</pdfrwt>
<pdfrwt beam="2">  1       21 0.51019113E-01 0.43682780E+03</pdfrwt>
<totfact> 0.76885687E+04</totfact>
</mgrwt>
</event>
<event>
 7    0  0.4748297E-002  0.4566671E+03  0.7546771E-02  0.1025752E+00
         21   -1    0    0  502  501  0.00000000000E+00  0.00000000000E+00  0.32848881295E+03  0.32848881295E+03  0.00000000000E+00 0.  1.
         21   -1    0    0  501  502 -0.00000000000E+00 -0.00000000000E+00 -0.15871533965E+03  0.15871533965E+03  0.00000000000E+00 0.  1.
      99926    2    1    2    0    0 -0.71054273576E-14 -0.35527136788E-14  0.16977347330E+03  0.48720415259E+03  0.45666711516E+03 0.  0.
      99925    2    3    3    0    0  0.59501684632E+02  0.14837523261E+02  0.21007134869E+03  0.34217991520E+03  0.26305231467E+03 0.  0.
         25    1    4    4    0    0  0.62768702020E+02  0.24462211201E+02  0.13472374330E+03  0.19579659047E+03  0.12509000000E+03 0.  0.
         25    1    4    4    0    0 -0.32670173874E+01 -0.96246879406E+01  0.75347605395E+02  0.14638332473E+03  0.12509000000E+03 0.  0.
         25    1    3    3    0    0 -0.59501684632E+02 -0.14837523261E+02 -0.40297875393E+02  0.14502423739E+03  0.12509000000E+03 0.  0.
<mgrwt>
<rscale>  2 0.45666712E+03</rscale>
<asrwt>0</asrwt>
<pdfrwt beam="1">  1       21 0.48307178E-01 0.45666712E+03</pdfrwt>
<pdfrwt beam="2">  1       21 0.23340491E-01 0.45666712E+03</pdfrwt>
<totfact> 0.65310680E+04</totfact>
</mgrwt>
</event>
<event>
 7    0  0.4748297E-002  0.4508353E+03  0.7546771E-02  0.1027473E+00
         21   -1    0    0  502  501  0.00000000000E+00  0.00000000000E+00  0.12390465951E+03  0.12390465951E+03  0.00000000000E+00 0.  1.
         21   -1    0    0  501  502 -0.00000000000E+00 -0.00000000000E+00 -0.41009856706E+03  0.41009856706E+03  0.00000000000E+00 0.  1.
      99926    2    1    2    0    0  0.35527136788E-14  0.00000000000E+00 -0.28619390755E+03  0.53400322657E+03  0.45083532832E+03 0.  0.
      99925    2    3    3    0    0  0.28742774974E+02 -0.10502030585E+03 -0.19070458571E+03  0.34263674455E+03  0.26301385506E+03 0.  0.
         25    1    4    4    0    0 -0.52560633613E+01 -0.13853127637E+02 -0.77788208053E+02  0.14804745442E+03  0.12509000000E+03 0.  0.
         25    1    4    4    0    0  0.33998838335E+02 -0.91167178209E+02 -0.11291637766E+03  0.19458929013E+03  0.12509000000E+03 0.  0.
         25    1    3    3    0    0 -0.28742774974E+02  0.10502030585E+03 -0.95489321846E+02  0.19136648202E+03  0.12509000000E+03 0.  0.
<mgrwt>
<rscale>  2 0.45083533E+03</rscale>
<asrwt>0</asrwt>
<pdfrwt beam="1">  1       21 0.18221273E-01 0.45083533E+03</pdfrwt>
<pdfrwt beam="2">  1       21 0.60308613E-01 0.45083533E+03</pdfrwt>
<totfact> 0.65054179E+04</totfact>
</mgrwt>
</event>
<event>
 6    0  0.4748297E-002  0.4645579E+03  0.7546771E-02  0.1023468E+00
         21   -1    0    0  502  501  0.00000000000E+00  0.00000000000E+00  0.75345532501E+02  0.75345532501E+02  0.00000000000E+00 0.  1.
         21   -1    0    0  501  502 -0.00000000000E+00 -0.00000000000E+00 -0.71608096144E+03  0.71608096144E+03  0.00000000000E+00 0.  1.
      99926    2    1    2    0    0  0.17763568394E-14 -0.35527136788E-14 -0.64073542894E+03  0.79142649394E+03  0.46455786014E+03 0.  0.
         25    1    3    3    0    0  0.24563470027E+02 -0.55035445024E+02 -0.35270703368E+03  0.37905411748E+03  0.12509000000E+03 0.  0.
         25    1    3    3    0    0 -0.97041571424E+01  0.28604445228E+02 -0.43148926616E+02  0.13572664779E+03  0.12509000000E+03 0.  0.
         25    1    3    3    0    0 -0.14859312885E+02  0.26430999796E+02 -0.24487946864E+03  0.27664572867E+03  0.12509000000E+03 0.  0.
<mgrwt>
<rscale>  2 0.46455786E+03</rscale>
<asrwt>0</asrwt>
<pdfrwt beam="1">  1       21 0.11080225E-01 0.46455786E+03</pdfrwt>
<pdfrwt beam="2">  1       21 0.10530603E+00 0.46455786E+03</pdfrwt>
<totfact> 0.44731316E+04</totfact>
</mgrwt>
</event>
<event>
 7    0  0.4748297E-002  0.4677936E+03  0.7546771E-02  0.1022545E+00
         21   -1    0    0  502  501  0.00000000000E+00  0.00000000000E+00  0.88518397656E+02  0.88518397656E+02  0.00000000000E+00 0. -1.
         21   -1    0    0  501  502 -0.00000000000E+00 -0.00000000000E+00 -0.61803774773E+03  0.61803774773E+03  0.00000000000E+00 0. -1.
      99926    2    1    2    0    0 -0.35527136788E-14 -0.11102230246E-14 -0.52951935007E+03  0.70655614538E+03  0.46779359175E+03 0.  0.
      99925    2    3    3    0    0 -0.30735956280E+02 -0.16284542640E+01 -0.14700784993E+03  0.30293515149E+03  0.26307992549E+03 0.  0.
         25    1    4    4    0    0 -0.24885095144E+01  0.21052556672E+02 -0.10901656911E+03  0.16727678638E+03  0.12509000000E+03 0.  0.
         25    1    4    4    0    0 -0.28247446765E+02 -0.22681010936E+02 -0.37991280824E+02  0.13565836511E+03  0.12509000000E+03 0.  0.
         25    1    3    3    0    0  0.30735956280E+02  0.16284542640E+01 -0.38251150014E+03  0.40362099389E+03  0.12509000000E+03 0.  0.
<mgrwt>
<rscale>  2 0.46779359E+03</rscale>
<asrwt>0</asrwt>
<pdfrwt beam="1">  1       21 0.13017411E-01 0.46779359E+03</pdfrwt>
<pdfrwt beam="2">  1       21 0.90887907E-01 0.46779359E+03</pdfrwt>
<totfact> 0.47574623E+04</totfact>
</mgrwt>
</event>
<event>
 7    0  0.4748297E-002  0.4514890E+03  0.7546771E-02  0.1027279E+00
         21   -1    0    0  502  501  0.00000000000E+00  0.00000000000E+00  0.13978941413E+03  0.13978941413E+03  0.00000000000E+00 0. -1.
         21   -1    0    0  501  502 -0.00000000000E+00 -0.00000000000E+00 -0.36455251481E+03  0.36455251481E+03  0.00000000000E+00 0. -1.
      99926    2    1    2    0    0  0.35527136788E-14  0.00000000000E+00 -0.22476310069E+03  0.50434192894E+03  0.45148901410E+03 0.  0.
      99925    2    3    3    0    0 -0.26952989859E+02  0.78669375323E+02 -0.22211697313E+03  0.35410929478E+03  0.26294887073E+03 0.  0.
         25    1    4    4    0    0 -0.27587893134E+02  0.13735511283E+02 -0.14302605313E+03  0.19249341830E+03  0.12509000000E+03 0.  0.
         25    1    4    4    0    0  0.63490327517E+00  0.64933864039E+02 -0.79090920004E+02  0.16161587647E+03  0.12509000000E+03 0.  0.
         25    1    3    3    0    0  0.26952989859E+02 -0.78669375323E+02 -0.26461275559E+01  0.15023263416E+03  0.12509000000E+03 0.  0.
<mgrwt>
<rscale>  2 0.45148901E+03</rscale>
<asrwt>0</asrwt>
<pdfrwt beam="1">  1       21 0.20557267E-01 0.45148901E+03</pdfrwt>
<pdfrwt beam="2">  1       21 0.53610663E-01 0.45148901E+03</pdfrwt>
<totfact> 0.66809129E+04</totfact>
</mgrwt>
</event>
<event>
 7    0  0.4748297E-002  0.4580673E+03  0.7546771E-02  0.1025343E+00
         21   -1    0    0  502  501  0.00000000000E+00  0.00000000000E+00  0.82347664043E+03  0.82347664043E+03  0.00000000000E+00 0.  1.
         21   -1    0    0  501  502 -0.00000000000E+00 -0.00000000000E+00 -0.63701144614E+02  0.63701144614E+02  0.00000000000E+00 0.  1.
      99926    2    1    2    0    0 -0.35527136788E-14  0.00000000000E+00  0.75977549581E+03  0.88717778504E+03  0.45806726387E+03 0.  0.
      99925    2    3    3    0    0  0.11913554855E+02  0.96898585543E+02  0.35691717557E+03  0.45419556490E+03  0.26338654538E+03 0.  0.
         25    1    4    4    0    0 -0.24178475992E+02  0.29629840104E+02  0.13265911158E+03  0.18630210442E+03  0.12509000000E+03 0.  0.
         25    1    3    3    0    0 -0.11913554855E+02 -0.96898585543E+02  0.40285832025E+03  0.43298222014E+03  0.12509000000E+03 0.  0.
         25    1    4    4    0    0  0.36092030848E+02  0.67268745439E+02  0.22425806398E+03  0.26789346048E+03  0.12509000000E+03 0.  0.
<mgrwt>
<rscale>  2 0.45806726E+03</rscale>
<asrwt>0</asrwt>
<pdfrwt beam="1">  1       21 0.12109950E+00 0.45806726E+03</pdfrwt>
<pdfrwt beam="2">  1       21 0.93678159E-02 0.45806726E+03</pdfrwt>
<totfact> 0.42756442E+04</totfact>
</mgrwt>
</event>
<event>
 7    0  0.4748297E-002  0.4496691E+03  0.7546771E-02  0.1027821E+00
         21   -1    0    0  502  501  0.00000000000E+00  0.00000000000E+00  0.14274993585E+04  0.14274993585E+04  0.00000000000E+00 0.  1.
         21   -1    0    0  501  502 -0.00000000000E+00 -0.00000000000E+00 -0.35411975700E+02  0.35411975700E+02  0.00000000000E+00 0.  1.
      99926    2    1    2    0    0  0.00000000000E+00  0.00000000000E+00  0.13920873828E+04  0.14629113342E+04  0.44966908986E+03 0.  0.
      99925    2    3    3    0    0 -0.28548291241E+02  0.10378297599E+03  0.91113708942E+03  0.95443655229E+03  0.26304453156E+03 0.  0.
         25    1    4    4    0    0 -0.53338364630E+02  0.48925096791E+02  0.42730224419E+03  0.45108021707E+03  0.12509000000E+03 0.  0.
         25    1    3    3    0    0  0.28548291241E+02 -0.10378297599E+03  0.48095029334E+03  0.50847478187E+03  0.12509000000E+03 0.  0.
         25    1    4    4    0    0  0.24790073390E+02  0.54857879195E+02  0.48383484523E+03  0.50335633522E+03  0.12509000000E+03 0.  0.
<mgrwt>
<rscale>  2 0.44966909E+03</rscale>
<asrwt>0</asrwt>
<pdfrwt beam="1">  1       21 0.20992634E+00 0.44966909E+03</pdfrwt>
<pdfrwt beam="2">  1       21 0.52076444E-02 0.44966909E+03</pdfrwt>
<totfact> 0.25752743E+04</totfact>
</mgrwt>
</event>
<event>
 7    0  0.4748297E-002  0.4226512E+03  0.7546771E-02  0.1036207E+00
         21   -1    0    0  502  501  0.00000000000E+00  0.00000000000E+00  0.19561603794E+03  0.19561603794E+03  0.00000000000E+00 0. -1.
         21   -1    0    0  501  502 -0.00000000000E+00 -0.00000000000E+00 -0.22829680917E+03  0.22829680917E+03  0.00000000000E+00 0. -1.
      99926    2    1    2    0    0  0.00000000000E+00  0.00000000000E+00 -0.32680771227E+02  0.42391284711E+03  0.42265123818E+03 0.  0.
      99925    2    3    3    0    0  0.51810257141E+02  0.22911212213E+02  0.34107746717E+02  0.27121235392E+03  0.26302770984E+03 0.  0.
         25    1    4    4    0    0  0.22093317688E+02  0.54263142650E+01 -0.23412523810E+02  0.12927959601E+03  0.12509000000E+03 0.  0.
         25    1    4    4    0    0  0.29716939453E+02  0.17484897948E+02  0.57520270527E+02  0.14193275791E+03  0.12509000000E+03 0.  0.
         25    1    3    3    0    0 -0.51810257141E+02 -0.22911212213E+02 -0.66788517944E+02  0.15270049319E+03  0.12509000000E+03 0.  0.
<mgrwt>
<rscale>  2 0.42265124E+03</rscale>
<asrwt>0</asrwt>
<pdfrwt beam="1">  1       21 0.28767065E-01 0.42265124E+03</pdfrwt>
<pdfrwt beam="2">  1       21 0.33573060E-01 0.42265124E+03</pdfrwt>
<totfact> 0.92568666E+04</totfact>
</mgrwt>
</event>
<event>
 7    0  0.4748297E-002  0.4522291E+03  0.7546771E-02  0.1027059E+00
         21   -1    0    0  502  501  0.00000000000E+00  0.00000000000E+00  0.19104554774E+04  0.19104554774E+04  0.00000000000E+00 0.  1.
         21   -1    0    0  501  502 -0.00000000000E+00 -0.00000000000E+00 -0.26762099928E+02  0.26762099928E+02  0.00000000000E+00 0.  1.
      99926    2    1    2    0    0  0.00000000000E+00  0.00000000000E+00  0.18836933775E+04  0.19372175773E+04  0.45222914720E+03 0.  0.
      99925    2    3    3    0    0  0.17364025515E+02 -0.42836646908E+02  0.16186831668E+04  0.16405453549E+04  0.26290184351E+03 0.  0.
         25    1    3    3    0    0 -0.17364025515E+02  0.42836646908E+02  0.26501021073E+03  0.29667222248E+03  0.12509000000E+03 0.  0.
         25    1    4    4    0    0  0.26654034385E+02  0.13857491950E+02  0.72556201623E+03  0.73687869770E+03  0.12509000000E+03 0.  0.
         25    1    4    4    0    0 -0.92900088701E+01 -0.56694138858E+02  0.89312115053E+03  0.90366665716E+03  0.12509000000E+03 0.  0.
<mgrwt>
<rscale>  2 0.45222915E+03</rscale>
<asrwt>0</asrwt>
<pdfrwt beam="1">  1       21 0.28094924E+00 0.45222915E+03</pdfrwt>
<pdfrwt beam="2">  1       21 0.39356042E-02 0.45222915E+03</pdfrwt>
<totfact> 0.15083880E+04</totfact>
</mgrwt>
</event>
<event>
 7    0  0.4748297E-002  0.4542879E+03  0.7546771E-02  0.1026451E+00
         21   -1    0    0  502  501  0.00000000000E+00  0.00000000000E+00  0.13759396898E+03  0.13759396898E+03  0.00000000000E+00 0.  1.
         21   -1    0    0  501  502 -0.00000000000E+00 -0.00000000000E+00 -0.37497550441E+03  0.37497550441E+03  0.00000000000E+00 0.  1.
      99926    2    1    2    0    0 -0.14210854715E-13  0.00000000000E+00 -0.23738153543E+03  0.51256947339E+03  0.45428787314E+03 0.  0.
      99925    2    3    3    0    0  0.79351424516E+02  0.64545956284E+02 -0.20242521701E+03  0.34724469804E+03  0.26294501857E+03 0.  0.
         25    1    4    4    0    0 -0.13223793537E+01  0.29988236605E+02 -0.80460007330E+02  0.15173122257E+03  0.12509000000E+03 0.  0.
         25    1    3    3    0    0 -0.79351424516E+02 -0.64545956284E+02 -0.34956318421E+02  0.16532477535E+03  0.12509000000E+03 0.  0.
         25    1    4    4    0    0  0.80673803870E+02  0.34557719679E+02 -0.12196520968E+03  0.19551347547E+03  0.12509000000E+03 0.  0.
<mgrwt>
<rscale>  2 0.45428787E+03</rscale>
<asrwt>0</asrwt>
<pdfrwt beam="1">  1       21 0.20234407E-01 0.45428787E+03</pdfrwt>
<pdfrwt beam="2">  1       21 0.55143456E-01 0.45428787E+03</pdfrwt>
<totfact> 0.64761539E+04</totfact>
</mgrwt>
</event>
<event>
 7    0  0.4748297E-002  0.4544997E+03  0.7546771E-02  0.1026389E+00
         21   -1    0    0  502  501  0.00000000000E+00  0.00000000000E+00  0.11674305453E+03  0.11674305453E+03  0.00000000000E+00 0.  1.
         21   -1    0    0  501  502 -0.00000000000E+00 -0.00000000000E+00 -0.44236036294E+03  0.44236036294E+03  0.00000000000E+00 0.  1.
      99926    2    1    2    0    0  0.00000000000E+00  0.00000000000E+00 -0.32561730841E+03  0.55910341748E+03  0.45449972486E+03 0.  0.
      99925    2    3    3    0    0  0.52280734546E+02 -0.57750212483E+02 -0.30520056316E+03  0.41033274216E+03  0.26297759085E+03 0.  0.
         25    1    4    4    0    0  0.62956062016E+02 -0.48852664645E+02 -0.15963868536E+03  0.21790380114E+03  0.12509000000E+03 0.  0.
         25    1    3    3    0    0 -0.52280734546E+02  0.57750212483E+02 -0.20416745251E+02  0.14877067531E+03  0.12509000000E+03 0.  0.
         25    1    4    4    0    0 -0.10675327469E+02 -0.88975478383E+01 -0.14556187781E+03  0.19242894103E+03  0.12509000000E+03 0.  0.
<mgrwt>
<rscale>  2 0.45449972E+03</rscale>
<asrwt>0</asrwt>
<pdfrwt beam="1">  1       21 0.17168096E-01 0.45449972E+03</pdfrwt>
<pdfrwt beam="2">  1       21 0.65052994E-01 0.45449972E+03</pdfrwt>
<totfact> 0.61511984E+04</totfact>
</mgrwt>
</event>
<event>
 7    0  0.4748297E-002  0.4532891E+03  0.7546771E-02  0.1026746E+00
         21   -1    0    0  502  501  0.00000000000E+00  0.00000000000E+00  0.16718505086E+04  0.16718505086E+04  0.00000000000E+00 0. -1.
         21   -1    0    0  501  502 -0.00000000000E+00 -0.00000000000E+00 -0.30725084046E+02  0.30725084046E+02  0.00000000000E+00 0. -1.
      99926    2    1    2    0    0 -0.14210854715E-13  0.71054273576E-14  0.16411254246E+04  0.17025755926E+04  0.45328907946E+03 0.  0.
      99925    2    3    3    0    0 -0.10534668708E+03  0.35986684060E+02  0.10065478242E+04  0.10462759623E+04  0.26298650315E+03 0.  0.
         25    1    3    3    0    0  0.10534668708E+03 -0.35986684060E+02  0.63457760034E+03  0.65629963040E+03  0.12509000000E+03 0.  0.
         25    1    4    4    0    0 -0.93087413987E+02  0.28006252780E+02  0.60815976599E+03  0.62845479225E+03  0.12509000000E+03 0.  0.
         25    1    4    4    0    0 -0.12259273091E+02  0.79804312799E+01  0.39838805823E+03  0.41782117000E+03  0.12509000000E+03 0.  0.
<mgrwt>
<rscale>  2 0.45328908E+03</rscale>
<asrwt>0</asrwt>
<pdfrwt beam="1">  1       21 0.24586031E+00 0.45328908E+03</pdfrwt>
<pdfrwt beam="2">  1       21 0.45183958E-02 0.45328908E+03</pdfrwt>
<totfact> 0.19465449E+04</totfact>
</mgrwt>
</event>
<event>
 7    0  0.4748297E-002  0.4473200E+03  0.7546771E-02  0.1028524E+00
         21   -1    0    0  502  501  0.00000000000E+00  0.00000000000E+00  0.12666725676E+04  0.12666725676E+04  0.00000000000E+00 0.  1.
         21   -1    0    0  501  502 -0.00000000000E+00 -0.00000000000E+00 -0.39492280892E+02  0.39492280892E+02  0.00000000000E+00 0.  1.
      99926    2    1    2    0    0  0.00000000000E+00  0.00000000000E+00  0.12271802867E+04  0.13061648485E+04  0.44731996976E+03 0.  0.
      99925    2    3    3    0    0 -0.83825581075E+02  0.63311658223E+02  0.74628698747E+03  0.79828595794E+03  0.26321304846E+03 0.  0.
         25    1    4    4    0    0 -0.40813161504E+02  0.35279122189E+02  0.48913779439E+03  0.50775350379E+03  0.12509000000E+03 0.  0.
         25    1    3    3    0    0  0.83825581075E+02 -0.63311658223E+02  0.48089329923E+03  0.50787889054E+03  0.12509000000E+03 0.  0.
         25    1    4    4    0    0 -0.43012419571E+02  0.28032536034E+02  0.25714919308E+03  0.29053245415E+03  0.12509000000E+03 0.  0.
<mgrwt>
<rscale>  2 0.44731997E+03</rscale>
<asrwt>0</asrwt>
<pdfrwt beam="1">  1       21 0.18627535E+00 0.44731997E+03</pdfrwt>
<pdfrwt beam="2">  1       21 0.58076892E-02 0.44731997E+03</pdfrwt>
<totfact> 0.30731019E+04</totfact>
</mgrwt>
</event>
<event>
 7    0  0.4748297E-002  0.4616767E+03  0.7546771E-02  0.1024296E+00
         21   -1    0    0  502  501  0.00000000000E+00  0.00000000000E+00  0.41972629544E+03  0.41972629544E+03  0.00000000000E+00 0.  1.
         21   -1    0    0  501  502 -0.00000000000E+00 -0.00000000000E+00 -0.12695495493E+03  0.12695495493E+03  0.00000000000E+00 0.  1.
      99926    2    1    2    0    0  0.00000000000E+00  0.00000000000E+00  0.29277134052E+03  0.54668125037E+03  0.46167665273E+03 0.  0.
      99925    2    3    3    0    0  0.45755630064E+02 -0.71316257570E+02  0.28271876914E+03  0.39526081394E+03  0.26290991297E+03 0.  0.
         25    1    4    4    0    0  0.56089729323E+02 -0.48367157116E+02  0.12014661978E+03  0.18859522254E+03  0.12509000000E+03 0.  0.
         25    1    3    3    0    0 -0.45755630064E+02  0.71316257570E+02  0.10052571379E+02  0.15142043643E+03  0.12509000000E+03 0.  0.
         25    1    4    4    0    0 -0.10334099259E+02 -0.22949100454E+02  0.16257214936E+03  0.20666559140E+03  0.12509000000E+03 0.  0.
<mgrwt>
<rscale>  2 0.46167665E+03</rscale>
<asrwt>0</asrwt>
<pdfrwt beam="1">  1       21 0.61724455E-01 0.46167665E+03</pdfrwt>
<pdfrwt beam="2">  1       21 0.18669846E-01 0.46167665E+03</pdfrwt>
<totfact> 0.58911775E+04</totfact>
</mgrwt>
</event>
<event>
 7    0  0.4748297E-002  0.4551210E+03  0.7546771E-02  0.1026206E+00
         21   -1    0    0  502  501  0.00000000000E+00  0.00000000000E+00  0.18295279337E+03  0.18295279337E+03  0.00000000000E+00 0.  1.
         21   -1    0    0  501  502 -0.00000000000E+00 -0.00000000000E+00 -0.28304453101E+03  0.28304453101E+03  0.00000000000E+00 0.  1.
      99926    2    1    2    0    0  0.00000000000E+00  0.14210854715E-13 -0.10009173764E+03  0.46599732438E+03  0.45512102829E+03 0.  0.
      99925    2    3    3    0    0  0.75940040800E+02  0.68932714222E+02 -0.13833082453E+02  0.28267609653E+03  0.26305096938E+03 0.  0.
         25    1    3    3    0    0 -0.75940040800E+02 -0.68932714222E+02 -0.86258655187E+02  0.18332122785E+03  0.12509000000E+03 0.  0.
         25    1    4    4    0    0  0.30029205557E+02 -0.10361885260E+01  0.14725508597E+02  0.12948812909E+03  0.12509000000E+03 0.  0.
         25    1    4    4    0    0  0.45910835243E+02  0.69968902748E+02 -0.28558591050E+02  0.15318796744E+03  0.12509000000E+03 0.  0.
<mgrwt>
<rscale>  2 0.45512103E+03</rscale>
<asrwt>0</asrwt>
<pdfrwt beam="1">  1       21 0.26904823E-01 0.45512103E+03</pdfrwt>
<pdfrwt beam="2">  1       21 0.41624195E-01 0.45512103E+03</pdfrwt>
<totfact> 0.67670059E+04</totfact>
</mgrwt>
</event>
<event>
 7    0  0.4748297E-002  0.4496090E+03  0.7546771E-02  0.1027839E+00
         21   -1    0    0  502  501  0.00000000000E+00  0.00000000000E+00  0.83959928303E+02  0.83959928303E+02  0.00000000000E+00 0.  1.
         21   -1    0    0  501  502 -0.00000000000E+00 -0.00000000000E+00 -0.60191893896E+03  0.60191893896E+03  0.00000000000E+00 0.  1.
      99926    2    1    2    0    0  0.00000000000E+00  0.00000000000E+00 -0.51795901066E+03  0.68587886727E+03  0.44960903443E+03 0.  0.
      99925    2    3    3    0    0 -0.10053037301E+03 -0.35443927387E+02 -0.30112626531E+03  0.41380061485E+03  0.26304237928E+03 0.  0.
         25    1    4    4    0    0 -0.19399575026E+02 -0.34593835523E+02 -0.10889733922E+03  0.17052628993E+03  0.12509000000E+03 0.  0.
         25    1    3    3    0    0  0.10053037301E+03  0.35443927387E+02 -0.21683274535E+03  0.27207825242E+03  0.12509000000E+03 0.  0.
         25    1    4    4    0    0 -0.81130797980E+02 -0.85009186429E+00 -0.19222892610E+03  0.24327432492E+03  0.12509000000E+03 0.  0.
<mgrwt>
<rscale>  2 0.44960903E+03</rscale>
<asrwt>0</asrwt>
<pdfrwt beam="1">  1       21 0.12347048E-01 0.44960903E+03</pdfrwt>
<pdfrwt beam="2">  1       21 0.88517490E-01 0.44960903E+03</pdfrwt>
<totfact> 0.56016414E+04</totfact>
</mgrwt>
</event>
<event>
 7    0  0.4748297E-002  0.4550697E+03  0.7546771E-02  0.1026221E+00
         21   -1    0    0  502  501  0.00000000000E+00  0.00000000000E+00  0.10260497210E+04  0.10260497210E+04  0.00000000000E+00 0. -1.
         21   -1    0    0  501  502 -0.00000000000E+00 -0.00000000000E+00 -0.50457691547E+02  0.50457691547E+02  0.00000000000E+00 0. -1.
      99926    2    1    2    0    0 -0.71054273576E-14  0.00000000000E+00  0.97559202946E+03  0.10765074126E+04  0.45506966647E+03 0.  0.
      99925    2    3    3    0    0  0.53206847473E+02 -0.44449140989E+02  0.40230560679E+03  0.48565080959E+03  0.26305933332E+03 0.  0.
         25    1    4    4    0    0  0.84715084815E+01 -0.69392835996E+01  0.13229316105E+03  0.18239766630E+03  0.12509000000E+03 0.  0.
         25    1    4    4    0    0  0.44735338992E+02 -0.37509857389E+02  0.27001244575E+03  0.30325314329E+03  0.12509000000E+03 0.  0.
         25    1    3    3    0    0 -0.53206847473E+02  0.44449140989E+02  0.57328642267E+03  0.59085660297E+03  0.12509000000E+03 0.  0.
<mgrwt>
<rscale>  2 0.45506967E+03</rscale>
<asrwt>0</asrwt>
<pdfrwt beam="1">  1       21 0.15088965E+00 0.45506967E+03</pdfrwt>
<pdfrwt beam="2">  1       21 0.74202494E-02 0.45506967E+03</pdfrwt>
<totfact> 0.36299802E+04</totfact>
</mgrwt>
</event>
<event>
 7    0  0.4748297E-002  0.4809190E+03  0.7546771E-02  0.1018883E+00
         21   -1    0    0  502  501  0.00000000000E+00  0.00000000000E+00  0.13735924356E+03  0.13735924356E+03  0.00000000000E+00 0.  1.
         21   -1    0    0  501  502 -0.00000000000E+00 -0.00000000000E+00 -0.42094566639E+03  0.42094566639E+03  0.00000000000E+00 0.  1.
      99926    2    1    2    0    0  0.00000000000E+00  0.00000000000E+00 -0.28358642284E+03  0.55830490995E+03  0.48091902983E+03 0.  0.
      99925    2    3    3    0    0 -0.59521906238E+02  0.34522540278E+02 -0.31083314095E+03  0.41296202276E+03  0.26303179964E+03 0.  0.
         25    1    3    3    0    0  0.59521906238E+02 -0.34522540278E+02  0.27246718111E+02  0.14534288719E+03  0.12509000000E+03 0.  0.
         25    1    4    4    0    0 -0.35815388675E+01  0.33559354835E+02 -0.11071959931E+03  0.17042709729E+03  0.12509000000E+03 0.  0.
         25    1    4    4    0    0 -0.55940367371E+02  0.96318544234E+00 -0.20011354163E+03  0.24253492547E+03  0.12509000000E+03 0.  0.
<mgrwt>
<rscale>  2 0.48091903E+03</rscale>
<asrwt>0</asrwt>
<pdfrwt beam="1">  1       21 0.20199889E-01 0.48091903E+03</pdfrwt>
<pdfrwt beam="2">  1       21 0.61903775E-01 0.48091903E+03</pdfrwt>
<totfact> 0.50200723E+04</totfact>
</mgrwt>
</event>
<event>
 7    0  0.4748297E-002  0.4540256E+03  0.7546771E-02  0.1026528E+00
         21   -1    0    0  502  501  0.00000000000E+00  0.00000000000E+00  0.30681495281E+03  0.30681495281E+03  0.00000000000E+00 0. -1.
         21   -1    0    0  501  502 -0.00000000000E+00 -0.00000000000E+00 -0.16796708246E+03  0.16796708246E+03  0.00000000000E+00 0. -1.
      99926    2    1    2    0    0  0.00000000000E+00 -0.71054273576E-14  0.13884787036E+03  0.47478203527E+03  0.45402560491E+03 0.  0.
      99925    2    3    3    0    0 -0.92719484848E+02  0.62998297480E+02  0.93087003606E+02  0.30069224986E+03  0.26303032246E+03 0.  0.
         25    1    4    4    0    0 -0.77925321932E+02  0.75648446186E+01  0.37428064850E+02  0.15224306490E+03  0.12509000000E+03 0.  0.
         25    1    3    3    0    0  0.92719484848E+02 -0.62998297480E+02  0.45760866750E+02  0.17408978540E+03  0.12509000000E+03 0.  0.
         25    1    4    4    0    0 -0.14794162915E+02  0.55433452862E+02  0.55658938756E+02  0.14844918496E+03  0.12509000000E+03 0.  0.
<mgrwt>
<rscale>  2 0.45402560E+03</rscale>
<asrwt>0</asrwt>
<pdfrwt beam="1">  1       21 0.45119846E-01 0.45402560E+03</pdfrwt>
<pdfrwt beam="2">  1       21 0.24701042E-01 0.45402560E+03</pdfrwt>
<totfact> 0.67603187E+04</totfact>
</mgrwt>
</event>
<event>
 7    0  0.4748297E-002  0.4582109E+03  0.7546771E-02  0.1025301E+00
         21   -1    0    0  502  501  0.00000000000E+00  0.00000000000E+00  0.27299497570E+03  0.27299497570E+03  0.00000000000E+00 0. -1.
         21   -1    0    0  501  502 -0.00000000000E+00 -0.00000000000E+00 -0.19227208560E+03  0.19227208560E+03  0.00000000000E+00 0. -1.
      99926    2    1    2    0    0  0.00000000000E+00 -0.14210854715E-13  0.80722890097E+02  0.46526706130E+03  0.45821092670E+03 0.  0.
      99925    2    3    3    0    0 -0.39338261236E+02 -0.94665423387E+02 -0.42538902849E+01  0.28257167962E+03  0.26328618908E+03 0.  0.
         25    1    4    4    0    0 -0.51705196516E+02 -0.61221349651E+02  0.21110569715E+02  0.15004880957E+03  0.12509000000E+03 0.  0.
         25    1    4    4    0    0  0.12366935280E+02 -0.33444073736E+02 -0.25364460000E+02  0.13252287005E+03  0.12509000000E+03 0.  0.
         25    1    3    3    0    0  0.39338261236E+02  0.94665423387E+02  0.84976780382E+02  0.18269538168E+03  0.12509000000E+03 0.  0.
<mgrwt>
<rscale>  2 0.45821093E+03</rscale>
<asrwt>0</asrwt>
<pdfrwt beam="1">  1       21 0.40146320E-01 0.45821093E+03</pdfrwt>
<pdfrwt beam="2">  1       21 0.28275307E-01 0.45821093E+03</pdfrwt>
<totfact> 0.66087258E+04</totfact>
</mgrwt>
</event>
<event>
 7    0  0.4748297E-002  0.4173755E+03  0.7546771E-02  0.1037924E+00
         21   -1    0    0  502  501  0.00000000000E+00  0.00000000000E+00  0.21823693119E+04  0.21823693119E+04  0.00000000000E+00 0. -1.
         21   -1    0    0  501  502 -0.00000000000E+00 -0.00000000000E+00 -0.19955635961E+02  0.19955635961E+02  0.00000000000E+00 0. -1.
      99926    2    1    2    0    0  0.00000000000E+00  0.00000000000E+00  0.21624136760E+04  0.22023249479E+04  0.41737545458E+03 0.  0.
      99925    2    3    3    0    0  0.18565238412E+01 -0.55132235063E+02  0.11646599655E+04  0.11952484936E+04  0.26295078643E+03 0.  0.
         25    1    4    4    0    0 -0.36052215088E+00 -0.12701408998E+02  0.40113449476E+03  0.42037821870E+03  0.12509000000E+03 0.  0.
         25    1    3    3    0    0 -0.18565238412E+01  0.55132235063E+02  0.99775371045E+03  0.10070764543E+04  0.12509000000E+03 0.  0.
         25    1    4    4    0    0  0.22170459921E+01 -0.42430826065E+02  0.76352547074E+03  0.77487027486E+03  0.12509000000E+03 0.  0.
<mgrwt>
<rscale>  2 0.41737545E+03</rscale>
<asrwt>0</asrwt>
<pdfrwt beam="1">  1       21 0.32093650E+00 0.41737545E+03</pdfrwt>
<pdfrwt beam="2">  1       21 0.29346538E-02 0.41737545E+03</pdfrwt>
<totfact> 0.14467825E+04</totfact>
</mgrwt>
</event>
<event>
 7    0  0.4748297E-002  0.4518455E+03  0.7546771E-02  0.1027173E+00
         21   -1    0    0  502  501  0.00000000000E+00  0.00000000000E+00  0.36522187695E+03  0.36522187695E+03  0.00000000000E+00 0. -1.
         21   -1    0    0  501  502 -0.00000000000E+00 -0.00000000000E+00 -0.13975362929E+03  0.13975362929E+03  0.00000000000E+00 0. -1.
      99926    2    1    2    0    0  0.00000000000E+00  0.71054273576E-14  0.22546824766E+03  0.50497550624E+03  0.45184547270E+03 0.  0.
      99925    2    3    3    0    0  0.47537251040E+02  0.60671756452E+02  0.54242052032E+02  0.27935021857E+03  0.26297051572E+03 0.  0.
         25    1    4    4    0    0 -0.63106086986E+01  0.57396622017E+02  0.29417016987E+02  0.14087961169E+03  0.12509000000E+03 0.  0.
         25    1    4    4    0    0  0.53847859739E+02  0.32751344356E+01  0.24825035045E+02  0.13847060688E+03  0.12509000000E+03 0.  0.
         25    1    3    3    0    0 -0.47537251040E+02 -0.60671756452E+02  0.17122619563E+03  0.22562528767E+03  0.12509000000E+03 0.  0.
<mgrwt>
<rscale>  2 0.45184547E+03</rscale>
<asrwt>0</asrwt>
<pdfrwt beam="1">  1       21 0.53709100E-01 0.45184547E+03</pdfrwt>
<pdfrwt beam="2">  1       21 0.20552004E-01 0.45184547E+03</pdfrwt>
<totfact> 0.66573793E+04</totfact>
</mgrwt>
</event>
<event>
 7    0  0.4748297E-002  0.4951785E+03  0.7546771E-02  0.1015045E+00
         21   -1    0    0  502  501  0.00000000000E+00  0.00000000000E+00  0.11921181906E+03  0.11921181906E+03  0.00000000000E+00 0. -1.
         21   -1    0    0  501  502 -0.00000000000E+00 -0.00000000000E+00 -0.51421441219E+03  0.51421441219E+03  0.00000000000E+00 0. -1.
      99926    2    1    2    0    0  0.35527136788E-14  0.00000000000E+00 -0.39500259312E+03  0.63342623125E+03  0.49517849495E+03 0.  0.
      99925    2    3    3    0    0  0.26581029877E+02 -0.13464458669E+03 -0.17085675161E+03  0.34235135731E+03  0.26301465055E+03 0.  0.
         25    1    4    4    0    0  0.19181519489E+02 -0.22573734961E+02 -0.75093333329E+02  0.14887585772E+03  0.12509000000E+03 0.  0.
         25    1    3    3    0    0 -0.26581029877E+02  0.13464458669E+03 -0.22414584152E+03  0.29107487395E+03  0.12509000000E+03 0.  0.
         25    1    4    4    0    0  0.73995103886E+01 -0.11207085173E+03 -0.95763418279E+02  0.19347549959E+03  0.12509000000E+03 0.  0.
<mgrwt>
<rscale>  2 0.49517849E+03</rscale>
<asrwt>0</asrwt>
<pdfrwt beam="1">  1       21 0.17531150E-01 0.49517849E+03</pdfrwt>
<pdfrwt beam="2">  1       21 0.75619766E-01 0.49517849E+03</pdfrwt>
<totfact> 0.41757576E+04</totfact>
</mgrwt>
</event>
<event>
 7    0  0.4748297E-002  0.4514026E+03  0.7546771E-02  0.1027305E+00
         21   -1    0    0  502  501  0.00000000000E+00  0.00000000000E+00  0.60937063162E+03  0.60937063162E+03  0.00000000000E+00 0. -1.
         21   -1    0    0  501  502 -0.00000000000E+00 -0.00000000000E+00 -0.83596221348E+02  0.83596221348E+02  0.00000000000E+00 0. -1.
      99926    2    1    2    0    0  0.00000000000E+00  0.35527136788E-14  0.52577441027E+03  0.69296685297E+03  0.45140262385E+03 0.  0.
      99925    2    3    3    0    0 -0.27926499059E+02 -0.27317278100E+02  0.48909933395E+03  0.55688345076E+03  0.26339114684E+03 0.  0.
         25    1    4    4    0    0 -0.20543894335E+01 -0.48605724897E+01  0.16009560183E+03  0.20323866636E+03  0.12509000000E+03 0.  0.
         25    1    4    4    0    0 -0.25872109626E+02 -0.22456705610E+02  0.32900373212E+03  0.35364478440E+03  0.12509000000E+03 0.  0.
         25    1    3    3    0    0  0.27926499059E+02  0.27317278100E+02  0.36675076326E+02  0.13608340221E+03  0.12509000000E+03 0.  0.
<mgrwt>
<rscale>  2 0.45140262E+03</rscale>
<asrwt>0</asrwt>
<pdfrwt beam="1">  1       21 0.89613326E-01 0.45140262E+03</pdfrwt>
<pdfrwt beam="2">  1       21 0.12293562E-01 0.45140262E+03</pdfrwt>
<totfact> 0.54822460E+04</totfact>
</mgrwt>
</event>
<event>
 7    0  0.4748297E-002  0.4517927E+03  0.7546771E-02  0.1027189E+00
         21   -1    0    0  502  501  0.00000000000E+00  0.00000000000E+00  0.73661086300E+03  0.73661086300E+03  0.00000000000E+00 0.  1.
         21   -1    0    0  501  502 -0.00000000000E+00 -0.00000000000E+00 -0.69275588852E+02  0.69275588852E+02  0.00000000000E+00 0.  1.
      99926    2    1    2    0    0  0.00000000000E+00  0.00000000000E+00  0.66733527415E+03  0.80588645186E+03  0.45179265726E+03 0.  0.
      99925    2    3    3    0    0  0.38417466075E+02 -0.10315483871E+03  0.42328786633E+03  0.51038100722E+03  0.26305765964E+03 0.  0.
         25    1    3    3    0    0 -0.38417466075E+02  0.10315483871E+03  0.24404740782E+03  0.29550544464E+03  0.12509000000E+03 0.  0.
         25    1    4    4    0    0  0.29955306927E+02 -0.90872219910E+02  0.20727739811E+03  0.26032001197E+03  0.12509000000E+03 0.  0.
         25    1    4    4    0    0  0.84621591479E+01 -0.12282618797E+02  0.21601046823E+03  0.25006099525E+03  0.12509000000E+03 0.  0.
<mgrwt>
<rscale>  2 0.45179266E+03</rscale>
<asrwt>0</asrwt>
<pdfrwt beam="1">  1       21 0.10832512E+00 0.45179266E+03</pdfrwt>
<pdfrwt beam="2">  1       21 0.10187587E-01 0.45179266E+03</pdfrwt>
<totfact> 0.48695529E+04</totfact>
</mgrwt>
</event>
<event>
 7    0  0.4748297E-002  0.4522944E+03  0.7546771E-02  0.1027040E+00
         21   -1    0    0  502  501  0.00000000000E+00  0.00000000000E+00  0.48874416587E+03  0.48874416587E+03  0.00000000000E+00 0. -1.
         21   -1    0    0  501  502 -0.00000000000E+00 -0.00000000000E+00 -0.10464072821E+03  0.10464072821E+03  0.00000000000E+00 0. -1.
      99926    2    1    2    0    0  0.00000000000E+00  0.00000000000E+00  0.38410343766E+03  0.59338489408E+03  0.45229435294E+03 0.  0.
      99925    2    3    3    0    0  0.26136167041E+02  0.78317342584E+01  0.10164606763E+03  0.28326538604E+03  0.26298844190E+03 0.  0.
         25    1    4    4    0    0 -0.25018823735E+02 -0.73588213180E+00  0.63941891757E+02  0.14269743055E+03  0.12509000000E+03 0.  0.
         25    1    4    4    0    0  0.51154990776E+02  0.85676163902E+01  0.37704175876E+02  0.14056795549E+03  0.12509000000E+03 0.  0.
         25    1    3    3    0    0 -0.26136167041E+02 -0.78317342584E+01  0.28245737003E+03  0.31011950805E+03  0.12509000000E+03 0.  0.
<mgrwt>
<rscale>  2 0.45229435E+03</rscale>
<asrwt>0</asrwt>
<pdfrwt beam="1">  1       21 0.71874141E-01 0.45229435E+03</pdfrwt>
<pdfrwt beam="2">  1       21 0.15388343E-01 0.45229435E+03</pdfrwt>
<totfact> 0.60367757E+04</totfact>
</mgrwt>
</event>
<event>
 7    0  0.4748297E-002  0.4557236E+03  0.7546771E-02  0.1026029E+00
         21   -1    0    0  502  501  0.00000000000E+00  0.00000000000E+00  0.21684449427E+02  0.21684449427E+02  0.00000000000E+00 0.  1.
         21   -1    0    0  501  502 -0.00000000000E+00 -0.00000000000E+00 -0.23943889090E+04  0.23943889090E+04  0.00000000000E+00 0.  1.
      99926    2    1    2    0    0  0.00000000000E+00  0.00000000000E+00 -0.23727044596E+04  0.24160733585E+04  0.45572362329E+03 0.  0.
      99925    2    3    3    0    0 -0.54741354621E+02  0.91002515372E+02 -0.17100127676E+04  0.17333685463E+04  0.26295394739E+03 0.  0.
         25    1    4    4    0    0 -0.62569026105E+02  0.46946207933E+02 -0.76906013873E+03  0.78308354251E+03  0.12509000000E+03 0.  0.
         25    1    3    3    0    0  0.54741354621E+02 -0.91002515372E+02 -0.66269169205E+03  0.68270481214E+03  0.12509000000E+03 0.  0.
         25    1    4    4    0    0  0.78276714845E+01  0.44056307439E+02 -0.94095262883E+03  0.95028500381E+03  0.12509000000E+03 0.  0.
<mgrwt>
<rscale>  2 0.45572362E+03</rscale>
<asrwt>0</asrwt>
<pdfrwt beam="1">  1       21 0.31888873E-02 0.45572362E+03</pdfrwt>
<pdfrwt beam="2">  1       21 0.35211627E+00 0.45572362E+03</pdfrwt>
<totfact> 0.79839790E+03</totfact>
</mgrwt>
</event>
<event>
 7    0  0.4748297E-002  0.4723933E+03  0.7546771E-02  0.1021247E+00
         21   -1    0    0  502  501  0.00000000000E+00  0.00000000000E+00  0.96102689225E+02  0.96102689225E+02  0.00000000000E+00 0.  1.
         21   -1    0    0  501  502 -0.00000000000E+00 -0.00000000000E+00 -0.58051296410E+03  0.58051296410E+03  0.00000000000E+00 0.  1.
      99926    2    1    2    0    0  0.00000000000E+00  0.00000000000E+00 -0.48441027487E+03  0.67661565332E+03  0.47239329792E+03 0.  0.
      99925    2    3    3    0    0  0.41544565621E+02 -0.10627326624E+03 -0.38592261956E+03  0.48073996724E+03  0.26297279282E+03 0.  0.
         25    1    4    4    0    0  0.22785142594E+02 -0.96516309935E+02 -0.22312004379E+03  0.27434398635E+03  0.12509000000E+03 0.  0.
         25    1    3    3    0    0 -0.41544565621E+02  0.10627326624E+03 -0.98487655315E+02  0.19587568609E+03  0.12509000000E+03 0.  0.
         25    1    4    4    0    0  0.18759423026E+02 -0.97569563086E+01 -0.16280257577E+03  0.20639598088E+03  0.12509000000E+03 0.  0.
<mgrwt>
<rscale>  2 0.47239330E+03</rscale>
<asrwt>0</asrwt>
<pdfrwt beam="1">  1       21 0.14132748E-01 0.47239330E+03</pdfrwt>
<pdfrwt beam="2">  1       21 0.85369553E-01 0.47239330E+03</pdfrwt>
<totfact> 0.47356981E+04</totfact>
</mgrwt>
</event>
<event>
 7    0  0.4748297E-002  0.4611273E+03  0.7546771E-02  0.1024455E+00
         21   -1    0    0  502  501  0.00000000000E+00  0.00000000000E+00  0.11210701898E+03  0.11210701898E+03  0.00000000000E+00 0.  1.
         21   -1    0    0  501  502 -0.00000000000E+00 -0.00000000000E+00 -0.47418624066E+03  0.47418624066E+03  0.00000000000E+00 0.  1.
      99926    2    1    2    0    0 -0.14210854715E-13  0.71054273576E-14 -0.36207922168E+03  0.58629325964E+03  0.46112733982E+03 0.  0.
      99925    2    3    3    0    0  0.90183168346E+02 -0.60499898943E+02 -0.16627508529E+03  0.32981712127E+03  0.26332240291E+03 0.  0.
         25    1    4    4    0    0  0.35695618479E+02 -0.39173691528E+02 -0.37357380184E+02  0.14089654801E+03  0.12509000000E+03 0.  0.
         25    1    3    3    0    0 -0.90183168346E+02  0.60499898943E+02 -0.19580413639E+03  0.25647613837E+03  0.12509000000E+03 0.  0.
         25    1    4    4    0    0  0.54487549867E+02 -0.21326207415E+02 -0.12891770510E+03  0.18892057326E+03  0.12509000000E+03 0.  0.
<mgrwt>
<rscale>  2 0.46112734E+03</rscale>
<asrwt>0</asrwt>
<pdfrwt beam="1">  1       21 0.16486326E-01 0.46112734E+03</pdfrwt>
<pdfrwt beam="2">  1       21 0.69733272E-01 0.46112734E+03</pdfrwt>
<totfact> 0.56731910E+04</totfact>
</mgrwt>
</event>
<event>
 7    0  0.4748297E-002  0.4397602E+03  0.7546771E-02  0.1030820E+00
         21   -1    0    0  502  501  0.00000000000E+00  0.00000000000E+00  0.36822144417E+03  0.36822144417E+03  0.00000000000E+00 0.  1.
         21   -1    0    0  501  502 -0.00000000000E+00 -0.00000000000E+00 -0.13129942000E+03  0.13129942000E+03  0.00000000000E+00 0.  1.
      99926    2    1    2    0    0  0.00000000000E+00  0.00000000000E+00  0.23692202417E+03  0.49952086417E+03  0.43976021671E+03 0.  0.
      99925    2    3    3    0    0  0.71537375368E+02  0.66469211543E+02  0.16332806165E+03  0.32459421790E+03  0.26296311226E+03 0.  0.
         25    1    4    4    0    0  0.48296309679E+02  0.70308978490E+02  0.70271498061E+02  0.16691757704E+03  0.12509000000E+03 0.  0.
         25    1    3    3    0    0 -0.71537375368E+02 -0.66469211543E+02  0.73593962515E+02  0.17492664627E+03  0.12509000000E+03 0.  0.
         25    1    4    4    0    0  0.23241065689E+02 -0.38397669472E+01  0.93056563591E+02  0.15767664086E+03  0.12509000000E+03 0.  0.
<mgrwt>
<rscale>  2 0.43976022E+03</rscale>
<asrwt>0</asrwt>
<pdfrwt beam="1">  1       21 0.54150212E-01 0.43976022E+03</pdfrwt>
<pdfrwt beam="2">  1       21 0.19308738E-01 0.43976022E+03</pdfrwt>
<totfact> 0.73839224E+04</totfact>
</mgrwt>
</event>
<event>
 7    0  0.4748297E-002  0.4529867E+03  0.7546771E-02  0.1026835E+00
         21   -1    0    0  502  501  0.00000000000E+00  0.00000000000E+00  0.10992573961E+03  0.10992573961E+03  0.00000000000E+00 0. -1.
         21   -1    0    0  501  502 -0.00000000000E+00 -0.00000000000E+00 -0.46667165418E+03  0.46667165418E+03  0.00000000000E+00 0. -1.
      99926    2    1    2    0    0  0.17763568394E-14 -0.35527136788E-14 -0.35674591458E+03  0.57659739379E+03  0.45298665208E+03 0.  0.
      99925    2    3    3    0    0 -0.97710469313E+01  0.26628460026E+02 -0.87985825691E+02  0.27879873409E+03  0.26302600702E+03 0.  0.
         25    1    4    4    0    0  0.29055027100E+02  0.37615189521E+01 -0.21921051195E+02  0.13033182347E+03  0.12509000000E+03 0.  0.
         25    1    3    3    0    0  0.97710469313E+01 -0.26628460026E+02 -0.26876008889E+03  0.29779865970E+03  0.12509000000E+03 0.  0.
         25    1    4    4    0    0 -0.38826074031E+02  0.22866941074E+02 -0.66064774496E+02  0.14846691062E+03  0.12509000000E+03 0.  0.
<mgrwt>
<rscale>  2 0.45298665E+03</rscale>
<asrwt>0</asrwt>
<pdfrwt beam="1">  1       21 0.16165550E-01 0.45298665E+03</pdfrwt>
<pdfrwt beam="2">  1       21 0.68628184E-01 0.45298665E+03</pdfrwt>
<totfact> 0.61109352E+04</totfact>
</mgrwt>
</event>
<event>
 7    0  0.4748297E-002  0.4497650E+03  0.7546771E-02  0.1027792E+00
         21   -1    0    0  502  501  0.00000000000E+00  0.00000000000E+00  0.86932549458E+03  0.86932549458E+03  0.00000000000E+00 0.  1.
         21   -1    0    0  501  502 -0.00000000000E+00 -0.00000000000E+00 -0.58174003909E+02  0.58174003909E+02  0.00000000000E+00 0.  1.
      99926    2    1    2    0    0 -0.17763568394E-14  0.00000000000E+00  0.81115149068E+03  0.92749949849E+03  0.44976502630E+03 0.  0.
      99925    2    3    3    0    0  0.15793622583E+02 -0.88666951538E+02  0.63654493109E+03  0.69459130722E+03  0.26297598363E+03 0.  0.
         25    1    3    3    0    0 -0.15793622583E+02  0.88666951538E+02  0.17460655959E+03  0.23290819127E+03  0.12509000000E+03 0.  0.
         25    1    4    4    0    0  0.10740508538E+02 -0.61809117101E+02  0.23922275365E+03  0.27714754093E+03  0.12509000000E+03 0.  0.
         25    1    4    4    0    0  0.50531140441E+01 -0.26857834437E+02  0.39732217744E+03  0.41744376630E+03  0.12509000000E+03 0.  0.
<mgrwt>
<rscale>  2 0.44976503E+03</rscale>
<asrwt>0</asrwt>
<pdfrwt beam="1">  1       21 0.12784198E+00 0.44976503E+03</pdfrwt>
<pdfrwt beam="2">  1       21 0.85550011E-02 0.44976503E+03</pdfrwt>
<totfact> 0.43833103E+04</totfact>
</mgrwt>
</event>
<event>
 7    0  0.4748297E-002  0.4647280E+03  0.7546771E-02  0.1023419E+00
         21   -1    0    0  502  501  0.00000000000E+00  0.00000000000E+00  0.59992093194E+02  0.59992093194E+02  0.00000000000E+00 0. -1.
         21   -1    0    0  501  502 -0.00000000000E+00 -0.00000000000E+00 -0.90000229182E+03  0.90000229182E+03  0.00000000000E+00 0. -1.
      99926    2    1    2    0    0  0.00000000000E+00  0.00000000000E+00 -0.84001019863E+03  0.95999438501E+03  0.46472796931E+03 0.  0.
      99925    2    3    3    0    0  0.16762916422E+02  0.10460880796E+03 -0.39529571068E+03  0.48602974292E+03  0.26218736440E+03 0.  0.
         25    1    3    3    0    0 -0.16762916422E+02 -0.10460880796E+03 -0.44471448794E+03  0.47396464209E+03  0.12509000000E+03 0.  0.
         25    1    4    4    0    0 -0.57756300599E+01  0.14856906895E+02 -0.19824179702E+03  0.23494978989E+03  0.12509000000E+03 0.  0.
         25    1    4    4    0    0  0.22538546481E+02  0.89751901061E+02 -0.19705391366E+03  0.25107995302E+03  0.12509000000E+03 0.  0.
<mgrwt>
<rscale>  2 0.46472797E+03</rscale>
<asrwt>0</asrwt>
<pdfrwt beam="1">  1       21 0.88223662E-02 0.46472797E+03</pdfrwt>
<pdfrwt beam="2">  1       21 0.13235329E+00 0.46472797E+03</pdfrwt>
<totfact> 0.37781993E+04</totfact>
</mgrwt>
</event>
<event>
 7    0  0.4748297E-002  0.4628284E+03  0.7546771E-02  0.1023964E+00
         21   -1    0    0  502  501  0.00000000000E+00  0.00000000000E+00  0.81626996756E+02  0.81626996756E+02  0.00000000000E+00 0. -1.
         21   -1    0    0  501  502 -0.00000000000E+00 -0.00000000000E+00 -0.65606394180E+03  0.65606394180E+03  0.00000000000E+00 0. -1.
      99926    2    1    2    0    0  0.71054273576E-14  0.00000000000E+00 -0.57443694504E+03  0.73769093855E+03  0.46282838828E+03 0.  0.
      99925    2    3    3    0    0 -0.33057808999E+02 -0.34884483317E+02 -0.53489187120E+03  0.59797312696E+03  0.26296920118E+03 0.  0.
         25    1    4    4    0    0 -0.53064581933E+02 -0.35530591684E+02 -0.29260663179E+03  0.32456805429E+03  0.12509000000E+03 0.  0.
         25    1    3    3    0    0  0.33057808999E+02  0.34884483317E+02 -0.39545073835E+02  0.13971781159E+03  0.12509000000E+03 0.  0.
         25    1    4    4    0    0  0.20006772934E+02  0.64610836676E+00 -0.24228523942E+03  0.27340507266E+03  0.12509000000E+03 0.  0.
<mgrwt>
<rscale>  2 0.46282839E+03</rscale>
<asrwt>0</asrwt>
<pdfrwt beam="1">  1       21 0.12003970E-01 0.46282839E+03</pdfrwt>
<pdfrwt beam="2">  1       21 0.96479994E-01 0.46282839E+03</pdfrwt>
<totfact> 0.47887772E+04</totfact>
</mgrwt>
</event>
<event>
 7    0  0.4748297E-002  0.4586393E+03  0.7546771E-02  0.1025177E+00
         21   -1    0    0  502  501  0.00000000000E+00  0.00000000000E+00  0.17243637817E+04  0.17243637817E+04  0.00000000000E+00 0.  1.
         21   -1    0    0  501  502 -0.00000000000E+00 -0.00000000000E+00 -0.30496757346E+02  0.30496757346E+02  0.00000000000E+00 0.  1.
      99926    2    1    2    0    0  0.00000000000E+00 -0.14210854715E-13  0.16938670244E+04  0.17548605391E+04  0.45863930851E+03 0.  0.
      99925    2    3    3    0    0 -0.20745116673E+02 -0.11107018617E+03  0.11744374421E+04  0.12087638945E+04  0.26275445042E+03 0.  0.
         25    1    4    4    0    0 -0.15229193664E+02 -0.87772819427E+02  0.52704237090E+03  0.54896007595E+03  0.12509000000E+03 0.  0.
         25    1    3    3    0    0  0.20745116673E+02  0.11107018617E+03  0.51942958229E+03  0.54609664454E+03  0.12509000000E+03 0.  0.
         25    1    4    4    0    0 -0.55159230094E+01 -0.23297366742E+02  0.64739507120E+03  0.65980381858E+03  0.12509000000E+03 0.  0.
<mgrwt>
<rscale>  2 0.45863931E+03</rscale>
<asrwt>0</asrwt>
<pdfrwt beam="1">  1       21 0.25358284E+00 0.45863931E+03</pdfrwt>
<pdfrwt beam="2">  1       21 0.44848184E-02 0.45863931E+03</pdfrwt>
<totfact> 0.17639493E+04</totfact>
</mgrwt>
</event>
<event>
 7    0  0.4748297E-002  0.4551420E+03  0.7546771E-02  0.1026200E+00
         21   -1    0    0  502  501  0.00000000000E+00  0.00000000000E+00  0.42309775731E+02  0.42309775731E+02  0.00000000000E+00 0.  1.
         21   -1    0    0  501  502 -0.00000000000E+00 -0.00000000000E+00 -0.12240327872E+04  0.12240327872E+04  0.00000000000E+00 0.  1.
      99926    2    1    2    0    0  0.00000000000E+00  0.00000000000E+00 -0.11817230115E+04  0.12663425629E+04  0.45514196780E+03 0.  0.
      99925    2    3    3    0    0  0.16621739908E+02 -0.95641988263E+02 -0.58237731170E+03  0.64643414382E+03  0.26323012167E+03 0.  0.
         25    1    3    3    0    0 -0.16621739908E+02  0.95641988263E+02 -0.59934569975E+03  0.61990841910E+03  0.12509000000E+03 0.  0.
         25    1    4    4    0    0 -0.40122733052E+01 -0.55461874490E+02 -0.38336861179E+03  0.40707630545E+03  0.12509000000E+03 0.  0.
         25    1    4    4    0    0  0.20634013214E+02 -0.40180113773E+02 -0.19900869991E+03  0.23935783836E+03  0.12509000000E+03 0.  0.
<mgrwt>
<rscale>  2 0.45514197E+03</rscale>
<asrwt>0</asrwt>
<pdfrwt beam="1">  1       21 0.62220251E-02 0.45514197E+03</pdfrwt>
<pdfrwt beam="2">  1       21 0.18000484E+00 0.45514197E+03</pdfrwt>
<totfact> 0.30074809E+04</totfact>
</mgrwt>
</event>
<event>
 7    0  0.4748297E-002  0.4513653E+03  0.7546771E-02  0.1027316E+00
         21   -1    0    0  502  501  0.00000000000E+00  0.00000000000E+00  0.61292324126E+03  0.61292324126E+03  0.00000000000E+00 0. -1.
         21   -1    0    0  501  502 -0.00000000000E+00 -0.00000000000E+00 -0.83097948525E+02  0.83097948525E+02  0.00000000000E+00 0. -1.
      99926    2    1    2    0    0 -0.71054273576E-14  0.00000000000E+00  0.52982529274E+03  0.69602118979E+03  0.45136532411E+03 0.  0.
      99925    2    3    3    0    0 -0.39557917512E+02 -0.92009486181E+02  0.26354299882E+03  0.38524097398E+03  0.26253594310E+03 0.  0.
         25    1    3    3    0    0  0.39557917512E+02  0.92009486181E+02  0.26628229392E+03  0.31078021581E+03  0.12509000000E+03 0.  0.
         25    1    4    4    0    0 -0.38599354533E+01 -0.65841776135E+01  0.11423982520E+03  0.16957740492E+03  0.12509000000E+03 0.  0.
         25    1    4    4    0    0 -0.35697982058E+02 -0.85425308568E+02  0.14930317362E+03  0.21566356906E+03  0.12509000000E+03 0.  0.
<mgrwt>
<rscale>  2 0.45136532E+03</rscale>
<asrwt>0</asrwt>
<pdfrwt beam="1">  1       21 0.90135769E-01 0.45136532E+03</pdfrwt>
<pdfrwt beam="2">  1       21 0.12220287E-01 0.45136532E+03</pdfrwt>
<totfact> 0.54666679E+04</totfact>
</mgrwt>
</event>
<event>
 7    0  0.4748297E-002  0.4430112E+03  0.7546771E-02  0.1029827E+00
         21   -1    0    0  502  501  0.00000000000E+00  0.00000000000E+00  0.55663679805E+03  0.55663679805E+03  0.00000000000E+00 0. -1.
         21   -1    0    0  501  502 -0.00000000000E+00 -0.00000000000E+00 -0.88144976302E+02  0.88144976302E+02  0.00000000000E+00 0. -1.
      99926    2    1    2    0    0  0.00000000000E+00  0.00000000000E+00  0.46849182175E+03  0.64478177435E+03  0.44301122953E+03 0.  0.
      99925    2    3    3    0    0  0.80117202785E+02 -0.62180469808E+02  0.30574641821E+03  0.41583035706E+03  0.26296166374E+03 0.  0.
         25    1    4    4    0    0  0.54905570250E+02  0.26920488174E+01  0.17442556466E+03  0.22157087913E+03  0.12509000000E+03 0.  0.
         25    1    4    4    0    0  0.25211632535E+02 -0.64872518626E+02  0.13132085355E+03  0.19425947793E+03  0.12509000000E+03 0.  0.
         25    1    3    3    0    0 -0.80117202785E+02  0.62180469808E+02  0.16274540354E+03  0.22895141729E+03  0.12509000000E+03 0.  0.
<mgrwt>
<rscale>  2 0.44301123E+03</rscale>
<asrwt>0</asrwt>
<pdfrwt beam="1">  1       21 0.81858351E-01 0.44301123E+03</pdfrwt>
<pdfrwt beam="2">  1       21 0.12962497E-01 0.44301123E+03</pdfrwt>
<totfact> 0.61628702E+04</totfact>
</mgrwt>
</event>
<event>
 7    0  0.4748297E-002  0.4270340E+03  0.7546771E-02  0.1034801E+00
         21   -1    0    0  502  501  0.00000000000E+00  0.00000000000E+00  0.25986716633E+03  0.25986716633E+03  0.00000000000E+00 0. -1.
         21   -1    0    0  501  502 -0.00000000000E+00 -0.00000000000E+00 -0.17543393340E+03  0.17543393340E+03  0.00000000000E+00 0. -1.
      99926    2    1    2    0    0  0.00000000000E+00 -0.17763568394E-14  0.84433232927E+02  0.43530109972E+03  0.42703404618E+03 0.  0.
      99925    2    3    3    0    0 -0.42689008069E+02 -0.53939425993E+01 -0.19036471446E+02  0.26735785381E+03  0.26318508453E+03 0.  0.
         25    1    4    4    0    0  0.92484608909E+01  0.24786691945E+02 -0.11882621358E+02  0.12840801734E+03  0.12509000000E+03 0.  0.
         25    1    3    3    0    0  0.42689008069E+02  0.53939425993E+01  0.10346970437E+03  0.16794324592E+03  0.12509000000E+03 0.  0.
         25    1    4    4    0    0 -0.51937468960E+02 -0.30180634544E+02 -0.71538500879E+01  0.13894983647E+03  0.12509000000E+03 0.  0.
<mgrwt>
<rscale>  2 0.42703405E+03</rscale>
<asrwt>0</asrwt>
<pdfrwt beam="1">  1       21 0.38215760E-01 0.42703405E+03</pdfrwt>
<pdfrwt beam="2">  1       21 0.25799108E-01 0.42703405E+03</pdfrwt>
<totfact> 0.88074896E+04</totfact>
</mgrwt>
</event>
<event>
 7    0  0.4748297E-002  0.4490618E+03  0.7546771E-02  0.1028002E+00
         21   -1    0    0  502  501  0.00000000000E+00  0.00000000000E+00  0.18363434455E+03  0.18363434455E+03  0.00000000000E+00 0. -1.
         21   -1    0    0  501  502 -0.00000000000E+00 -0.00000000000E+00 -0.27453538019E+03  0.27453538019E+03  0.00000000000E+00 0. -1.
      99926    2    1    2    0    0  0.00000000000E+00  0.35527136788E-14 -0.90901035643E+02  0.45816972473E+03  0.44906179795E+03 0.  0.
      99925    2    3    3    0    0 -0.52654079179E+02 -0.18544365208E+02  0.36311828213E+02  0.27122864748E+03  0.26292600634E+03 0.  0.
         25    1    4    4    0    0 -0.54398456609E+02  0.12111715457E+02  0.39030174835E+02  0.14239644792E+03  0.12509000000E+03 0.  0.
         25    1    3    3    0    0  0.52654079179E+02  0.18544365208E+02 -0.12721286386E+03  0.18694107726E+03  0.12509000000E+03 0.  0.
         25    1    4    4    0    0  0.17443774304E+01 -0.30656080664E+02 -0.27183466213E+01  0.12883219956E+03  0.12509000000E+03 0.  0.
<mgrwt>
<rscale>  2 0.44906180E+03</rscale>
<asrwt>0</asrwt>
<pdfrwt beam="1">  1       21 0.27005051E-01 0.44906180E+03</pdfrwt>
<pdfrwt beam="2">  1       21 0.40372850E-01 0.44906180E+03</pdfrwt>
<totfact> 0.71642053E+04</totfact>
</mgrwt>
</event>
<event>
 7    0  0.4748297E-002  0.4579075E+03  0.7546771E-02  0.1025390E+00
         21   -1    0    0  502  501  0.00000000000E+00  0.00000000000E+00  0.16210081360E+03  0.16210081360E+03  0.00000000000E+00 0. -1.
         21   -1    0    0  501  502 -0.00000000000E+00 -0.00000000000E+00 -0.32337793339E+03  0.32337793339E+03  0.00000000000E+00 0. -1.
      99926    2    1    2    0    0  0.00000000000E+00  0.00000000000E+00 -0.16127711979E+03  0.48547874699E+03  0.45790752824E+03 0.  0.
      99925    2    3    3    0    0 -0.80485433421E+02  0.69453144446E+02 -0.52539732406E+02  0.28857021041E+03  0.26307926294E+03 0.  0.
         25    1    4    4    0    0 -0.35274452684E+02 -0.25589262932E+01 -0.52581127148E+01  0.13009992685E+03  0.12509000000E+03 0.  0.
         25    1    4    4    0    0 -0.45210980737E+02  0.72012070739E+02 -0.47281619691E+02  0.15847028356E+03  0.12509000000E+03 0.  0.
         25    1    3    3    0    0  0.80485433421E+02 -0.69453144446E+02 -0.10873738738E+03  0.19690853659E+03  0.12509000000E+03 0.  0.
<mgrwt>
<rscale>  2 0.45790753E+03</rscale>
<asrwt>0</asrwt>
<pdfrwt beam="1">  1       21 0.23838355E-01 0.45790753E+03</pdfrwt>
<pdfrwt beam="2">  1       21 0.47555578E-01 0.45790753E+03</pdfrwt>
<totfact> 0.64794938E+04</totfact>
</mgrwt>
</event>
<event>
 7    0  0.4748297E-002  0.4292307E+03  0.7546771E-02  0.1034103E+00
         21   -1    0    0  502  501  0.00000000000E+00  0.00000000000E+00  0.30324496699E+03  0.30324496699E+03  0.00000000000E+00 0.  1.
         21   -1    0    0  501  502 -0.00000000000E+00 -0.00000000000E+00 -0.15188956533E+03  0.15188956533E+03  0.00000000000E+00 0.  1.
      99926    2    1    2    0    0  0.71054273576E-14  0.71054273576E-14  0.15135540166E+03  0.45513453232E+03  0.42923068961E+03 0.  0.
      99925    2    3    3    0    0  0.35990230056E+02  0.33497283879E+02  0.17358596822E+03  0.31890285144E+03  0.26296306891E+03 0.  0.
         25    1    3    3    0    0 -0.35990230056E+02 -0.33497283879E+02 -0.22230566556E+02  0.13623168088E+03  0.12509000000E+03 0.  0.
         25    1    4    4    0    0  0.20203823937E+01  0.16609420302E+02  0.12982070235E+03  0.18105490230E+03  0.12509000000E+03 0.  0.
         25    1    4    4    0    0  0.33969847662E+02  0.16887863577E+02  0.43765265868E+02  0.13784794914E+03  0.12509000000E+03 0.  0.
<mgrwt>
<rscale>  2 0.42923069E+03</rscale>
<asrwt>0</asrwt>
<pdfrwt beam="1">  1       21 0.44594848E-01 0.42923069E+03</pdfrwt>
<pdfrwt beam="2">  1       21 0.22336701E-01 0.42923069E+03</pdfrwt>
<totfact> 0.84571199E+04</totfact>
</mgrwt>
</event>
<event>
 7    0  0.4748297E-002  0.4511816E+03  0.7546771E-02  0.1027370E+00
         21   -1    0    0  502  501  0.00000000000E+00  0.00000000000E+00  0.72794494533E+02  0.72794494533E+02  0.00000000000E+00 0. -1.
         21   -1    0    0  501  502 -0.00000000000E+00 -0.00000000000E+00 -0.69910796741E+03  0.69910796741E+03  0.00000000000E+00 0. -1.
      99926    2    1    2    0    0  0.00000000000E+00  0.00000000000E+00 -0.62631347288E+03  0.77190246194E+03  0.45118160916E+03 0.  0.
      99925    2    3    3    0    0 -0.74094016369E+02  0.65671469047E+02 -0.47524977349E+03  0.55219717188E+03  0.26316668544E+03 0.  0.
         25    1    3    3    0    0  0.74094016369E+02 -0.65671469047E+02 -0.15106369939E+03  0.21970529006E+03  0.12509000000E+03 0.  0.
         25    1    4    4    0    0 -0.52118670998E+02  0.42341249004E+02 -0.17493712942E+03  0.22529901150E+03  0.12509000000E+03 0.  0.
         25    1    4    4    0    0 -0.21975345370E+02  0.23330220043E+02 -0.30031264407E+03  0.32689816038E+03  0.12509000000E+03 0.  0.
<mgrwt>
<rscale>  2 0.45118161E+03</rscale>
<asrwt>0</asrwt>
<pdfrwt beam="1">  1       21 0.10705072E-01 0.45118161E+03</pdfrwt>
<pdfrwt beam="2">  1       21 0.10281000E+00 0.45118161E+03</pdfrwt>
<totfact> 0.50655235E+04</totfact>
</mgrwt>
</event>
<event>
 7    0  0.4748297E-002  0.4543954E+03  0.7546771E-02  0.1026419E+00
         21   -1    0    0  502  501  0.00000000000E+00  0.00000000000E+00  0.58673229456E+02  0.58673229456E+02  0.00000000000E+00 0.  1.
         21   -1    0    0  501  502 -0.00000000000E+00 -0.00000000000E+00 -0.87976735724E+03  0.87976735724E+03  0.00000000000E+00 0.  1.
      99926    2    1    2    0    0  0.00000000000E+00  0.14210854715E-13 -0.82109412779E+03  0.93844058670E+03  0.45439538739E+03 0.  0.
      99925    2    3    3    0    0  0.17539970051E+02  0.78783504461E+02 -0.67899670381E+03  0.73264049650E+03  0.26307999203E+03 0.  0.
         25    1    4    4    0    0  0.83128057866E+01  0.79405603572E+02 -0.40385742571E+03  0.43025885350E+03  0.12509000000E+03 0.  0.
         25    1    4    4    0    0  0.92271642641E+01 -0.62209911038E+00 -0.27513927810E+03  0.30238164300E+03  0.12509000000E+03 0.  0.
         25    1    3    3    0    0 -0.17539970051E+02 -0.78783504461E+02 -0.14209742398E+03  0.20580009020E+03  0.12509000000E+03 0.  0.
<mgrwt>
<rscale>  2 0.45439539E+03</rscale>
<asrwt>0</asrwt>
<pdfrwt beam="1">  1       21 0.86284171E-02 0.45439539E+03</pdfrwt>
<pdfrwt beam="2">  1       21 0.12937754E+00 0.45439539E+03</pdfrwt>
<totfact> 0.41809808E+04</totfact>
</mgrwt>
</event>
<event>
 7    0  0.4748297E-002  0.4516586E+03  0.7546771E-02  0.1027229E+00
         21   -1    0    0  502  501  0.00000000000E+00  0.00000000000E+00  0.83735890950E+02  0.83735890950E+02  0.00000000000E+00 0. -1.
         21   -1    0    0  501  502 -0.00000000000E+00 -0.00000000000E+00 -0.60904440478E+03  0.60904440478E+03  0.00000000000E+00 0. -1.
      99926    2    1    2    0    0  0.00000000000E+00 -0.71054273576E-14 -0.52530851383E+03  0.69278029573E+03  0.45165861384E+03 0.  0.
      99925    2    3    3    0    0 -0.19877027949E+02  0.60125940621E+02 -0.19352562679E+03  0.33258921143E+03  0.26296994193E+03 0.  0.
         25    1    4    4    0    0  0.35519799230E+01 -0.56215531835E+01 -0.70360387052E+02  0.14367432125E+03  0.12509000000E+03 0.  0.
         25    1    3    3    0    0  0.19877027949E+02 -0.60125940621E+02 -0.33178288704E+03  0.36019108430E+03  0.12509000000E+03 0.  0.
         25    1    4    4    0    0 -0.23429007872E+02  0.65747493805E+02 -0.12316523974E+03  0.18891489018E+03  0.12509000000E+03 0.  0.
<mgrwt>
<rscale>  2 0.45165861E+03</rscale>
<asrwt>0</asrwt>
<pdfrwt beam="1">  1       21 0.12314101E-01 0.45165861E+03</pdfrwt>
<pdfrwt beam="2">  1       21 0.89565355E-01 0.45165861E+03</pdfrwt>
<totfact> 0.54721851E+04</totfact>
</mgrwt>
</event>
<event>
 7    0  0.4748297E-002  0.4465959E+03  0.7546771E-02  0.1028742E+00
         21   -1    0    0  502  501  0.00000000000E+00  0.00000000000E+00  0.20874354674E+03  0.20874354674E+03  0.00000000000E+00 0. -1.
         21   -1    0    0  501  502 -0.00000000000E+00 -0.00000000000E+00 -0.23886717891E+03  0.23886717891E+03  0.00000000000E+00 0. -1.
      99926    2    1    2    0    0  0.00000000000E+00  0.00000000000E+00 -0.30123632172E+02  0.44761072564E+03  0.44659593426E+03 0.  0.
      99925    2    3    3    0    0 -0.72999665414E+02 -0.72798182673E+02 -0.39574255430E+02  0.28523662386E+03  0.26299293402E+03 0.  0.
         25    1    3    3    0    0  0.72999665414E+02  0.72798182673E+02  0.94506232574E+01  0.16237410179E+03  0.12509000000E+03 0.  0.
         25    1    4    4    0    0 -0.43572332928E+02 -0.55307479841E+02  0.15417037784E+02  0.14436986762E+03  0.12509000000E+03 0.  0.
         25    1    4    4    0    0 -0.29427332486E+02 -0.17490702832E+02 -0.54991293213E+02  0.14086675623E+03  0.12509000000E+03 0.  0.
<mgrwt>
<rscale>  2 0.44659593E+03</rscale>
<asrwt>0</asrwt>
<pdfrwt beam="1">  1       21 0.30697580E-01 0.44659593E+03</pdfrwt>
<pdfrwt beam="2">  1       21 0.35127526E-01 0.44659593E+03</pdfrwt>
<totfact> 0.73924562E+04</totfact>
</mgrwt>
</event>
<event>
 7    0  0.4748297E-002  0.4487498E+03  0.7546771E-02  0.1028096E+00
         21   -1    0    0  502  501  0.00000000000E+00  0.00000000000E+00  0.30465256112E+02  0.30465256112E+02  0.00000000000E+00 0. -1.
         21   -1    0    0  501  502 -0.00000000000E+00 -0.00000000000E+00 -0.16525086834E+04  0.16525086834E+04  0.00000000000E+00 0. -1.
      99926    2    1    2    0    0  0.00000000000E+00  0.00000000000E+00 -0.16220434273E+04  0.16829739395E+04  0.44874982013E+03 0.  0.
      99925    2    3    3    0    0 -0.77837735341E+02  0.32442441906E+02 -0.12748342700E+04  0.13044069942E+04  0.26299042847E+03 0.  0.
         25    1    4    4    0    0 -0.69252972281E+02  0.42058768698E+02 -0.62579712224E+03  0.64329966617E+03  0.12509000000E+03 0.  0.
         25    1    4    4    0    0 -0.85847630606E+01 -0.96163267918E+01 -0.64903714775E+03  0.66110732802E+03  0.12509000000E+03 0.  0.
         25    1    3    3    0    0  0.77837735341E+02 -0.32442441906E+02 -0.34720915730E+03  0.37856694533E+03  0.12509000000E+03 0.  0.
<mgrwt>
<rscale>  2 0.44874982E+03</rscale>
<asrwt>0</asrwt>
<pdfrwt beam="1">  1       21 0.44801837E-02 0.44874982E+03</pdfrwt>
<pdfrwt beam="2">  1       21 0.24301604E+00 0.44874982E+03</pdfrwt>
<totfact> 0.20599848E+04</totfact>
</mgrwt>
</event>
<event>
 7    0  0.4748297E-002  0.4559128E+03  0.7546771E-02  0.1025973E+00
         21   -1    0    0  502  501  0.00000000000E+00  0.00000000000E+00  0.14337558039E+03  0.14337558039E+03  0.00000000000E+00 0.  1.
         21   -1    0    0  501  502 -0.00000000000E+00 -0.00000000000E+00 -0.36243350478E+03  0.36243350478E+03  0.00000000000E+00 0.  1.
      99926    2    1    2    0    0  0.00000000000E+00 -0.49960036108E-15 -0.21905792439E+03  0.50580908517E+03  0.45591277280E+03 0.  0.
      99925    2    3    3    0    0 -0.90361842857E+02 -0.48949431722E+00 -0.60639413040E+02  0.28465430886E+03  0.26303124318E+03 0.  0.
         25    1    3    3    0    0  0.90361842857E+02  0.48949431722E+00 -0.15841851135E+03  0.22115477632E+03  0.12509000000E+03 0.  0.
         25    1    4    4    0    0 -0.74111247244E+02 -0.14974834033E+02 -0.56118273028E+01  0.14627277029E+03  0.12509000000E+03 0.  0.
         25    1    4    4    0    0 -0.16250595613E+02  0.14485339716E+02 -0.55027585737E+02  0.13838153857E+03  0.12509000000E+03 0.  0.
<mgrwt>
<rscale>  2 0.45591277E+03</rscale>
<asrwt>0</asrwt>
<pdfrwt beam="1">  1       21 0.21084645E-01 0.45591277E+03</pdfrwt>
<pdfrwt beam="2">  1       21 0.53299043E-01 0.45591277E+03</pdfrwt>
<totfact> 0.64396640E+04</totfact>
</mgrwt>
</event>
<event>
 7    0  0.4748297E-002  0.4511036E+03  0.7546771E-02  0.1027393E+00
         21   -1    0    0  502  501  0.00000000000E+00  0.00000000000E+00  0.34540710748E+02  0.34540710748E+02  0.00000000000E+00 0.  1.
         21   -1    0    0  501  502 -0.00000000000E+00 -0.00000000000E+00 -0.14728592022E+04  0.14728592022E+04  0.00000000000E+00 0.  1.
      99926    2    1    2    0    0  0.00000000000E+00  0.00000000000E+00 -0.14383184915E+04  0.15073999130E+04  0.45110355209E+03 0.  0.
      99925    2    3    3    0    0  0.62229095204E+02 -0.64957140606E+02 -0.11167250261E+04  0.11508024432E+04  0.26302013013E+03 0.  0.
         25    1    4    4    0    0  0.83700965188E+01 -0.32552257487E+02 -0.39723056962E+03  0.41781496087E+03  0.12509000000E+03 0.  0.
         25    1    3    3    0    0 -0.62229095204E+02  0.64957140606E+02 -0.32159346536E+03  0.35659746980E+03  0.12509000000E+03 0.  0.
         25    1    4    4    0    0  0.53858998685E+02 -0.32404883119E+02 -0.71949445649E+03  0.73298748230E+03  0.12509000000E+03 0.  0.
<mgrwt>
<rscale>  2 0.45110355E+03</rscale>
<asrwt>0</asrwt>
<pdfrwt beam="1">  1       21 0.50795156E-02 0.45110355E+03</pdfrwt>
<pdfrwt beam="2">  1       21 0.21659697E+00 0.45110355E+03</pdfrwt>
<totfact> 0.24326270E+04</totfact>
</mgrwt>
</event>
<event>
 7    0  0.4748297E-002  0.4559795E+03  0.7546771E-02  0.1025954E+00
         21   -1    0    0  502  501  0.00000000000E+00  0.00000000000E+00  0.64005516415E+03  0.64005516415E+03  0.00000000000E+00 0. -1.
         21   -1    0    0  501  502 -0.00000000000E+00 -0.00000000000E+00 -0.81210702708E+02  0.81210702708E+02  0.00000000000E+00 0. -1.
      99926    2    1    2    0    0  0.00000000000E+00  0.00000000000E+00  0.55884446144E+03  0.72126586685E+03  0.45597951556E+03 0.  0.
      99925    2    3    3    0    0 -0.93824133100E+02  0.51711013411E+02  0.28967651668E+03  0.40570939418E+03  0.26307913515E+03 0.  0.
         25    1    4    4    0    0 -0.41811884466E+02  0.62023243274E+02  0.12330428305E+03  0.19090984969E+03  0.12509000000E+03 0.  0.
         25    1    4    4    0    0 -0.52012248634E+02 -0.10312229863E+02  0.16637223363E+03  0.21479954449E+03  0.12509000000E+03 0.  0.
         25    1    3    3    0    0  0.93824133100E+02 -0.51711013411E+02  0.26916794476E+03  0.31555647267E+03  0.12509000000E+03 0.  0.
<mgrwt>
<rscale>  2 0.45597952E+03</rscale>
<asrwt>0</asrwt>
<pdfrwt beam="1">  1       21 0.94125757E-01 0.45597952E+03</pdfrwt>
<pdfrwt beam="2">  1       21 0.11942751E-01 0.45597952E+03</pdfrwt>
<totfact> 0.51366678E+04</totfact>
</mgrwt>
</event>
<event>
 7    0  0.4748297E-002  0.4541667E+03  0.7546771E-02  0.1026487E+00
         21   -1    0    0  502  501  0.00000000000E+00  0.00000000000E+00  0.22723727474E+03  0.22723727474E+03  0.00000000000E+00 0.  1.
         21   -1    0    0  501  502 -0.00000000000E+00 -0.00000000000E+00 -0.22692948232E+03  0.22692948232E+03  0.00000000000E+00 0.  1.
      99926    2    1    2    0    0  0.00000000000E+00  0.00000000000E+00  0.30779242406E+00  0.45416675706E+03  0.45416665277E+03 0.  0.
      99925    2    3    3    0    0  0.40308963350E+02  0.10471938649E+03 -0.67471201911E+01  0.28597566834E+03  0.26295550350E+03 0.  0.
         25    1    3    3    0    0 -0.40308963350E+02 -0.10471938649E+03  0.70549126152E+01  0.16819108872E+03  0.12509000000E+03 0.  0.
         25    1    4    4    0    0 -0.51516234600E+01  0.33922636386E+02 -0.30798007023E+02  0.13331657744E+03  0.12509000000E+03 0.  0.
         25    1    4    4    0    0  0.45460586810E+02  0.70796750102E+02  0.24050886832E+02  0.15265909090E+03  0.12509000000E+03 0.  0.
<mgrwt>
<rscale>  2 0.45416665E+03</rscale>
<asrwt>0</asrwt>
<pdfrwt beam="1">  1       21 0.33417246E-01 0.45416665E+03</pdfrwt>
<pdfrwt beam="2">  1       21 0.33371983E-01 0.45416665E+03</pdfrwt>
<totfact> 0.69064964E+04</totfact>
</mgrwt>
</event>
<event>
 7    0  0.4748297E-002  0.4543158E+03  0.7546771E-02  0.1026443E+00
         21   -1    0    0  502  501  0.00000000000E+00  0.00000000000E+00  0.10601123336E+03  0.10601123336E+03  0.00000000000E+00 0. -1.
         21   -1    0    0  501  502 -0.00000000000E+00 -0.00000000000E+00 -0.48674751132E+03  0.48674751132E+03  0.00000000000E+00 0. -1.
      99926    2    1    2    0    0 -0.71054273576E-14  0.00000000000E+00 -0.38073627796E+03  0.59275874468E+03  0.45431576688E+03 0.  0.
      99925    2    3    3    0    0 -0.60882628978E+02 -0.71866484580E+02 -0.15907137471E+03  0.32136544419E+03  0.26286985440E+03 0.  0.
         25    1    3    3    0    0  0.60882628978E+02  0.71866484580E+02 -0.22166490325E+03  0.27139330049E+03  0.12509000000E+03 0.  0.
         25    1    4    4    0    0 -0.53372623764E+02 -0.36591455460E+02 -0.43826053587E+02  0.14749848356E+03  0.12509000000E+03 0.  0.
         25    1    4    4    0    0 -0.75100052132E+01 -0.35275029120E+02 -0.11524532112E+03  0.17386696063E+03  0.12509000000E+03 0.  0.
<mgrwt>
<rscale>  2 0.45431577E+03</rscale>
<asrwt>0</asrwt>
<pdfrwt beam="1">  1       21 0.15589887E-01 0.45431577E+03</pdfrwt>
<pdfrwt beam="2">  1       21 0.71580517E-01 0.45431577E+03</pdfrwt>
<totfact> 0.59447015E+04</totfact>
</mgrwt>
</event>
<event>
 6    0  0.4748297E-002  0.4486792E+03  0.7546771E-02  0.1028117E+00
         21   -1    0    0  502  501  0.00000000000E+00  0.00000000000E+00  0.19582438313E+03  0.19582438313E+03  0.00000000000E+00 0. -1.
         21   -1    0    0  501  502 -0.00000000000E+00 -0.00000000000E+00 -0.25700704067E+03  0.25700704067E+03  0.00000000000E+00 0. -1.
      99926    2    1    2    0    0  0.00000000000E+00  0.71054273576E-14 -0.61182657542E+02  0.45283142379E+03  0.44867915128E+03 0.  0.
         25    1    3    3    0    0 -0.53134595271E+01  0.73557471246E+01  0.44860418185E+02  0.13320024432E+03  0.12509000000E+03 0.  0.
         25    1    3    3    0    0  0.15153929296E+02 -0.67875515697E+02  0.23150852591E+01  0.14314186992E+03  0.12509000000E+03 0.  0.
         25    1    3    3    0    0 -0.98404697684E+01  0.60519768572E+02 -0.10835816099E+03  0.17648930955E+03  0.12509000000E+03 0.  0.
<mgrwt>
<rscale>  2 0.44867915E+03</rscale>
<asrwt>0</asrwt>
<pdfrwt beam="1">  1       21 0.28797704E-01 0.44867915E+03</pdfrwt>
<pdfrwt beam="2">  1       21 0.37795152E-01 0.44867915E+03</pdfrwt>
<totfact> 0.72281567E+04</totfact>
</mgrwt>
</event>
<event>
 7    0  0.4748297E-002  0.4449948E+03  0.7546771E-02  0.1029225E+00
         21   -1    0    0  502  501  0.00000000000E+00  0.00000000000E+00  0.12814484615E+04  0.12814484615E+04  0.00000000000E+00 0.  1.
         21   -1    0    0  501  502 -0.00000000000E+00 -0.00000000000E+00 -0.38632144441E+02  0.38632144441E+02  0.00000000000E+00 0.  1.
      99926    2    1    2    0    0  0.00000000000E+00  0.00000000000E+00  0.12428163170E+04  0.13200806059E+04  0.44499484068E+03 0.  0.
      99925    2    3    3    0    0  0.28056377796E+02  0.12176403230E+02  0.49622210775E+03  0.56246206960E+03  0.26304329375E+03 0.  0.
         25    1    3    3    0    0 -0.28056377796E+02 -0.12176403230E+02  0.74659420929E+03  0.75761853632E+03  0.12509000000E+03 0.  0.
         25    1    4    4    0    0 -0.34888105806E+01  0.30181314246E+02  0.18801401684E+03  0.22785930343E+03  0.12509000000E+03 0.  0.
         25    1    4    4    0    0  0.31545188377E+02 -0.18004911016E+02  0.30820809091E+03  0.33460276618E+03  0.12509000000E+03 0.  0.
<mgrwt>
<rscale>  2 0.44499484E+03</rscale>
<asrwt>0</asrwt>
<pdfrwt beam="1">  1       21 0.18844828E+00 0.44499484E+03</pdfrwt>
<pdfrwt beam="2">  1       21 0.56811986E-02 0.44499484E+03</pdfrwt>
<totfact> 0.30869790E+04</totfact>
</mgrwt>
</event>
<event>
 7    0  0.4748297E-002  0.4541715E+03  0.7546771E-02  0.1026485E+00
         21   -1    0    0  502  501  0.00000000000E+00  0.00000000000E+00  0.51892832932E+03  0.51892832932E+03  0.00000000000E+00 0. -1.
         21   -1    0    0  501  502 -0.00000000000E+00 -0.00000000000E+00 -0.99373893550E+02  0.99373893550E+02  0.00000000000E+00 0. -1.
      99926    2    1    2    0    0  0.00000000000E+00  0.00000000000E+00  0.41955443577E+03  0.61830222287E+03  0.45417145907E+03 0.  0.
      99925    2    3    3    0    0 -0.56346130679E+02 -0.31010045357E+02  0.38965921525E+03  0.47450465104E+03  0.26302823131E+03 0.  0.
         25    1    4    4    0    0 -0.33816163945E+02 -0.60402702820E+01  0.12648133396E+03  0.18117685765E+03  0.12509000000E+03 0.  0.
         25    1    3    3    0    0  0.56346130679E+02  0.31010045357E+02  0.29895220516E+02  0.14379757183E+03  0.12509000000E+03 0.  0.
         25    1    4    4    0    0 -0.22529966734E+02 -0.24969775075E+02  0.26317788130E+03  0.29332779338E+03  0.12509000000E+03 0.  0.
<mgrwt>
<rscale>  2 0.45417146E+03</rscale>
<asrwt>0</asrwt>
<pdfrwt beam="1">  1       21 0.76312988E-01 0.45417146E+03</pdfrwt>
<pdfrwt beam="2">  1       21 0.14613808E-01 0.45417146E+03</pdfrwt>
<totfact> 0.57943821E+04</totfact>
</mgrwt>
</event>
<event>
 7    0  0.4748297E-002  0.4543953E+03  0.7546771E-02  0.1026419E+00
         21   -1    0    0  502  501  0.00000000000E+00  0.00000000000E+00  0.54672519598E+02  0.54672519598E+02  0.00000000000E+00 0.  1.
         21   -1    0    0  501  502 -0.00000000000E+00 -0.00000000000E+00 -0.94414475432E+03  0.94414475432E+03  0.00000000000E+00 0.  1.
      99926    2    1    2    0    0  0.14210854715E-13  0.00000000000E+00 -0.88947223472E+03  0.99881727391E+03  0.45439530184E+03 0.  0.
      99925    2    3    3    0    0 -0.95198277319E+02 -0.59685668541E+02 -0.57050474029E+03  0.63824431093E+03  0.26316354365E+03 0.  0.
         25    1    4    4    0    0 -0.40411755759E+02  0.31793215610E+00 -0.20563621497E+03  0.24406345915E+03  0.12509000000E+03 0.  0.
         25    1    3    3    0    0  0.95198277319E+02  0.59685668541E+02 -0.31896749442E+03  0.36057296298E+03  0.12509000000E+03 0.  0.
         25    1    4    4    0    0 -0.54786521560E+02 -0.60003600697E+02 -0.36486852532E+03  0.39418085178E+03  0.12509000000E+03 0.  0.
<mgrwt>
<rscale>  2 0.45439530E+03</rscale>
<asrwt>0</asrwt>
<pdfrwt beam="1">  1       21 0.80400768E-02 0.45439530E+03</pdfrwt>
<pdfrwt beam="2">  1       21 0.13884481E+00 0.45439530E+03</pdfrwt>
<totfact> 0.39398568E+04</totfact>
</mgrwt>
</event>
<event>
 7    0  0.4748297E-002  0.4663418E+03  0.7546771E-02  0.1022958E+00
         21   -1    0    0  502  501  0.00000000000E+00  0.00000000000E+00  0.14579244526E+03  0.14579244526E+03  0.00000000000E+00 0.  1.
         21   -1    0    0  501  502 -0.00000000000E+00 -0.00000000000E+00 -0.37291834039E+03  0.37291834039E+03  0.00000000000E+00 0.  1.
      99926    2    1    2    0    0  0.00000000000E+00 -0.88817841970E-15 -0.22712589513E+03  0.51871078565E+03  0.46634183483E+03 0.  0.
      99925    2    3    3    0    0  0.41076569522E+02 -0.22342363619E+01 -0.27116942718E+03  0.37985972447E+03  0.26280843911E+03 0.  0.
         25    1    3    3    0    0 -0.41076569522E+02  0.22342363619E+01  0.44043532043E+02  0.13885106118E+03  0.12509000000E+03 0.  0.
         25    1    4    4    0    0  0.13561464810E+02 -0.15458728024E+02 -0.81828957305E+02  0.15088529403E+03  0.12509000000E+03 0.  0.
         25    1    4    4    0    0  0.27515104712E+02  0.13224491662E+02 -0.18934046987E+03  0.22897443045E+03  0.12509000000E+03 0.  0.
<mgrwt>
<rscale>  2 0.46634183E+03</rscale>
<asrwt>0</asrwt>
<pdfrwt beam="1">  1       21 0.21440066E-01 0.46634183E+03</pdfrwt>
<pdfrwt beam="2">  1       21 0.54840932E-01 0.46634183E+03</pdfrwt>
<totfact> 0.58527302E+04</totfact>
</mgrwt>
</event>
<event>
 7    0  0.4748297E-002  0.4358561E+03  0.7546771E-02  0.1032026E+00
         21   -1    0    0  502  501  0.00000000000E+00  0.00000000000E+00  0.61529711720E+02  0.61529711720E+02  0.00000000000E+00 0.  1.
         21   -1    0    0  501  502 -0.00000000000E+00 -0.00000000000E+00 -0.77186496395E+03  0.77186496395E+03  0.00000000000E+00 0.  1.
      99926    2    1    2    0    0 -0.35527136788E-14 -0.14210854715E-13 -0.71033525223E+03  0.83339467567E+03  0.43585607128E+03 0.  0.
      99925    2    3    3    0    0 -0.25972484470E+02 -0.84863814191E+02 -0.51494431149E+03  0.58499667904E+03  0.26301527263E+03 0.  0.
         25    1    4    4    0    0 -0.15911598239E+02 -0.70109063793E+01 -0.19100538239E+03  0.22898230493E+03  0.12509000000E+03 0.  0.
         25    1    4    4    0    0 -0.10060886231E+02 -0.77852907812E+02 -0.32393892910E+03  0.35601437411E+03  0.12509000000E+03 0.  0.
         25    1    3    3    0    0  0.25972484470E+02  0.84863814191E+02 -0.19539094073E+03  0.24839799663E+03  0.12509000000E+03 0.  0.
<mgrwt>
<rscale>  2 0.43585607E+03</rscale>
<asrwt>0</asrwt>
<pdfrwt beam="1">  1       21 0.90484874E-02 0.43585607E+03</pdfrwt>
<pdfrwt beam="2">  1       21 0.11350955E+00 0.43585607E+03</pdfrwt>
<totfact> 0.53833034E+04</totfact>
</mgrwt>
</event>
<event>
 7    0  0.4748297E-002  0.4631279E+03  0.7546771E-02  0.1023878E+00
         21   -1    0    0  502  501  0.00000000000E+00  0.00000000000E+00  0.24200238061E+03  0.24200238061E+03  0.00000000000E+00 0.  1.
         21   -1    0    0  501  502 -0.00000000000E+00 -0.00000000000E+00 -0.22157572529E+03  0.22157572529E+03  0.00000000000E+00 0.  1.
      99926    2    1    2    0    0  0.17763568394E-14  0.00000000000E+00  0.20426655318E+02  0.46357810590E+03  0.46312785710E+03 0.  0.
      99925    2    3    3    0    0 -0.54481878048E+01 -0.91533744719E+02 -0.65459427220E+02  0.28628728141E+03  0.26318693302E+03 0.  0.
         25    1    3    3    0    0  0.54481878048E+01  0.91533744719E+02  0.85886082538E+02  0.17729082448E+03  0.12509000000E+03 0.  0.
         25    1    4    4    0    0  0.36341557871E+02 -0.56610516531E+02 -0.27445865535E+02  0.14465905794E+03  0.12509000000E+03 0.  0.
         25    1    4    4    0    0 -0.41789745676E+02 -0.34923228188E+02 -0.38013561686E+02  0.14162822347E+03  0.12509000000E+03 0.  0.
<mgrwt>
<rscale>  2 0.46312786E+03</rscale>
<asrwt>0</asrwt>
<pdfrwt beam="1">  1       21 0.35588585E-01 0.46312786E+03</pdfrwt>
<pdfrwt beam="2">  1       21 0.32584666E-01 0.46312786E+03</pdfrwt>
<totfact> 0.63690213E+04</totfact>
</mgrwt>
</event>
<event>
 7    0  0.4748297E-002  0.4666235E+03  0.7546771E-02  0.1022878E+00
         21   -1    0    0  502  501  0.00000000000E+00  0.00000000000E+00  0.44571363263E+03  0.44571363263E+03  0.00000000000E+00 0. -1.
         21   -1    0    0  501  502 -0.00000000000E+00 -0.00000000000E+00 -0.12212858597E+03  0.12212858597E+03  0.00000000000E+00 0. -1.
      99926    2    1    2    0    0  0.00000000000E+00  0.00000000000E+00  0.32358504666E+03  0.56784221860E+03  0.46662351291E+03 0.  0.
      99925    2    3    3    0    0  0.43748167146E+02  0.36756805561E+02  0.67704219610E+02  0.27734700240E+03  0.26281653963E+03 0.  0.
         25    1    3    3    0    0 -0.43748167146E+02 -0.36756805561E+02  0.25588082705E+03  0.29049521620E+03  0.12509000000E+03 0.  0.
         25    1    4    4    0    0  0.24507188636E+01 -0.14703836227E+02  0.17049604033E+02  0.12712358522E+03  0.12509000000E+03 0.  0.
         25    1    4    4    0    0  0.41297448283E+02  0.51460641788E+02  0.50654615577E+02  0.15022341717E+03  0.12509000000E+03 0.  0.
<mgrwt>
<rscale>  2 0.46662351E+03</rscale>
<asrwt>0</asrwt>
<pdfrwt beam="1">  1       21 0.65546122E-01 0.46662351E+03</pdfrwt>
<pdfrwt beam="2">  1       21 0.17960086E-01 0.46662351E+03</pdfrwt>
<totfact> 0.55428887E+04</totfact>
</mgrwt>
</event>
<event>
 7    0  0.4748297E-002  0.4537343E+03  0.7546771E-02  0.1026614E+00
         21   -1    0    0  502  501  0.00000000000E+00  0.00000000000E+00  0.16814700401E+03  0.16814700401E+03  0.00000000000E+00 0. -1.
         21   -1    0    0  501  502 -0.00000000000E+00 -0.00000000000E+00 -0.30609346362E+03  0.30609346362E+03  0.00000000000E+00 0. -1.
      99926    2    1    2    0    0 -0.14210854715E-13  0.00000000000E+00 -0.13794645961E+03  0.47424046762E+03  0.45373427842E+03 0.  0.
      99925    2    3    3    0    0 -0.83863296638E+02  0.21005064880E+02 -0.16132578097E+03  0.32039520107E+03  0.26296922251E+03 0.  0.
         25    1    4    4    0    0 -0.83531756473E+02  0.14845228618E+02 -0.79345856305E+02  0.17070796163E+03  0.12509000000E+03 0.  0.
         25    1    4    4    0    0 -0.33154016450E+00  0.61598362621E+01 -0.81979924669E+02  0.14968723944E+03  0.12509000000E+03 0.  0.
         25    1    3    3    0    0  0.83863296638E+02 -0.21005064880E+02  0.23379321366E+02  0.15384526655E+03  0.12509000000E+03 0.  0.
<mgrwt>
<rscale>  2 0.45373428E+03</rscale>
<asrwt>0</asrwt>
<pdfrwt beam="1">  1       21 0.24727501E-01 0.45373428E+03</pdfrwt>
<pdfrwt beam="2">  1       21 0.45013744E-01 0.45373428E+03</pdfrwt>
<totfact> 0.67800275E+04</totfact>
</mgrwt>
</event>
<event>
 7    0  0.4748297E-002  0.4588415E+03  0.7546771E-02  0.1025118E+00
         21   -1    0    0  502  501  0.00000000000E+00  0.00000000000E+00  0.79086638237E+03  0.79086638237E+03  0.00000000000E+00 0. -1.
         21   -1    0    0  501  502 -0.00000000000E+00 -0.00000000000E+00 -0.66552188797E+02  0.66552188797E+02  0.00000000000E+00 0. -1.
      99926    2    1    2    0    0  0.00000000000E+00 -0.17763568394E-14  0.72431419357E+03  0.85741857117E+03  0.45884153601E+03 0.  0.
      99925    2    3    3    0    0 -0.55062211969E+02 -0.95594461358E+01  0.26273192432E+03  0.37593240357E+03  0.26300927322E+03 0.  0.
         25    1    4    4    0    0  0.28325320647E+01 -0.24859421902E+02  0.99789568406E+02  0.16196135390E+03  0.12509000000E+03 0.  0.
         25    1    3    3    0    0  0.55062211969E+02  0.95594461358E+01  0.46158226925E+03  0.48148616760E+03  0.12509000000E+03 0.  0.
         25    1    4    4    0    0 -0.57894744034E+02  0.15299975766E+02  0.16294235591E+03  0.21397104967E+03  0.12509000000E+03 0.  0.
<mgrwt>
<rscale>  2 0.45884154E+03</rscale>
<asrwt>0</asrwt>
<pdfrwt beam="1">  1       21 0.11630387E+00 0.45884154E+03</pdfrwt>
<pdfrwt beam="2">  1       21 0.97870870E-02 0.45884154E+03</pdfrwt>
<totfact> 0.43775257E+04</totfact>
</mgrwt>
</event>
<event>
 7    0  0.4748297E-002  0.4557290E+03  0.7546771E-02  0.1026027E+00
         21   -1    0    0  502  501  0.00000000000E+00  0.00000000000E+00  0.19054942767E+03  0.19054942767E+03  0.00000000000E+00 0. -1.
         21   -1    0    0  501  502 -0.00000000000E+00 -0.00000000000E+00 -0.27248694753E+03  0.27248694753E+03  0.00000000000E+00 0. -1.
      99926    2    1    2    0    0  0.00000000000E+00  0.14210854715E-13 -0.81937519854E+02  0.46303637520E+03  0.45572900676E+03 0.  0.
      99925    2    3    3    0    0 -0.19454978781E+02  0.11089648117E+03 -0.40386379598E+02  0.28968548512E+03  0.26383725077E+03 0.  0.
         25    1    4    4    0    0  0.29377105419E+02  0.51086493551E+02 -0.34751947905E+02  0.14257647116E+03  0.12509000000E+03 0.  0.
         25    1    3    3    0    0  0.19454978781E+02 -0.11089648117E+03 -0.41551140255E+02  0.17335089008E+03  0.12509000000E+03 0.  0.
         25    1    4    4    0    0 -0.48832084200E+02  0.59809987621E+02 -0.56344316934E+01  0.14710901396E+03  0.12509000000E+03 0.  0.
<mgrwt>
<rscale>  2 0.45572901E+03</rscale>
<asrwt>0</asrwt>
<pdfrwt beam="1">  1       21 0.28021975E-01 0.45572901E+03</pdfrwt>
<pdfrwt beam="2">  1       21 0.40071610E-01 0.45572901E+03</pdfrwt>
<totfact> 0.67563745E+04</totfact>
</mgrwt>
</event>
<event>
 7    0  0.4748297E-002  0.4260486E+03  0.7546771E-02  0.1035116E+00
         21   -1    0    0  502  501  0.00000000000E+00  0.00000000000E+00  0.10233609535E+04  0.10233609535E+04  0.00000000000E+00 0.  1.
         21   -1    0    0  501  502 -0.00000000000E+00 -0.00000000000E+00 -0.44343443602E+02  0.44343443602E+02  0.00000000000E+00 0.  1.
      99926    2    1    2    0    0  0.00000000000E+00  0.00000000000E+00  0.97901750990E+03  0.10677043971E+04  0.42604858280E+03 0.  0.
      99925    2    3    3    0    0  0.13986599738E+02  0.64390138831E+02  0.51060153586E+03  0.57841639624E+03  0.26364727207E+03 0.  0.
         25    1    4    4    0    0  0.40855363150E+01  0.74358230537E+02  0.28735391411E+03  0.32212671126E+03  0.12509000000E+03 0.  0.
         25    1    4    4    0    0  0.99010634226E+01 -0.99680917060E+01  0.22324762175E+03  0.25628968498E+03  0.12509000000E+03 0.  0.
         25    1    3    3    0    0 -0.13986599738E+02 -0.64390138831E+02  0.46841597404E+03  0.48928800086E+03  0.12509000000E+03 0.  0.
<mgrwt>
<rscale>  2 0.42604858E+03</rscale>
<asrwt>0</asrwt>
<pdfrwt beam="1">  1       21 0.15049424E+00 0.42604858E+03</pdfrwt>
<pdfrwt beam="2">  1       21 0.65210953E-02 0.42604858E+03</pdfrwt>
<totfact> 0.46228446E+04</totfact>
</mgrwt>
</event>
<event>
 7    0  0.4748297E-002  0.4580254E+03  0.7546771E-02  0.1025355E+00
         21   -1    0    0  502  501  0.00000000000E+00  0.00000000000E+00  0.14489665818E+04  0.14489665818E+04  0.00000000000E+00 0. -1.
         21   -1    0    0  501  502 -0.00000000000E+00 -0.00000000000E+00 -0.36196019178E+02  0.36196019178E+02  0.00000000000E+00 0. -1.
      99926    2    1    2    0    0  0.00000000000E+00  0.00000000000E+00  0.14127705627E+04  0.14851626010E+04  0.45802542368E+03 0.  0.
      99925    2    3    3    0    0 -0.44186870355E+02  0.73930995620E+02  0.63406371369E+03  0.69178366485E+03  0.26288699912E+03 0.  0.
         25    1    4    4    0    0 -0.88336406015E+01  0.63985627632E+02  0.39721363605E+03  0.42142422155E+03  0.12509000000E+03 0.  0.
         25    1    3    3    0    0  0.44186870355E+02 -0.73930995620E+02  0.77870684897E+03  0.79337893617E+03  0.12509000000E+03 0.  0.
         25    1    4    4    0    0 -0.35353229754E+02  0.99453679881E+01  0.23685007764E+03  0.27035944329E+03  0.12509000000E+03 0.  0.
<mgrwt>
<rscale>  2 0.45802542E+03</rscale>
<asrwt>0</asrwt>
<pdfrwt beam="1">  1       21 0.21308328E+00 0.45802542E+03</pdfrwt>
<pdfrwt beam="2">  1       21 0.53229450E-02 0.45802542E+03</pdfrwt>
<totfact> 0.23585958E+04</totfact>
</mgrwt>
</event>
<event>
 7    0  0.4748297E-002  0.4462918E+03  0.7546771E-02  0.1028834E+00
         21   -1    0    0  502  501  0.00000000000E+00  0.00000000000E+00  0.20546526984E+03  0.20546526984E+03  0.00000000000E+00 0. -1.
         21   -1    0    0  501  502 -0.00000000000E+00 -0.00000000000E+00 -0.24234794234E+03  0.24234794234E+03  0.00000000000E+00 0. -1.
      99926    2    1    2    0    0  0.00000000000E+00  0.44408920985E-14 -0.36882672500E+02  0.44781321217E+03  0.44629176720E+03 0.  0.
      99925    2    3    3    0    0  0.22693715215E+02  0.36777750452E+01 -0.12590058931E+03  0.29257072974E+03  0.26309341073E+03 0.  0.
         25    1    4    4    0    0  0.87595023927E+01 -0.37201715076E+02 -0.50112856535E+02  0.14006963617E+03  0.12509000000E+03 0.  0.
         25    1    3    3    0    0 -0.22693715215E+02 -0.36777750452E+01  0.89017916813E+02  0.15524248244E+03  0.12509000000E+03 0.  0.
         25    1    4    4    0    0  0.13934212823E+02  0.40879490121E+02 -0.75787732778E+02  0.15250109357E+03  0.12509000000E+03 0.  0.
<mgrwt>
<rscale>  2 0.44629177E+03</rscale>
<asrwt>0</asrwt>
<pdfrwt beam="1">  1       21 0.30215481E-01 0.44629177E+03</pdfrwt>
<pdfrwt beam="2">  1       21 0.35639403E-01 0.44629177E+03</pdfrwt>
<totfact> 0.74091152E+04</totfact>
</mgrwt>
</event>
<event>
 7    0  0.4748297E-002  0.4572772E+03  0.7546771E-02  0.1025574E+00
         21   -1    0    0  502  501  0.00000000000E+00  0.00000000000E+00  0.39082456051E+03  0.39082456051E+03  0.00000000000E+00 0.  1.
         21   -1    0    0  501  502 -0.00000000000E+00 -0.00000000000E+00 -0.13375721776E+03  0.13375721776E+03  0.00000000000E+00 0.  1.
      99926    2    1    2    0    0  0.00000000000E+00  0.00000000000E+00  0.25706734275E+03  0.52458177827E+03  0.45727718442E+03 0.  0.
      99925    2    3    3    0    0  0.40715318355E+02  0.10701867546E+03  0.14771168644E+03  0.32279748326E+03  0.26318954927E+03 0.  0.
         25    1    3    3    0    0 -0.40715318355E+02 -0.10701867546E+03  0.10935565630E+03  0.20178429501E+03  0.12509000000E+03 0.  0.
         25    1    4    4    0    0  0.40864190175E+02  0.92135827244E+02  0.74286147606E+02  0.17698822708E+03  0.12509000000E+03 0.  0.
         25    1    4    4    0    0 -0.14887182024E+00  0.14882848220E+02  0.73425538836E+02  0.14580925618E+03  0.12509000000E+03 0.  0.
<mgrwt>
<rscale>  2 0.45727718E+03</rscale>
<asrwt>0</asrwt>
<pdfrwt beam="1">  1       21 0.57474200E-01 0.45727718E+03</pdfrwt>
<pdfrwt beam="2">  1       21 0.19670179E-01 0.45727718E+03</pdfrwt>
<totfact> 0.62439909E+04</totfact>
</mgrwt>
</event>
<event>
 7    0  0.4748297E-002  0.4473185E+03  0.7546771E-02  0.1028525E+00
         21   -1    0    0  502  501  0.00000000000E+00  0.00000000000E+00  0.24861692488E+03  0.24861692488E+03  0.00000000000E+00 0.  1.
         21   -1    0    0  501  502 -0.00000000000E+00 -0.00000000000E+00 -0.20120701988E+03  0.20120701988E+03  0.00000000000E+00 0.  1.
      99926    2    1    2    0    0  0.00000000000E+00  0.35527136788E-14  0.47409905001E+02  0.44982394476E+03  0.44731854666E+03 0.  0.
      99925    2    3    3    0    0  0.80349940900E+02  0.28165226621E+02 -0.33086613577E+02  0.27842793956E+03  0.26301711073E+03 0.  0.
         25    1    4    4    0    0  0.44895986686E+02  0.36040081162E+02  0.17261450536E+02  0.13878041233E+03  0.12509000000E+03 0.  0.
         25    1    3    3    0    0 -0.80349940900E+02 -0.28165226621E+02  0.80496518578E+02  0.17139600519E+03  0.12509000000E+03 0.  0.
         25    1    4    4    0    0  0.35453954214E+02 -0.78748545415E+01 -0.50348064113E+02  0.13964752724E+03  0.12509000000E+03 0.  0.
<mgrwt>
<rscale>  2 0.44731855E+03</rscale>
<asrwt>0</asrwt>
<pdfrwt beam="1">  1       21 0.36561313E-01 0.44731855E+03</pdfrwt>
<pdfrwt beam="2">  1       21 0.29589267E-01 0.44731855E+03</pdfrwt>
<totfact> 0.73318050E+04</totfact>
</mgrwt>
</event>
<event>
 7    0  0.4748297E-002  0.4593560E+03  0.7546771E-02  0.1024968E+00
         21   -1    0    0  502  501  0.00000000000E+00  0.00000000000E+00  0.24131263784E+04  0.24131263784E+04  0.00000000000E+00 0. -1.
         21   -1    0    0  501  502 -0.00000000000E+00 -0.00000000000E+00 -0.21860431519E+02  0.21860431519E+02  0.00000000000E+00 0. -1.
      99926    2    1    2    0    0  0.35527136788E-14  0.00000000000E+00  0.23912659469E+04  0.24349868100E+04  0.45935600112E+03 0.  0.
      99925    2    3    3    0    0  0.18978970051E+02  0.72743044025E+02  0.19754685407E+04  0.19943205611E+04  0.26303382559E+03 0.  0.
         25    1    4    4    0    0  0.30911871016E+02  0.18380504222E+02  0.74797322889E+03  0.75921330727E+03  0.12509000000E+03 0.  0.
         25    1    4    4    0    0 -0.11932900965E+02  0.54362539803E+02  0.12274953118E+04  0.12351072538E+04  0.12509000000E+03 0.  0.
         25    1    3    3    0    0 -0.18978970051E+02 -0.72743044025E+02  0.41579740627E+03  0.44066624890E+03  0.12509000000E+03 0.  0.
<mgrwt>
<rscale>  2 0.45935600E+03</rscale>
<asrwt>0</asrwt>
<pdfrwt beam="1">  1       21 0.35487134E+00 0.45935600E+03</pdfrwt>
<pdfrwt beam="2">  1       21 0.32147710E-02 0.45935600E+03</pdfrwt>
<totfact> 0.75608349E+03</totfact>
</mgrwt>
</event>
<event>
 7    0  0.4748297E-002  0.4488801E+03  0.7546771E-02  0.1028057E+00
         21   -1    0    0  502  501  0.00000000000E+00  0.00000000000E+00  0.16782209671E+04  0.16782209671E+04  0.00000000000E+00 0. -1.
         21   -1    0    0  501  502 -0.00000000000E+00 -0.00000000000E+00 -0.30015910694E+02  0.30015910694E+02  0.00000000000E+00 0. -1.
      99926    2    1    2    0    0  0.00000000000E+00 -0.35527136788E-14  0.16482050564E+04  0.17082368778E+04  0.44888007607E+03 0.  0.
      99925    2    3    3    0    0 -0.10143613431E+03 -0.26396720393E+02  0.95443458571E+03  0.99553003041E+03  0.26296118890E+03 0.  0.
         25    1    4    4    0    0 -0.34989684036E+02 -0.29866883477E+02  0.34518141077E+03  0.37001894973E+03  0.12509000000E+03 0.  0.
         25    1    3    3    0    0  0.10143613431E+03  0.26396720393E+02  0.69377047069E+03  0.71270684737E+03  0.12509000000E+03 0.  0.
         25    1    4    4    0    0 -0.66446450273E+02  0.34701630842E+01  0.60925317494E+03  0.62551108068E+03  0.12509000000E+03 0.  0.
<mgrwt>
<rscale>  2 0.44888008E+03</rscale>
<asrwt>0</asrwt>
<pdfrwt beam="1">  1       21 0.24679714E+00 0.44888008E+03</pdfrwt>
<pdfrwt beam="2">  1       21 0.44141056E-02 0.44888008E+03</pdfrwt>
<totfact> 0.20025733E+04</totfact>
</mgrwt>
</event>
<event>
 7    0  0.4748297E-002  0.4504660E+03  0.7546771E-02  0.1027583E+00
         21   -1    0    0  502  501  0.00000000000E+00  0.00000000000E+00  0.36560536803E+02  0.36560536803E+02  0.00000000000E+00 0. -1.
         21   -1    0    0  501  502 -0.00000000000E+00 -0.00000000000E+00 -0.13875591503E+04  0.13875591503E+04  0.00000000000E+00 0. -1.
      99926    2    1    2    0    0  0.00000000000E+00  0.00000000000E+00 -0.13509986135E+04  0.14241196871E+04  0.45046601373E+03 0.  0.
      99925    2    3    3    0    0 -0.82079558250E+02 -0.17139406022E+02 -0.10727356215E+04  0.11077202340E+04  0.26315696840E+03 0.  0.
         25    1    4    4    0    0 -0.16792455098E+02 -0.41733329773E+02 -0.50822163254E+03  0.52531932503E+03  0.12509000000E+03 0.  0.
         25    1    3    3    0    0  0.82079558250E+02  0.17139406022E+02 -0.27826299201E+03  0.31639945313E+03  0.12509000000E+03 0.  0.
         25    1    4    4    0    0 -0.65287103152E+02  0.24593923751E+02 -0.56451398894E+03  0.58240090894E+03  0.12509000000E+03 0.  0.
<mgrwt>
<rscale>  2 0.45046601E+03</rscale>
<asrwt>0</asrwt>
<pdfrwt beam="1">  1       21 0.53765506E-02 0.45046601E+03</pdfrwt>
<pdfrwt beam="2">  1       21 0.20405278E+00 0.45046601E+03</pdfrwt>
<totfact> 0.26621947E+04</totfact>
</mgrwt>
</event>
<event>
 7    0  0.4748297E-002  0.4549719E+03  0.7546771E-02  0.1026250E+00
         21   -1    0    0  502  501  0.00000000000E+00  0.00000000000E+00  0.48630838614E+03  0.48630838614E+03  0.00000000000E+00 0. -1.
         21   -1    0    0  501  502 -0.00000000000E+00 -0.00000000000E+00 -0.10641365144E+03  0.10641365144E+03  0.00000000000E+00 0. -1.
      99926    2    1    2    0    0  0.00000000000E+00  0.00000000000E+00  0.37989473470E+03  0.59272203758E+03  0.45497187208E+03 0.  0.
      99925    2    3    3    0    0 -0.12807305917E+02 -0.85380873982E+02  0.33477848624E+03  0.43417581498E+03  0.26263678862E+03 0.  0.
         25    1    4    4    0    0  0.92684256603E+01 -0.80175491389E+02  0.19309271754E+03  0.24381615779E+03  0.12509000000E+03 0.  0.
         25    1    3    3    0    0  0.12807305917E+02  0.85380873982E+02  0.45116248454E+02  0.15854622260E+03  0.12509000000E+03 0.  0.
         25    1    4    4    0    0 -0.22075731577E+02 -0.52053825931E+01  0.14168576870E+03  0.19035965719E+03  0.12509000000E+03 0.  0.
<mgrwt>
<rscale>  2 0.45497187E+03</rscale>
<asrwt>0</asrwt>
<pdfrwt beam="1">  1       21 0.71515938E-01 0.45497187E+03</pdfrwt>
<pdfrwt beam="2">  1       21 0.15649067E-01 0.45497187E+03</pdfrwt>
<totfact> 0.59141640E+04</totfact>
</mgrwt>
</event>
<event>
 7    0  0.4748297E-002  0.4434876E+03  0.7546771E-02  0.1029682E+00
         21   -1    0    0  502  501  0.00000000000E+00  0.00000000000E+00  0.88302762849E+02  0.88302762849E+02  0.00000000000E+00 0.  1.
         21   -1    0    0  501  502 -0.00000000000E+00 -0.00000000000E+00 -0.55683770768E+03  0.55683770768E+03  0.00000000000E+00 0.  1.
      99926    2    1    2    0    0  0.71054273576E-14  0.00000000000E+00 -0.46853494483E+03  0.64514047053E+03  0.44348757839E+03 0.  0.
      99925    2    3    3    0    0 -0.62415012545E+02  0.64491520716E+02 -0.36818011693E+03  0.46136509237E+03  0.26314703099E+03 0.  0.
         25    1    4    4    0    0 -0.16311883627E+02  0.14217264102E+01 -0.21091511246E+03  0.24576572506E+03  0.12509000000E+03 0.  0.
         25    1    3    3    0    0  0.62415012545E+02 -0.64491520716E+02 -0.10035482790E+03  0.18377537816E+03  0.12509000000E+03 0.  0.
         25    1    4    4    0    0 -0.46103128918E+02  0.63069794306E+02 -0.15726500447E+03  0.21559936730E+03  0.12509000000E+03 0.  0.
<mgrwt>
<rscale>  2 0.44348758E+03</rscale>
<asrwt>0</asrwt>
<pdfrwt beam="1">  1       21 0.12985700E-01 0.44348758E+03</pdfrwt>
<pdfrwt beam="2">  1       21 0.81887898E-01 0.44348758E+03</pdfrwt>
<totfact> 0.61369213E+04</totfact>
</mgrwt>
</event>
<event>
 7    0  0.4748297E-002  0.4531082E+03  0.7546771E-02  0.1026799E+00
         21   -1    0    0  502  501  0.00000000000E+00  0.00000000000E+00  0.14695738864E+03  0.14695738864E+03  0.00000000000E+00 0. -1.
         21   -1    0    0  501  502 -0.00000000000E+00 -0.00000000000E+00 -0.34926279933E+03  0.34926279933E+03  0.00000000000E+00 0. -1.
      99926    2    1    2    0    0  0.00000000000E+00  0.00000000000E+00 -0.20230541069E+03  0.49622018797E+03  0.45310815018E+03 0.  0.
      99925    2    3    3    0    0  0.82556906832E+02 -0.13927059611E+02 -0.46805037603E+02  0.27980050313E+03  0.26284597040E+03 0.  0.
         25    1    4    4    0    0  0.30000913443E+02 -0.11290502712E+02 -0.62000093985E+02  0.14324472072E+03  0.12509000000E+03 0.  0.
         25    1    3    3    0    0 -0.82556906832E+02  0.13927059611E+02 -0.15550037309E+03  0.21641968484E+03  0.12509000000E+03 0.  0.
         25    1    4    4    0    0  0.52555993389E+02 -0.26365568984E+01  0.15195056382E+02  0.13655578242E+03  0.12509000000E+03 0.  0.
<mgrwt>
<rscale>  2 0.45310815E+03</rscale>
<asrwt>0</asrwt>
<pdfrwt beam="1">  1       21 0.21611381E-01 0.45310815E+03</pdfrwt>
<pdfrwt beam="2">  1       21 0.51362175E-01 0.45310815E+03</pdfrwt>
<totfact> 0.66530592E+04</totfact>
</mgrwt>
</event>
<event>
 7    0  0.4748297E-002  0.4551786E+03  0.7546771E-02  0.1026189E+00
         21   -1    0    0  502  501  0.00000000000E+00  0.00000000000E+00  0.84575905830E+02  0.84575905830E+02  0.00000000000E+00 0. -1.
         21   -1    0    0  501  502 -0.00000000000E+00 -0.00000000000E+00 -0.61243086887E+03  0.61243086887E+03  0.00000000000E+00 0. -1.
      99926    2    1    2    0    0  0.88817841970E-15  0.00000000000E+00 -0.52785496304E+03  0.69700677470E+03  0.45517862644E+03 0.  0.
      99925    2    3    3    0    0 -0.73089066388E+01 -0.85157041684E+02 -0.44713531752E+03  0.52534340896E+03  0.26220328620E+03 0.  0.
         25    1    4    4    0    0 -0.17909805182E+02 -0.68127961507E+02 -0.28922625891E+03  0.32289552057E+03  0.12509000000E+03 0.  0.
         25    1    3    3    0    0  0.73089066388E+01  0.85157041684E+02 -0.80719645516E+02  0.17166336574E+03  0.12509000000E+03 0.  0.
         25    1    4    4    0    0  0.10600898544E+02 -0.17029080177E+02 -0.15790905861E+03  0.20244788839E+03  0.12509000000E+03 0.  0.
<mgrwt>
<rscale>  2 0.45517863E+03</rscale>
<asrwt>0</asrwt>
<pdfrwt beam="1">  1       21 0.12437634E-01 0.45517863E+03</pdfrwt>
<pdfrwt beam="2">  1       21 0.90063360E-01 0.45517863E+03</pdfrwt>
<totfact> 0.52991248E+04</totfact>
</mgrwt>
</event>
<event>
 7    0  0.4748297E-002  0.4621934E+03  0.7546771E-02  0.1024147E+00
         21   -1    0    0  502  501  0.00000000000E+00  0.00000000000E+00  0.77913674930E+02  0.77913674930E+02  0.00000000000E+00 0.  1.
         21   -1    0    0  501  502 -0.00000000000E+00 -0.00000000000E+00 -0.68544685879E+03  0.68544685879E+03  0.00000000000E+00 0.  1.
      99926    2    1    2    0    0  0.71054273576E-14 -0.14210854715E-13 -0.60753318386E+03  0.76336053372E+03  0.46219339562E+03 0.  0.
      99925    2    3    3    0    0  0.38529841575E+02 -0.10473387057E+03 -0.30757242171E+03  0.41973617593E+03  0.26291430249E+03 0.  0.
         25    1    4    4    0    0  0.31535347687E+02 -0.35966559678E+02 -0.20069392548E+03  0.24127501195E+03  0.12509000000E+03 0.  0.
         25    1    4    4    0    0  0.69944938887E+01 -0.68767310893E+02 -0.10687849624E+03  0.17846116398E+03  0.12509000000E+03 0.  0.
         25    1    3    3    0    0 -0.38529841575E+02  0.10473387057E+03 -0.29996076215E+03  0.34362435779E+03  0.12509000000E+03 0.  0.
<mgrwt>
<rscale>  2 0.46219340E+03</rscale>
<asrwt>0</asrwt>
<pdfrwt beam="1">  1       21 0.11457893E-01 0.46219340E+03</pdfrwt>
<pdfrwt beam="2">  1       21 0.10080102E+00 0.46219340E+03</pdfrwt>
<totfact> 0.46883492E+04</totfact>
</mgrwt>
</event>
<event>
 7    0  0.4748297E-002  0.4534972E+03  0.7546771E-02  0.1026684E+00
         21   -1    0    0  502  501  0.00000000000E+00  0.00000000000E+00  0.24435599972E+03  0.24435599972E+03  0.00000000000E+00 0. -1.
         21   -1    0    0  501  502 -0.00000000000E+00 -0.00000000000E+00 -0.21040994385E+03  0.21040994385E+03  0.00000000000E+00 0. -1.
      99926    2    1    2    0    0 -0.14210854715E-13 -0.71054273576E-14  0.33946055870E+02  0.45476594358E+03  0.45349722020E+03 0.  0.
      99925    2    3    3    0    0  0.78572190767E+02  0.56155737361E+02 -0.34953927747E+02  0.28236590923E+03  0.26302409325E+03 0.  0.
         25    1    4    4    0    0  0.21598558212E+02  0.57703094791E+02 -0.39174255193E+02  0.14483879051E+03  0.12509000000E+03 0.  0.
         25    1    3    3    0    0 -0.78572190767E+02 -0.56155737361E+02  0.68899983617E+02  0.17240003435E+03  0.12509000000E+03 0.  0.
         25    1    4    4    0    0  0.56973632554E+02 -0.15473574300E+01  0.42203274458E+01  0.13752711873E+03  0.12509000000E+03 0.  0.
<mgrwt>
<rscale>  2 0.45349722E+03</rscale>
<asrwt>0</asrwt>
<pdfrwt beam="1">  1       21 0.35934706E-01 0.45349722E+03</pdfrwt>
<pdfrwt beam="2">  1       21 0.30942639E-01 0.45349722E+03</pdfrwt>
<totfact> 0.69391274E+04</totfact>
</mgrwt>
</event>
<event>
 7    0  0.4748297E-002  0.4525343E+03  0.7546771E-02  0.1026969E+00
         21   -1    0    0  502  501  0.00000000000E+00  0.00000000000E+00  0.12372154191E+04  0.12372154191E+04  0.00000000000E+00 0. -1.
         21   -1    0    0  501  502 -0.00000000000E+00 -0.00000000000E+00 -0.41380692612E+02  0.41380692612E+02  0.00000000000E+00 0. -1.
      99926    2    1    2    0    0  0.00000000000E+00 -0.14210854715E-13  0.11958347265E+04  0.12785961117E+04  0.45253433439E+03 0.  0.
      99925    2    3    3    0    0 -0.66024365037E+02 -0.74208789053E+02  0.89279540238E+03  0.93603735586E+03  0.26308960433E+03 0.  0.
         25    1    4    4    0    0 -0.11963239964E+02 -0.15339831356E+02  0.31520662928E+03  0.33967801928E+03  0.12509000000E+03 0.  0.
         25    1    3    3    0    0  0.66024365037E+02  0.74208789053E+02  0.30303932409E+03  0.34255875583E+03  0.12509000000E+03 0.  0.
         25    1    4    4    0    0 -0.54061125073E+02 -0.58868957697E+02  0.57758877310E+03  0.59635933658E+03  0.12509000000E+03 0.  0.
<mgrwt>
<rscale>  2 0.45253433E+03</rscale>
<asrwt>0</asrwt>
<pdfrwt beam="1">  1       21 0.18194342E+00 0.45253433E+03</pdfrwt>
<pdfrwt beam="2">  1       21 0.60853968E-02 0.45253433E+03</pdfrwt>
<totfact> 0.30320206E+04</totfact>
</mgrwt>
</event>
<event>
 7    0  0.4748297E-002  0.4497204E+03  0.7546771E-02  0.1027805E+00
         21   -1    0    0  502  501  0.00000000000E+00  0.00000000000E+00  0.30157955169E+03  0.30157955169E+03  0.00000000000E+00 0.  1.
         21   -1    0    0  501  502 -0.00000000000E+00 -0.00000000000E+00 -0.16765763892E+03  0.16765763892E+03  0.00000000000E+00 0.  1.
      99926    2    1    2    0    0  0.00000000000E+00 -0.24424906542E-14  0.13392191278E+03  0.46923719061E+03  0.44972042685E+03 0.  0.
      99925    2    3    3    0    0 -0.72994345795E+02  0.10746360295E+01  0.16806381669E+03  0.32043360509E+03  0.26287434152E+03 0.  0.
         25    1    4    4    0    0  0.18505546545E+01  0.16660967687E+02  0.76232721697E+02  0.14744472983E+03  0.12509000000E+03 0.  0.
         25    1    3    3    0    0  0.72994345795E+02 -0.10746360295E+01 -0.34141903910E+02  0.14880358552E+03  0.12509000000E+03 0.  0.
         25    1    4    4    0    0 -0.74844900450E+02 -0.15586331658E+02  0.91831094989E+02  0.17298887526E+03  0.12509000000E+03 0.  0.
<mgrwt>
<rscale>  2 0.44972043E+03</rscale>
<asrwt>0</asrwt>
<pdfrwt beam="1">  1       21 0.44349934E-01 0.44972043E+03</pdfrwt>
<pdfrwt beam="2">  1       21 0.24655535E-01 0.44972043E+03</pdfrwt>
<totfact> 0.70395430E+04</totfact>
</mgrwt>
</event>
<event>
 7    0  0.4748297E-002  0.4544635E+03  0.7546771E-02  0.1026399E+00
         21   -1    0    0  502  501  0.00000000000E+00  0.00000000000E+00  0.38304823413E+02  0.38304823413E+02  0.00000000000E+00 0.  1.
         21   -1    0    0  501  502 -0.00000000000E+00 -0.00000000000E+00 -0.13479833579E+04  0.13479833579E+04  0.00000000000E+00 0.  1.
      99926    2    1    2    0    0  0.14210854715E-13 -0.71054273576E-14 -0.13096785345E+04  0.13862881813E+04  0.45446348363E+03 0.  0.
      99925    2    3    3    0    0 -0.99321881323E+02  0.52089983895E+02 -0.82969579020E+03  0.87775190390E+03  0.26358129295E+03 0.  0.
         25    1    4    4    0    0 -0.40338547262E+02  0.36136608868E+00 -0.49064160489E+03  0.50794096265E+03  0.12509000000E+03 0.  0.
         25    1    3    3    0    0  0.99321881323E+02 -0.52089983895E+02 -0.47998274426E+03  0.50853627738E+03  0.12509000000E+03 0.  0.
         25    1    4    4    0    0 -0.58983334060E+02  0.51728617806E+02 -0.33905418531E+03  0.36981094125E+03  0.12509000000E+03 0.  0.
<mgrwt>
<rscale>  2 0.45446348E+03</rscale>
<asrwt>0</asrwt>
<pdfrwt beam="1">  1       21 0.56330619E-02 0.45446348E+03</pdfrwt>
<pdfrwt beam="2">  1       21 0.19823286E+00 0.45446348E+03</pdfrwt>
<totfact> 0.26811316E+04</totfact>
</mgrwt>
</event>
<event>
 7    0  0.4748297E-002  0.4542637E+03  0.7546771E-02  0.1026458E+00
         21   -1    0    0  502  501  0.00000000000E+00  0.00000000000E+00  0.23995387028E+02  0.23995387028E+02  0.00000000000E+00 0. -1.
         21   -1    0    0  501  502 -0.00000000000E+00 -0.00000000000E+00 -0.21499497429E+04  0.21499497429E+04  0.00000000000E+00 0. -1.
      99926    2    1    2    0    0  0.00000000000E+00 -0.17763568394E-14 -0.21259543558E+04  0.21739451299E+04  0.45426369509E+03 0.  0.
      99925    2    3    3    0    0 -0.78410579356E+02 -0.12322067721E+02 -0.17202245682E+04  0.17420143241E+04  0.26294731043E+03 0.  0.
         25    1    3    3    0    0  0.78410579356E+02  0.12322067721E+02 -0.40572978767E+03  0.43193080582E+03  0.12509000000E+03 0.  0.
         25    1    4    4    0    0 -0.23309742861E+02 -0.36086970229E+02 -0.69831150772E+03  0.71072644769E+03  0.12509000000E+03 0.  0.
         25    1    4    4    0    0 -0.55100836496E+02  0.23764902509E+02 -0.10219130604E+04  0.10312878764E+04  0.12509000000E+03 0.  0.
<mgrwt>
<rscale>  2 0.45426370E+03</rscale>
<asrwt>0</asrwt>
<pdfrwt beam="1">  1       21 0.35287330E-02 0.45426370E+03</pdfrwt>
<pdfrwt beam="2">  1       21 0.31616911E+00 0.45426370E+03</pdfrwt>
<totfact> 0.11135673E+04</totfact>
</mgrwt>
</event>
<event>
 7    0  0.4748297E-002  0.4442009E+03  0.7546771E-02  0.1029466E+00
         21   -1    0    0  502  501  0.00000000000E+00  0.00000000000E+00  0.92389887975E+03  0.92389887975E+03  0.00000000000E+00 0. -1.
         21   -1    0    0  501  502 -0.00000000000E+00 -0.00000000000E+00 -0.53391784204E+02  0.53391784204E+02  0.00000000000E+00 0. -1.
      99926    2    1    2    0    0  0.00000000000E+00  0.00000000000E+00  0.87050709554E+03  0.97729066395E+03  0.44420089876E+03 0.  0.
      99925    2    3    3    0    0  0.61258684418E+02  0.42065445137E+02  0.39732696765E+03  0.48224615118E+03  0.26300285743E+03 0.  0.
         25    1    4    4    0    0  0.30757725619E+02 -0.12207425340E+02  0.14928488098E+03  0.19755642918E+03  0.12509000000E+03 0.  0.
         25    1    3    3    0    0 -0.61258684418E+02 -0.42065445137E+02  0.47318012789E+03  0.49504451277E+03  0.12509000000E+03 0.  0.
         25    1    4    4    0    0  0.30500958799E+02  0.54272870477E+02  0.24804208666E+03  0.28468972200E+03  0.12509000000E+03 0.  0.
<mgrwt>
<rscale>  2 0.44420090E+03</rscale>
<asrwt>0</asrwt>
<pdfrwt beam="1">  1       21 0.13586747E+00 0.44420090E+03</pdfrwt>
<pdfrwt beam="2">  1       21 0.78517335E-02 0.44420090E+03</pdfrwt>
<totfact> 0.43622703E+04</totfact>
</mgrwt>
</event>
<event>
 7    0  0.4748297E-002  0.4528978E+03  0.7546771E-02  0.1026861E+00
         21   -1    0    0  502  501  0.00000000000E+00  0.00000000000E+00  0.99884247329E+03  0.99884247329E+03  0.00000000000E+00 0.  1.
         21   -1    0    0  501  502 -0.00000000000E+00 -0.00000000000E+00 -0.51338519005E+02  0.51338519005E+02  0.00000000000E+00 0.  1.
      99926    2    1    2    0    0  0.00000000000E+00  0.00000000000E+00  0.94750395428E+03  0.10501809923E+04  0.45289775136E+03 0.  0.
      99925    2    3    3    0    0  0.27822630078E+02 -0.19743147023E+02  0.35060832674E+03  0.43936531724E+03  0.26258673352E+03 0.  0.
         25    1    4    4    0    0  0.61497415099E+01 -0.51779323851E+01  0.23822811349E+03  0.26919281651E+03  0.12509000000E+03 0.  0.
         25    1    3    3    0    0 -0.27822630078E+02  0.19743147023E+02  0.59689562755E+03  0.61081567505E+03  0.12509000000E+03 0.  0.
         25    1    4    4    0    0  0.21672888568E+02 -0.14565214638E+02  0.11238021324E+03  0.17017250073E+03  0.12509000000E+03 0.  0.
<mgrwt>
<rscale>  2 0.45289775E+03</rscale>
<asrwt>0</asrwt>
<pdfrwt beam="1">  1       21 0.14688859E+00 0.45289775E+03</pdfrwt>
<pdfrwt beam="2">  1       21 0.75497828E-02 0.45289775E+03</pdfrwt>
<totfact> 0.37888635E+04</totfact>
</mgrwt>
</event>
<event>
 7    0  0.4748297E-002  0.4457221E+03  0.7546771E-02  0.1029005E+00
         21   -1    0    0  502  501  0.00000000000E+00  0.00000000000E+00  0.12674691047E+03  0.12674691047E+03  0.00000000000E+00 0.  1.
         21   -1    0    0  501  502 -0.00000000000E+00 -0.00000000000E+00 -0.39186009017E+03  0.39186009017E+03  0.00000000000E+00 0.  1.
      99926    2    1    2    0    0  0.00000000000E+00  0.00000000000E+00 -0.26511317970E+03  0.51860700064E+03  0.44572213662E+03 0.  0.
      99925    2    3    3    0    0  0.32258142802E+02 -0.89553507219E+02 -0.11820643128E+03  0.30345700817E+03  0.26277933134E+03 0.  0.
         25    1    4    4    0    0  0.44333854763E+02 -0.15508177660E+02 -0.55392349898E+02  0.14464375126E+03  0.12509000000E+03 0.  0.
         25    1    4    4    0    0 -0.12075711960E+02 -0.74045329559E+02 -0.62814081382E+02  0.15881325690E+03  0.12509000000E+03 0.  0.
         25    1    3    3    0    0 -0.32258142802E+02  0.89553507219E+02 -0.14690674842E+03  0.21514999248E+03  0.12509000000E+03 0.  0.
<mgrwt>
<rscale>  2 0.44572214E+03</rscale>
<asrwt>0</asrwt>
<pdfrwt beam="1">  1       21 0.18639252E-01 0.44572214E+03</pdfrwt>
<pdfrwt beam="2">  1       21 0.57626483E-01 0.44572214E+03</pdfrwt>
<totfact> 0.68914737E+04</totfact>
</mgrwt>
</event>
<event>
 7    0  0.4748297E-002  0.4439765E+03  0.7546771E-02  0.1029534E+00
         21   -1    0    0  502  501  0.00000000000E+00  0.00000000000E+00  0.22686666516E+03  0.22686666516E+03  0.00000000000E+00 0. -1.
         21   -1    0    0  501  502 -0.00000000000E+00 -0.00000000000E+00 -0.21721473647E+03  0.21721473647E+03  0.00000000000E+00 0. -1.
      99926    2    1    2    0    0  0.00000000000E+00  0.00000000000E+00  0.96519286821E+01  0.44408140163E+03  0.44397649887E+03 0.  0.
      99925    2    3    3    0    0  0.37067480394E+02 -0.43983049392E+02  0.91074371881E+02  0.28412631702E+03  0.26291579654E+03 0.  0.
         25    1    4    4    0    0  0.33057396381E+02 -0.59186390146E+02  0.59065314839E+02  0.15405206831E+03  0.12509000000E+03 0.  0.
         25    1    4    4    0    0  0.40100840133E+01  0.15203340754E+02  0.32009057042E+02  0.13007424871E+03  0.12509000000E+03 0.  0.
         25    1    3    3    0    0 -0.37067480394E+02  0.43983049392E+02 -0.81422443199E+02  0.15995508461E+03  0.12509000000E+03 0.  0.
<mgrwt>
<rscale>  2 0.44397650E+03</rscale>
<asrwt>0</asrwt>
<pdfrwt beam="1">  1       21 0.33362745E-01 0.44397650E+03</pdfrwt>
<pdfrwt beam="2">  1       21 0.31943343E-01 0.44397650E+03</pdfrwt>
<totfact> 0.75804444E+04</totfact>
</mgrwt>
</event>
<event>
 7    0  0.4748297E-002  0.4643344E+03  0.7546771E-02  0.1023532E+00
         21   -1    0    0  502  501  0.00000000000E+00  0.00000000000E+00  0.22872105468E+03  0.22872105468E+03  0.00000000000E+00 0. -1.
         21   -1    0    0  501  502 -0.00000000000E+00 -0.00000000000E+00 -0.23566523864E+03  0.23566523864E+03  0.00000000000E+00 0. -1.
      99926    2    1    2    0    0  0.00000000000E+00  0.00000000000E+00 -0.69441839615E+01  0.46438629332E+03  0.46433437061E+03 0.  0.
      99925    2    3    3    0    0  0.65802781312E+02 -0.84093659207E+02 -0.62668160067E+02  0.29073601500E+03  0.26305585450E+03 0.  0.
         25    1    4    4    0    0  0.73911006607E+00 -0.58035291089E+02 -0.50417369721E+02  0.14682663439E+03  0.12509000000E+03 0.  0.
         25    1    4    4    0    0  0.65063671245E+02 -0.26058368118E+02 -0.12250790346E+02  0.14390938062E+03  0.12509000000E+03 0.  0.
         25    1    3    3    0    0 -0.65802781312E+02  0.84093659207E+02  0.55723976106E+02  0.17365027832E+03  0.12509000000E+03 0.  0.
<mgrwt>
<rscale>  2 0.46433437E+03</rscale>
<asrwt>0</asrwt>
<pdfrwt beam="1">  1       21 0.33635449E-01 0.46433437E+03</pdfrwt>
<pdfrwt beam="2">  1       21 0.34656653E-01 0.46433437E+03</pdfrwt>
<totfact> 0.63036262E+04</totfact>
</mgrwt>
</event>
<event>
 7    0  0.4748297E-002  0.4531312E+03  0.7546771E-02  0.1026792E+00
         21   -1    0    0  502  501  0.00000000000E+00  0.00000000000E+00  0.12254006832E+03  0.12254006832E+03  0.00000000000E+00 0.  1.
         21   -1    0    0  501  502 -0.00000000000E+00 -0.00000000000E+00 -0.41889947193E+03  0.41889947193E+03  0.00000000000E+00 0.  1.
      99926    2    1    2    0    0  0.00000000000E+00 -0.35527136788E-14 -0.29635940361E+03  0.54143954025E+03  0.45313119473E+03 0.  0.
      99925    2    3    3    0    0 -0.56021154420E+02 -0.28976798639E+02 -0.77333618063E+02  0.28144371829E+03  0.26315784898E+03 0.  0.
         25    1    4    4    0    0  0.90936232479E+01 -0.82648049076E+01 -0.17684349369E+02  0.12693008035E+03  0.12509000000E+03 0.  0.
         25    1    3    3    0    0  0.56021154420E+02  0.28976798639E+02 -0.21902578555E+03  0.25999582196E+03  0.12509000000E+03 0.  0.
         25    1    4    4    0    0 -0.65114777668E+02 -0.20711993732E+02 -0.59649268695E+02  0.15451363794E+03  0.12509000000E+03 0.  0.
<mgrwt>
<rscale>  2 0.45313119E+03</rscale>
<asrwt>0</asrwt>
<pdfrwt beam="1">  1       21 0.18020598E-01 0.45313119E+03</pdfrwt>
<pdfrwt beam="2">  1       21 0.61602863E-01 0.45313119E+03</pdfrwt>
<totfact> 0.63367721E+04</totfact>
</mgrwt>
</event>
<event>
 7    0  0.4748297E-002  0.4510990E+03  0.7546771E-02  0.1027395E+00
         21   -1    0    0  502  501  0.00000000000E+00  0.00000000000E+00  0.19898934349E+04  0.19898934349E+04  0.00000000000E+00 0.  1.
         21   -1    0    0  501  502 -0.00000000000E+00 -0.00000000000E+00 -0.25565480985E+02  0.25565480985E+02  0.00000000000E+00 0.  1.
      99926    2    1    2    0    0  0.00000000000E+00  0.00000000000E+00  0.19643279539E+04  0.20154589159E+04  0.45109902581E+03 0.  0.
      99925    2    3    3    0    0 -0.87449158100E+02 -0.43656021775E+02  0.14598929245E+04  0.14866343604E+04  0.26313716387E+03 0.  0.
         25    1    4    4    0    0 -0.29869266147E+02 -0.14617828787E+02  0.50010730331E+03  0.51658559494E+03  0.12509000000E+03 0.  0.
         25    1    4    4    0    0 -0.57579891952E+02 -0.29038192988E+02  0.95978562118E+03  0.97004876544E+03  0.12509000000E+03 0.  0.
         25    1    3    3    0    0  0.87449158100E+02  0.43656021775E+02  0.50443502941E+03  0.52882455548E+03  0.12509000000E+03 0.  0.
<mgrwt>
<rscale>  2 0.45109903E+03</rscale>
<asrwt>0</asrwt>
<pdfrwt beam="1">  1       21 0.29263128E+00 0.45109903E+03</pdfrwt>
<pdfrwt beam="2">  1       21 0.37596309E-02 0.45109903E+03</pdfrwt>
<totfact> 0.13874296E+04</totfact>
</mgrwt>
</event>
<event>
 7    0  0.4748297E-002  0.4586152E+03  0.7546771E-02  0.1025184E+00
         21   -1    0    0  502  501  0.00000000000E+00  0.00000000000E+00  0.10491841104E+03  0.10491841104E+03  0.00000000000E+00 0.  1.
         21   -1    0    0  501  502 -0.00000000000E+00 -0.00000000000E+00 -0.50117014303E+03  0.50117014303E+03  0.00000000000E+00 0.  1.
      99926    2    1    2    0    0  0.00000000000E+00  0.00000000000E+00 -0.39625173199E+03  0.60608855407E+03  0.45861519847E+03 0.  0.
      99925    2    3    3    0    0 -0.45954036759E+02 -0.14406792272E+02 -0.10828168828E+03  0.28845105104E+03  0.26298242464E+03 0.  0.
         25    1    4    4    0    0 -0.43214505345E+02  0.81706775924E+01 -0.89392321611E+02  0.15991481704E+03  0.12509000000E+03 0.  0.
         25    1    3    3    0    0  0.45954036759E+02  0.14406792272E+02 -0.28797004372E+03  0.31763750304E+03  0.12509000000E+03 0.  0.
         25    1    4    4    0    0 -0.27395314139E+01 -0.22577469865E+02 -0.18889366666E+02  0.12853623400E+03  0.12509000000E+03 0.  0.
<mgrwt>
<rscale>  2 0.45861520E+03</rscale>
<asrwt>0</asrwt>
<pdfrwt beam="1">  1       21 0.15429178E-01 0.45861520E+03</pdfrwt>
<pdfrwt beam="2">  1       21 0.73701492E-01 0.45861520E+03</pdfrwt>
<totfact> 0.56669159E+04</totfact>
</mgrwt>
</event>
<event>
 7    0  0.4748297E-002  0.4554488E+03  0.7546771E-02  0.1026109E+00
         21   -1    0    0  502  501  0.00000000000E+00  0.00000000000E+00  0.17445934708E+04  0.17445934708E+04  0.00000000000E+00 0. -1.
         21   -1    0    0  501  502 -0.00000000000E+00 -0.00000000000E+00 -0.29725212797E+02  0.29725212797E+02  0.00000000000E+00 0. -1.
      99926    2    1    2    0    0  0.00000000000E+00  0.00000000000E+00  0.17148682580E+04  0.17743186836E+04  0.45544884307E+03 0.  0.
      99925    2    3    3    0    0  0.79924830343E+02 -0.37013589096E+02  0.79902725388E+03  0.84578745783E+03  0.26297126669E+03 0.  0.
         25    1    3    3    0    0 -0.79924830343E+02  0.37013589096E+02  0.91584100416E+03  0.92853122580E+03  0.12509000000E+03 0.  0.
         25    1    4    4    0    0  0.72969625042E+02 -0.76145862519E+01  0.35468834103E+03  0.38318908578E+03  0.12509000000E+03 0.  0.
         25    1    4    4    0    0  0.69552053014E+01 -0.29399002845E+02  0.44433891285E+03  0.46259837205E+03  0.12509000000E+03 0.  0.
<mgrwt>
<rscale>  2 0.45544884E+03</rscale>
<asrwt>0</asrwt>
<pdfrwt beam="1">  1       21 0.25655780E+00 0.45544884E+03</pdfrwt>
<pdfrwt beam="2">  1       21 0.43713560E-02 0.45544884E+03</pdfrwt>
<totfact> 0.17696426E+04</totfact>
</mgrwt>
</event>
<event>
 7    0  0.4748297E-002  0.4559101E+03  0.7546771E-02  0.1025974E+00
         21   -1    0    0  502  501  0.00000000000E+00  0.00000000000E+00  0.16078986657E+03  0.16078986657E+03  0.00000000000E+00 0. -1.
         21   -1    0    0  501  502 -0.00000000000E+00 -0.00000000000E+00 -0.32317645763E+03  0.32317645763E+03  0.00000000000E+00 0. -1.
      99926    2    1    2    0    0  0.00000000000E+00 -0.71054273576E-14 -0.16238659106E+03  0.48396632420E+03  0.45591007666E+03 0.  0.
      99925    2    3    3    0    0 -0.89729022902E+02  0.63693410963E+02 -0.13410707195E+03  0.31498293019E+03  0.26290947380E+03 0.  0.
         25    1    3    3    0    0  0.89729022902E+02 -0.63693410963E+02 -0.28279519114E+02  0.16898339401E+03  0.12509000000E+03 0.  0.
         25    1    4    4    0    0 -0.23274278285E+02 -0.15732036006E+01 -0.42750665549E+02  0.13423596576E+03  0.12509000000E+03 0.  0.
         25    1    4    4    0    0 -0.66454744617E+02  0.65266614563E+02 -0.91356406398E+02  0.18074696442E+03  0.12509000000E+03 0.  0.
<mgrwt>
<rscale>  2 0.45591008E+03</rscale>
<asrwt>0</asrwt>
<pdfrwt beam="1">  1       21 0.23645569E-01 0.45591008E+03</pdfrwt>
<pdfrwt beam="2">  1       21 0.47525949E-01 0.45591008E+03</pdfrwt>
<totfact> 0.65934875E+04</totfact>
</mgrwt>
</event>
<event>
 7    0  0.4748297E-002  0.4205331E+03  0.7546771E-02  0.1036893E+00
         21   -1    0    0  502  501  0.00000000000E+00  0.00000000000E+00  0.62732986795E+03  0.62732986795E+03  0.00000000000E+00 0.  1.
         21   -1    0    0  501  502 -0.00000000000E+00 -0.00000000000E+00 -0.70476519577E+02  0.70476519577E+02  0.00000000000E+00 0.  1.
      99926    2    1    2    0    0 -0.88817841970E-15  0.00000000000E+00  0.55685334837E+03  0.69780638753E+03  0.42053311746E+03 0.  0.
      99925    2    3    3    0    0  0.56866999489E+01  0.72194894246E+02  0.40359242232E+03  0.48713873252E+03  0.26300733841E+03 0.  0.
         25    1    4    4    0    0 -0.25581726770E+02  0.63089988878E+01  0.18083989861E+03  0.22146061781E+03  0.12509000000E+03 0.  0.
         25    1    4    4    0    0  0.31268426719E+02  0.65885895359E+02  0.22275252371E+03  0.26567811471E+03  0.12509000000E+03 0.  0.
         25    1    3    3    0    0 -0.56866999489E+01 -0.72194894246E+02  0.15326092605E+03  0.21066765501E+03  0.12509000000E+03 0.  0.
<mgrwt>
<rscale>  2 0.42053312E+03</rscale>
<asrwt>0</asrwt>
<pdfrwt beam="1">  1       21 0.92254390E-01 0.42053312E+03</pdfrwt>
<pdfrwt beam="2">  1       21 0.10364194E-01 0.42053312E+03</pdfrwt>
<totfact> 0.70217662E+04</totfact>
</mgrwt>
</event>
<event>
 7    0  0.4748297E-002  0.4545454E+03  0.7546771E-02  0.1026375E+00
         21   -1    0    0  502  501  0.00000000000E+00  0.00000000000E+00  0.36198482920E+03  0.36198482920E+03  0.00000000000E+00 0. -1.
         21   -1    0    0  501  502 -0.00000000000E+00 -0.00000000000E+00 -0.14269347466E+03  0.14269347466E+03  0.00000000000E+00 0. -1.
      99926    2    1    2    0    0  0.14210854715E-13 -0.71054273576E-14  0.21929135454E+03  0.50467830386E+03  0.45454536871E+03 0.  0.
      99925    2    3    3    0    0 -0.92871927146E+02  0.62308439222E+02  0.12175939242E+03  0.31059706267E+03  0.26294039105E+03 0.  0.
         25    1    4    4    0    0 -0.68760433349E+02  0.29483755599E+02  0.10120739767E+03  0.17744783595E+03  0.12509000000E+03 0.  0.
         25    1    4    4    0    0 -0.24111493797E+02  0.32824683623E+02  0.20551994751E+02  0.13314922672E+03  0.12509000000E+03 0.  0.
         25    1    3    3    0    0  0.92871927146E+02 -0.62308439222E+02  0.97531962117E+02  0.19408124120E+03  0.12509000000E+03 0.  0.
<mgrwt>
<rscale>  2 0.45454537E+03</rscale>
<asrwt>0</asrwt>
<pdfrwt beam="1">  1       21 0.53233063E-01 0.45454537E+03</pdfrwt>
<pdfrwt beam="2">  1       21 0.20984335E-01 0.45454537E+03</pdfrwt>
<totfact> 0.65178112E+04</totfact>
</mgrwt>
</event>
<event>
 7    0  0.4748297E-002  0.4551947E+03  0.7546771E-02  0.1026184E+00
         21   -1    0    0  502  501  0.00000000000E+00  0.00000000000E+00  0.81451147644E+03  0.81451147644E+03  0.00000000000E+00 0. -1.
         21   -1    0    0  501  502 -0.00000000000E+00 -0.00000000000E+00 -0.63597077796E+02  0.63597077796E+02  0.00000000000E+00 0. -1.
      99926    2    1    2    0    0  0.00000000000E+00  0.00000000000E+00  0.75091439864E+03  0.87810855424E+03  0.45519468245E+03 0.  0.
      99925    2    3    3    0    0  0.88182246141E+02  0.45495623882E+02  0.57852960120E+03  0.64314049935E+03  0.26284452080E+03 0.  0.
         25    1    3    3    0    0 -0.88182246141E+02 -0.45495623882E+02  0.17238479744E+03  0.23496805488E+03  0.12509000000E+03 0.  0.
         25    1    4    4    0    0  0.29318395690E+02  0.25825952889E+02  0.19467217402E+03  0.23467277559E+03  0.12509000000E+03 0.  0.
         25    1    4    4    0    0  0.58863850451E+02  0.19669670993E+02  0.38385742719E+03  0.40846772376E+03  0.12509000000E+03 0.  0.
<mgrwt>
<rscale>  2 0.45519468E+03</rscale>
<asrwt>0</asrwt>
<pdfrwt beam="1">  1       21 0.11978109E+00 0.45519468E+03</pdfrwt>
<pdfrwt beam="2">  1       21 0.93525119E-02 0.45519468E+03</pdfrwt>
<totfact> 0.44126446E+04</totfact>
</mgrwt>
</event>
<event>
 7    0  0.4748297E-002  0.4547035E+03  0.7546771E-02  0.1026329E+00
         21   -1    0    0  502  501  0.00000000000E+00  0.00000000000E+00  0.46459227482E+03  0.46459227482E+03  0.00000000000E+00 0.  1.
         21   -1    0    0  501  502 -0.00000000000E+00 -0.00000000000E+00 -0.11125630949E+03  0.11125630949E+03  0.00000000000E+00 0.  1.
      99926    2    1    2    0    0  0.00000000000E+00  0.29976021665E-14  0.35333596533E+03  0.57584858431E+03  0.45470351621E+03 0.  0.
      99925    2    3    3    0    0 -0.11238660369E+03 -0.69290372627E+00  0.20980114696E+03  0.35475814808E+03  0.26306956031E+03 0.  0.
         25    1    3    3    0    0  0.11238660369E+03  0.69290372627E+00  0.14353481837E+03  0.22109043622E+03  0.12509000000E+03 0.  0.
         25    1    4    4    0    0 -0.61541308380E+02 -0.21987755261E+02  0.14874505725E+03  0.20504485894E+03  0.12509000000E+03 0.  0.
         25    1    4    4    0    0 -0.50845295312E+02  0.21294851535E+02  0.61056089710E+02  0.14971328915E+03  0.12509000000E+03 0.  0.
<mgrwt>
<rscale>  2 0.45470352E+03</rscale>
<asrwt>0</asrwt>
<pdfrwt beam="1">  1       21 0.68322393E-01 0.45470352E+03</pdfrwt>
<pdfrwt beam="2">  1       21 0.16361222E-01 0.45470352E+03</pdfrwt>
<totfact> 0.60331337E+04</totfact>
</mgrwt>
</event>
<event>
 7    0  0.4748297E-002  0.4555021E+03  0.7546771E-02  0.1026094E+00
         21   -1    0    0  502  501  0.00000000000E+00  0.00000000000E+00  0.25405510651E+03  0.25405510651E+03  0.00000000000E+00 0.  1.
         21   -1    0    0  501  502 -0.00000000000E+00 -0.00000000000E+00 -0.20417046582E+03  0.20417046582E+03  0.00000000000E+00 0.  1.
      99926    2    1    2    0    0  0.71054273576E-14  0.00000000000E+00  0.49884640690E+02  0.45822557233E+03  0.45550213804E+03 0.  0.
      99925    2    3    3    0    0 -0.45037062639E+02  0.86212768469E+02 -0.27377008116E+02  0.28193646621E+03  0.26320655757E+03 0.  0.
         25    1    3    3    0    0  0.45037062639E+02 -0.86212768469E+02  0.77261648806E+02  0.17628910611E+03  0.12509000000E+03 0.  0.
         25    1    4    4    0    0 -0.44103923450E+01  0.38311444817E+01 -0.17317751211E+02  0.12641812305E+03  0.12509000000E+03 0.  0.
         25    1    4    4    0    0 -0.40626670294E+02  0.82381623988E+02 -0.10059256904E+02  0.15551834316E+03  0.12509000000E+03 0.  0.
<mgrwt>
<rscale>  2 0.45550214E+03</rscale>
<asrwt>0</asrwt>
<pdfrwt beam="1">  1       21 0.37361045E-01 0.45550214E+03</pdfrwt>
<pdfrwt beam="2">  1       21 0.30025068E-01 0.45550214E+03</pdfrwt>
<totfact> 0.68037096E+04</totfact>
</mgrwt>
</event>
<event>
 7    0  0.4748297E-002  0.4568658E+03  0.7546771E-02  0.1025694E+00
         21   -1    0    0  502  501  0.00000000000E+00  0.00000000000E+00  0.46089791994E+03  0.46089791994E+03  0.00000000000E+00 0. -1.
         21   -1    0    0  501  502 -0.00000000000E+00 -0.00000000000E+00 -0.11321723272E+03  0.11321723272E+03  0.00000000000E+00 0. -1.
      99926    2    1    2    0    0  0.71054273576E-14  0.00000000000E+00  0.34768068722E+03  0.57411515266E+03  0.45686578800E+03 0.  0.
      99925    2    3    3    0    0  0.60142269849E+02  0.39719705404E+02  0.10587984268E+03  0.29249501108E+03  0.26296015440E+03 0.  0.
         25    1    4    4    0    0  0.24661948080E+02 -0.75339482314E+01  0.82870704449E+02  0.15224990580E+03  0.12509000000E+03 0.  0.
         25    1    4    4    0    0  0.35480321769E+02  0.47253653636E+02  0.23009138230E+02  0.14024510529E+03  0.12509000000E+03 0.  0.
         25    1    3    3    0    0 -0.60142269849E+02 -0.39719705404E+02  0.24180084454E+03  0.28162014157E+03  0.12509000000E+03 0.  0.
<mgrwt>
<rscale>  2 0.45686579E+03</rscale>
<asrwt>0</asrwt>
<pdfrwt beam="1">  1       21 0.67779105E-01 0.45686579E+03</pdfrwt>
<pdfrwt beam="2">  1       21 0.16649593E-01 0.45686579E+03</pdfrwt>
<totfact> 0.59419063E+04</totfact>
</mgrwt>
</event>
<event>
 7    0  0.4748297E-002  0.4664324E+03  0.7546771E-02  0.1022932E+00
         21   -1    0    0  502  501  0.00000000000E+00  0.00000000000E+00  0.13950880942E+04  0.13950880942E+04  0.00000000000E+00 0. -1.
         21   -1    0    0  501  502 -0.00000000000E+00 -0.00000000000E+00 -0.38986643932E+02  0.38986643932E+02  0.00000000000E+00 0. -1.
      99926    2    1    2    0    0  0.00000000000E+00  0.35527136788E-14  0.13561014502E+04  0.14340747381E+04  0.46643242932E+03 0.  0.
      99925    2    3    3    0    0  0.29216581825E+02 -0.23133309411E+02  0.12070573828E+04  0.12359575990E+04  0.26308725277E+03 0.  0.
         25    1    4    4    0    0  0.42694227072E+02 -0.34335201826E+02  0.53652294441E+03  0.55362991347E+03  0.12509000000E+03 0.  0.
         25    1    4    4    0    0 -0.13477645246E+02  0.11201892415E+02  0.67053443837E+03  0.68232768554E+03  0.12509000000E+03 0.  0.
         25    1    3    3    0    0 -0.29216581825E+02  0.23133309411E+02  0.14904406746E+03  0.19811713910E+03  0.12509000000E+03 0.  0.
<mgrwt>
<rscale>  2 0.46643243E+03</rscale>
<asrwt>0</asrwt>
<pdfrwt beam="1">  1       21 0.20515998E+00 0.46643243E+03</pdfrwt>
<pdfrwt beam="2">  1       21 0.57333309E-02 0.46643243E+03</pdfrwt>
<totfact> 0.23298624E+04</totfact>
</mgrwt>
</event>
<event>
 7    0  0.4748297E-002  0.4903851E+03  0.7546771E-02  0.1016319E+00
         21   -1    0    0  502  501  0.00000000000E+00  0.00000000000E+00  0.71164028501E+02  0.71164028501E+02  0.00000000000E+00 0. -1.
         21   -1    0    0  501  502 -0.00000000000E+00 -0.00000000000E+00 -0.84480021511E+03  0.84480021511E+03  0.00000000000E+00 0. -1.
      99926    2    1    2    0    0  0.00000000000E+00 -0.14210854715E-13 -0.77363618661E+03  0.91596424361E+03  0.49038510004E+03 0.  0.
      99925    2    3    3    0    0  0.25197921392E+02  0.10337131172E+03 -0.65377920546E+03  0.71265716710E+03  0.26293045657E+03 0.  0.
         25    1    4    4    0    0 -0.26695340266E+02  0.57072268637E+02 -0.34360538201E+03  0.37105532159E+03  0.12509000000E+03 0.  0.
         25    1    3    3    0    0 -0.25197921392E+02 -0.10337131172E+03 -0.11985698115E+03  0.20330707651E+03  0.12509000000E+03 0.  0.
         25    1    4    4    0    0  0.51893261658E+02  0.46299043086E+02 -0.31017382346E+03  0.34160184551E+03  0.12509000000E+03 0.  0.
<mgrwt>
<rscale>  2 0.49038510E+03</rscale>
<asrwt>0</asrwt>
<pdfrwt beam="1">  1       21 0.10465298E-01 0.49038510E+03</pdfrwt>
<pdfrwt beam="2">  1       21 0.12423533E+00 0.49038510E+03</pdfrwt>
<totfact> 0.32552342E+04</totfact>
</mgrwt>
</event>
<event>
 7    0  0.4748297E-002  0.4530048E+03  0.7546771E-02  0.1026830E+00
         21   -1    0    0  502  501  0.00000000000E+00  0.00000000000E+00  0.14283224313E+03  0.14283224313E+03  0.00000000000E+00 0. -1.
         21   -1    0    0  501  502 -0.00000000000E+00 -0.00000000000E+00 -0.35918594240E+03  0.35918594240E+03  0.00000000000E+00 0. -1.
      99926    2    1    2    0    0  0.00000000000E+00  0.17763568394E-14 -0.21635369928E+03  0.50201818553E+03  0.45300478520E+03 0.  0.
      99925    2    3    3    0    0 -0.99578509442E+02 -0.12598150542E+02 -0.82466789161E+02  0.29309761273E+03  0.26273721916E+03 0.  0.
         25    1    4    4    0    0 -0.11793478750E+02 -0.12426910231E+02 -0.55498177070E+02  0.13791689526E+03  0.12509000000E+03 0.  0.
         25    1    3    3    0    0  0.99578509442E+02  0.12598150542E+02 -0.13388691011E+03  0.20892057280E+03  0.12509000000E+03 0.  0.
         25    1    4    4    0    0 -0.87785030692E+02 -0.17124031069E+00 -0.26968612091E+02  0.15518071747E+03  0.12509000000E+03 0.  0.
<mgrwt>
<rscale>  2 0.45300479E+03</rscale>
<asrwt>0</asrwt>
<pdfrwt beam="1">  1       21 0.21004742E-01 0.45300479E+03</pdfrwt>
<pdfrwt beam="2">  1       21 0.52821460E-01 0.45300479E+03</pdfrwt>
<totfact> 0.66170880E+04</totfact>
</mgrwt>
</event>
<event>
 7    0  0.4748297E-002  0.4544355E+03  0.7546771E-02  0.1026408E+00
         21   -1    0    0  502  501  0.00000000000E+00  0.00000000000E+00  0.13991184532E+03  0.13991184532E+03  0.00000000000E+00 0. -1.
         21   -1    0    0  501  502 -0.00000000000E+00 -0.00000000000E+00 -0.36900317372E+03  0.36900317372E+03  0.00000000000E+00 0. -1.
      99926    2    1    2    0    0  0.00000000000E+00 -0.71054273576E-14 -0.22909132840E+03  0.50891501903E+03  0.45443553982E+03 0.  0.
      99925    2    3    3    0    0  0.47031798759E+02 -0.62738423375E+02 -0.23478229875E+03  0.36117201546E+03  0.26301026040E+03 0.  0.
         25    1    4    4    0    0  0.33872379054E+02  0.79536452654E+01 -0.12000753042E+03  0.17680473408E+03  0.12509000000E+03 0.  0.
         25    1    4    4    0    0  0.13159419705E+02 -0.70692068640E+02 -0.11477476834E+03  0.18436728138E+03  0.12509000000E+03 0.  0.
         25    1    3    3    0    0 -0.47031798759E+02  0.62738423375E+02  0.56909703542E+01  0.14774300358E+03  0.12509000000E+03 0.  0.
<mgrwt>
<rscale>  2 0.45443554E+03</rscale>
<asrwt>0</asrwt>
<pdfrwt beam="1">  1       21 0.20575272E-01 0.45443554E+03</pdfrwt>
<pdfrwt beam="2">  1       21 0.54265171E-01 0.45443554E+03</pdfrwt>
<totfact> 0.64939211E+04</totfact>
</mgrwt>
</event>
<event>
 7    0  0.4748297E-002  0.4563258E+03  0.7546771E-02  0.1025852E+00
         21   -1    0    0  502  501  0.00000000000E+00  0.00000000000E+00  0.74375418928E+03  0.74375418928E+03  0.00000000000E+00 0. -1.
         21   -1    0    0  501  502 -0.00000000000E+00 -0.00000000000E+00 -0.69993979504E+02  0.69993979504E+02  0.00000000000E+00 0. -1.
      99926    2    1    2    0    0  0.71054273576E-14 -0.14210854715E-13  0.67376020977E+03  0.81374816878E+03  0.45632582868E+03 0.  0.
      99925    2    3    3    0    0 -0.62799723852E+02  0.88198219909E+02  0.35774868505E+03  0.45705008472E+03  0.26303598040E+03 0.  0.
         25    1    3    3    0    0  0.62799723852E+02 -0.88198219909E+02  0.31601152473E+03  0.35669808406E+03  0.12509000000E+03 0.  0.
         25    1    4    4    0    0 -0.97034694537E+01  0.73532620112E+02  0.21357057749E+03  0.25838170061E+03  0.12509000000E+03 0.  0.
         25    1    4    4    0    0 -0.53096254398E+02  0.14665599797E+02  0.14417810756E+03  0.19866838412E+03  0.12509000000E+03 0.  0.
<mgrwt>
<rscale>  2 0.45632583E+03</rscale>
<asrwt>0</asrwt>
<pdfrwt beam="1">  1       21 0.10937561E+00 0.45632583E+03</pdfrwt>
<pdfrwt beam="2">  1       21 0.10293233E-01 0.45632583E+03</pdfrwt>
<totfact> 0.46620088E+04</totfact>
</mgrwt>
</event>
<event>
 7    0  0.4748297E-002  0.4322257E+03  0.7546771E-02  0.1033159E+00
         21   -1    0    0  502  501  0.00000000000E+00  0.00000000000E+00  0.12779460887E+03  0.12779460887E+03  0.00000000000E+00 0. -1.
         21   -1    0    0  501  502 -0.00000000000E+00 -0.00000000000E+00 -0.36546748358E+03  0.36546748358E+03  0.00000000000E+00 0. -1.
      99926    2    1    2    0    0  0.35527136788E-14  0.00000000000E+00 -0.23767287470E+03  0.49326209245E+03  0.43222574712E+03 0.  0.
      99925    2    3    3    0    0  0.19438082507E+02  0.68352595999E+01 -0.52719136448E+02  0.26903017407E+03  0.26300830288E+03 0.  0.
         25    1    3    3    0    0 -0.19438082507E+02 -0.68352595999E+01 -0.18495373826E+03  0.22423191838E+03  0.12509000000E+03 0.  0.
         25    1    4    4    0    0 -0.48798078868E+00 -0.35158610072E+01 -0.65595761568E+02  0.14129016753E+03  0.12509000000E+03 0.  0.
         25    1    4    4    0    0  0.19926063295E+02  0.10351120607E+02  0.12876625120E+02  0.12774000654E+03  0.12509000000E+03 0.  0.
<mgrwt>
<rscale>  2 0.43222575E+03</rscale>
<asrwt>0</asrwt>
<pdfrwt beam="1">  1       21 0.18793325E-01 0.43222575E+03</pdfrwt>
<pdfrwt beam="2">  1       21 0.53745217E-01 0.43222575E+03</pdfrwt>
<totfact> 0.79107533E+04</totfact>
</mgrwt>
</event>
<event>
 6    0  0.4748297E-002  0.4534449E+03  0.7546771E-02  0.1026700E+00
         21   -1    0    0  502  501  0.00000000000E+00  0.00000000000E+00  0.26539637480E+04  0.26539637480E+04  0.00000000000E+00 0.  1.
         21   -1    0    0  501  502 -0.00000000000E+00 -0.00000000000E+00 -0.19368412368E+02  0.19368412368E+02  0.00000000000E+00 0.  1.
      99926    2    1    2    0    0  0.00000000000E+00  0.14210854715E-13  0.26345953356E+04  0.26733321604E+04  0.45344487771E+03 0.  0.
         25    1    3    3    0    0 -0.20227540499E+02  0.10275241443E+03  0.77930691456E+03  0.79619971567E+03  0.12509000000E+03 0.  0.
         25    1    3    3    0    0  0.53324023287E+02 -0.42340840104E+02  0.97037643526E+03  0.98077221230E+03  0.12509000000E+03 0.  0.
         25    1    3    3    0    0 -0.33096482788E+02 -0.60411574326E+02  0.88491198581E+03  0.89636023239E+03  0.12509000000E+03 0.  0.
<mgrwt>
<rscale>  2 0.45344488E+03</rscale>
<asrwt>0</asrwt>
<pdfrwt beam="1">  1       21 0.39028854E+00 0.45344488E+03</pdfrwt>
<pdfrwt beam="2">  1       21 0.28482978E-02 0.45344488E+03</pdfrwt>
<totfact> 0.55832682E+03</totfact>
</mgrwt>
</event>
<event>
 7    0  0.4748297E-002  0.4646219E+03  0.7546771E-02  0.1023449E+00
         21   -1    0    0  502  501  0.00000000000E+00  0.00000000000E+00  0.93129180764E+03  0.93129180764E+03  0.00000000000E+00 0.  1.
         21   -1    0    0  501  502 -0.00000000000E+00 -0.00000000000E+00 -0.57950012247E+02  0.57950012247E+02  0.00000000000E+00 0.  1.
      99926    2    1    2    0    0  0.17763568394E-14  0.00000000000E+00  0.87334179539E+03  0.98924181989E+03  0.46462187490E+03 0.  0.
      99925    2    3    3    0    0 -0.78816032540E+01 -0.10814791909E+03  0.66439963714E+03  0.72266645405E+03  0.26279618321E+03 0.  0.
         25    1    3    3    0    0  0.78816032540E+01  0.10814791909E+03  0.20894215825E+03  0.26657536583E+03  0.12509000000E+03 0.  0.
         25    1    4    4    0    0  0.20200468052E+02 -0.21994494248E+02  0.26879949964E+03  0.29798069701E+03  0.12509000000E+03 0.  0.
         25    1    4    4    0    0 -0.28082071306E+02 -0.86153424844E+02  0.39560013750E+03  0.42468575704E+03  0.12509000000E+03 0.  0.
<mgrwt>
<rscale>  2 0.46462187E+03</rscale>
<asrwt>0</asrwt>
<pdfrwt beam="1">  1       21 0.13695467E+00 0.46462187E+03</pdfrwt>
<pdfrwt beam="2">  1       21 0.85220612E-02 0.46462187E+03</pdfrwt>
<totfact> 0.36747278E+04</totfact>
</mgrwt>
</event>
<event>
 7    0  0.4748297E-002  0.4621200E+03  0.7546771E-02  0.1024168E+00
         21   -1    0    0  502  501  0.00000000000E+00  0.00000000000E+00  0.51325714098E+03  0.51325714098E+03  0.00000000000E+00 0.  1.
         21   -1    0    0  501  502 -0.00000000000E+00 -0.00000000000E+00 -0.10401945189E+03  0.10401945189E+03  0.00000000000E+00 0.  1.
      99926    2    1    2    0    0 -0.14210854715E-13  0.17763568394E-14  0.40923768910E+03  0.61727659287E+03  0.46212001248E+03 0.  0.
      99925    2    3    3    0    0 -0.11890738521E+03  0.12417018986E+02  0.26363176200E+03  0.39113119115E+03  0.26303755271E+03 0.  0.
         25    1    4    4    0    0 -0.75717577316E+02 -0.21223949611E+02  0.10198999228E+03  0.17953571839E+03  0.12509000000E+03 0.  0.
         25    1    3    3    0    0  0.11890738521E+03 -0.12417018986E+02  0.14560592709E+03  0.22614540172E+03  0.12509000000E+03 0.  0.
         25    1    4    4    0    0 -0.43189807889E+02  0.33640968597E+02  0.16164176972E+03  0.21159547276E+03  0.12509000000E+03 0.  0.
<mgrwt>
<rscale>  2 0.46212001E+03</rscale>
<asrwt>0</asrwt>
<pdfrwt beam="1">  1       21 0.75478990E-01 0.46212001E+03</pdfrwt>
<pdfrwt beam="2">  1       21 0.15296978E-01 0.46212001E+03</pdfrwt>
<totfact> 0.54497567E+04</totfact>
</mgrwt>
</event>
<event>
 7    0  0.4748297E-002  0.4506285E+03  0.7546771E-02  0.1027535E+00
         21   -1    0    0  502  501  0.00000000000E+00  0.00000000000E+00  0.11712793322E+03  0.11712793322E+03  0.00000000000E+00 0.  1.
         21   -1    0    0  501  502 -0.00000000000E+00 -0.00000000000E+00 -0.43342793211E+03  0.43342793211E+03  0.00000000000E+00 0.  1.
      99926    2    1    2    0    0  0.00000000000E+00  0.00000000000E+00 -0.31629999889E+03  0.55055586532E+03  0.45062852944E+03 0.  0.
      99925    2    3    3    0    0  0.99419771668E+02  0.22334183011E+02 -0.24683888266E+03  0.37489863804E+03  0.26312819705E+03 0.  0.
         25    1    3    3    0    0 -0.99419771668E+02 -0.22334183011E+02 -0.69461116235E+02  0.17565722729E+03  0.12509000000E+03 0.  0.
         25    1    4    4    0    0  0.84847331751E+01 -0.27405953366E+00 -0.12098129819E+03  0.17422987234E+03  0.12509000000E+03 0.  0.
         25    1    4    4    0    0  0.90935038493E+02  0.22608242545E+02 -0.12585758447E+03  0.20066876569E+03  0.12509000000E+03 0.  0.
<mgrwt>
<rscale>  2 0.45062853E+03</rscale>
<asrwt>0</asrwt>
<pdfrwt beam="1">  1       21 0.17224696E-01 0.45062853E+03</pdfrwt>
<pdfrwt beam="2">  1       21 0.63739401E-01 0.45062853E+03</pdfrwt>
<totfact> 0.64015257E+04</totfact>
</mgrwt>
</event>
<event>
 7    0  0.4748297E-002  0.4529906E+03  0.7546771E-02  0.1026834E+00
         21   -1    0    0  502  501  0.00000000000E+00  0.00000000000E+00  0.93160740609E+02  0.93160740609E+02  0.00000000000E+00 0.  1.
         21   -1    0    0  501  502 -0.00000000000E+00 -0.00000000000E+00 -0.55066237686E+03  0.55066237686E+03  0.00000000000E+00 0.  1.
      99926    2    1    2    0    0  0.00000000000E+00  0.00000000000E+00 -0.45750163625E+03  0.64382311746E+03  0.45299057321E+03 0.  0.
      99925    2    3    3    0    0 -0.20109057914E+02 -0.23177740000E+02 -0.13632965621E+03  0.29778767029E+03  0.26296414123E+03 0.  0.
         25    1    3    3    0    0  0.20109057914E+02  0.23177740000E+02 -0.32117198004E+03  0.34603544718E+03  0.12509000000E+03 0.  0.
         25    1    4    4    0    0 -0.28401156929E+02 -0.45531281340E+02 -0.55730035535E+02  0.14708184203E+03  0.12509000000E+03 0.  0.
         25    1    4    4    0    0  0.82920990150E+01  0.22353541339E+02 -0.80599620671E+02  0.15070582825E+03  0.12509000000E+03 0.  0.
<mgrwt>
<rscale>  2 0.45299057E+03</rscale>
<asrwt>0</asrwt>
<pdfrwt beam="1">  1       21 0.13700108E-01 0.45299057E+03</pdfrwt>
<pdfrwt beam="2">  1       21 0.80979765E-01 0.45299057E+03</pdfrwt>
<totfact> 0.56956446E+04</totfact>
</mgrwt>
</event>
<event>
 6    0  0.4748297E-002  0.4487273E+03  0.7546771E-02  0.1028102E+00
         21   -1    0    0  502  501  0.00000000000E+00  0.00000000000E+00  0.13307592856E+04  0.13307592856E+04  0.00000000000E+00 0. -1.
         21   -1    0    0  501  502 -0.00000000000E+00 -0.00000000000E+00 -0.37827307192E+02  0.37827307192E+02  0.00000000000E+00 0. -1.
      99926    2    1    2    0    0  0.00000000000E+00 -0.71054273576E-14  0.12929319784E+04  0.13685865928E+04  0.44872726815E+03 0.  0.
         25    1    3    3    0    0 -0.47436599470E+02  0.29523073834E+02  0.78782206596E+03  0.79964552057E+03  0.12509000000E+03 0.  0.
         25    1    3    3    0    0  0.28369510832E+02  0.86132253150E+01  0.27541533219E+03  0.30394099773E+03  0.12509000000E+03 0.  0.
         25    1    3    3    0    0  0.19067088639E+02 -0.38136299149E+02  0.22969458029E+03  0.26500007452E+03  0.12509000000E+03 0.  0.
<mgrwt>
<rscale>  2 0.44872727E+03</rscale>
<asrwt>0</asrwt>
<pdfrwt beam="1">  1       21 0.19569986E+00 0.44872727E+03</pdfrwt>
<pdfrwt beam="2">  1       21 0.55628402E-02 0.44872727E+03</pdfrwt>
<totfact> 0.28547976E+04</totfact>
</mgrwt>
</event>
<event>
 7    0  0.4748297E-002  0.4443683E+03  0.7546771E-02  0.1029415E+00
         21   -1    0    0  502  501  0.00000000000E+00  0.00000000000E+00  0.40300319239E+03  0.40300319239E+03  0.00000000000E+00 0.  1.
         21   -1    0    0  501  502 -0.00000000000E+00 -0.00000000000E+00 -0.12249482119E+03  0.12249482119E+03  0.00000000000E+00 0.  1.
      99926    2    1    2    0    0  0.14210854715E-13  0.00000000000E+00  0.28050837120E+03  0.52549801358E+03  0.44436833366E+03 0.  0.
      99925    2    3    3    0    0  0.88810524150E+02  0.26877718233E+02  0.12556421293E+03  0.30580522531E+03  0.26294627459E+03 0.  0.
         25    1    4    4    0    0  0.25546113463E+02  0.44713089619E+02  0.42035423595E+02  0.14165574197E+03  0.12509000000E+03 0.  0.
         25    1    3    3    0    0 -0.88810524150E+02 -0.26877718233E+02  0.15494415826E+03  0.21969278827E+03  0.12509000000E+03 0.  0.
         25    1    4    4    0    0  0.63264410686E+02 -0.17835371386E+02  0.83528789336E+02  0.16414948334E+03  0.12509000000E+03 0.  0.
<mgrwt>
<rscale>  2 0.44436833E+03</rscale>
<asrwt>0</asrwt>
<pdfrwt beam="1">  1       21 0.59265175E-01 0.44436833E+03</pdfrwt>
<pdfrwt beam="2">  1       21 0.18013944E-01 0.44436833E+03</pdfrwt>
<totfact> 0.69154616E+04</totfact>
</mgrwt>
</event>
<event>
 7    0  0.4748297E-002  0.4560547E+03  0.7546771E-02  0.1025932E+00
         21   -1    0    0  502  501  0.00000000000E+00  0.00000000000E+00  0.91302868683E+02  0.91302868683E+02  0.00000000000E+00 0. -1.
         21   -1    0    0  501  502 -0.00000000000E+00 -0.00000000000E+00 -0.56949439925E+03  0.56949439925E+03  0.00000000000E+00 0. -1.
      99926    2    1    2    0    0  0.00000000000E+00  0.00000000000E+00 -0.47819153057E+03  0.66079726794E+03  0.45605470001E+03 0.  0.
      99925    2    3    3    0    0  0.41114124039E+02  0.10619362502E+03 -0.28914980035E+03  0.40712081839E+03  0.26300626710E+03 0.  0.
         25    1    3    3    0    0 -0.41114124039E+02 -0.10619362502E+03 -0.18904173022E+03  0.25367644954E+03  0.12509000000E+03 0.  0.
         25    1    4    4    0    0  0.61437455442E+02  0.54893010147E+02 -0.14589093326E+03  0.20909202759E+03  0.12509000000E+03 0.  0.
         25    1    4    4    0    0 -0.20323331402E+02  0.51300614872E+02 -0.14325886709E+03  0.19802879080E+03  0.12509000000E+03 0.  0.
<mgrwt>
<rscale>  2 0.45605470E+03</rscale>
<asrwt>0</asrwt>
<pdfrwt beam="1">  1       21 0.13426893E-01 0.45605470E+03</pdfrwt>
<pdfrwt beam="2">  1       21 0.83749173E-01 0.45605470E+03</pdfrwt>
<totfact> 0.54627458E+04</totfact>
</mgrwt>
</event>
<event>
 7    0  0.4748297E-002  0.4603041E+03  0.7546771E-02  0.1024693E+00
         21   -1    0    0  502  501  0.00000000000E+00  0.00000000000E+00  0.11002593744E+04  0.11002593744E+04  0.00000000000E+00 0. -1.
         21   -1    0    0  501  502 -0.00000000000E+00 -0.00000000000E+00 -0.48143160604E+02  0.48143160604E+02  0.00000000000E+00 0. -1.
      99926    2    1    2    0    0  0.00000000000E+00  0.14210854715E-13  0.10521162138E+04  0.11484025350E+04  0.46030408979E+03 0.  0.
      99925    2    3    3    0    0 -0.76990557544E+02 -0.82453781344E+02  0.74604325636E+03  0.79903977886E+03  0.26297881251E+03 0.  0.
         25    1    4    4    0    0 -0.60385518896E+02 -0.76547138636E+02  0.37814039488E+03  0.41005309615E+03  0.12509000000E+03 0.  0.
         25    1    4    4    0    0 -0.16605038648E+02 -0.59066427089E+01  0.36790286148E+03  0.38898668271E+03  0.12509000000E+03 0.  0.
         25    1    3    3    0    0  0.76990557544E+02  0.82453781344E+02  0.30607295744E+03  0.34936275615E+03  0.12509000000E+03 0.  0.
<mgrwt>
<rscale>  2 0.46030409E+03</rscale>
<asrwt>0</asrwt>
<pdfrwt beam="1">  1       21 0.16180283E+00 0.46030409E+03</pdfrwt>
<pdfrwt beam="2">  1       21 0.70798773E-02 0.46030409E+03</pdfrwt>
<totfact> 0.32472454E+04</totfact>
</mgrwt>
</event>
<event>
 7    0  0.4748297E-002  0.4522269E+03  0.7546771E-02  0.1027060E+00
         21   -1    0    0  502  501  0.00000000000E+00  0.00000000000E+00  0.48748327169E+03  0.48748327169E+03  0.00000000000E+00 0. -1.
         21   -1    0    0  501  502 -0.00000000000E+00 -0.00000000000E+00 -0.10488007302E+03  0.10488007302E+03  0.00000000000E+00 0. -1.
      99926    2    1    2    0    0  0.14210854715E-13  0.00000000000E+00  0.38260319867E+03  0.59236334472E+03  0.45222685074E+03 0.  0.
      99925    2    3    3    0    0  0.10862547134E+03 -0.10257290534E+02  0.21804124674E+03  0.35862663567E+03  0.26299500661E+03 0.  0.
         25    1    4    4    0    0  0.57361358744E+02  0.19242526555E+01  0.59558279216E+02  0.14996241179E+03  0.12509000000E+03 0.  0.
         25    1    3    3    0    0 -0.10862547134E+03  0.10257290534E+02  0.16456195193E+03  0.23373670905E+03  0.12509000000E+03 0.  0.
         25    1    4    4    0    0  0.51264112594E+02 -0.12181543189E+02  0.15848296752E+03  0.20866422389E+03  0.12509000000E+03 0.  0.
<mgrwt>
<rscale>  2 0.45222685E+03</rscale>
<asrwt>0</asrwt>
<pdfrwt beam="1">  1       21 0.71688716E-01 0.45222685E+03</pdfrwt>
<pdfrwt beam="2">  1       21 0.15423540E-01 0.45222685E+03</pdfrwt>
<totfact> 0.60465093E+04</totfact>
</mgrwt>
</event>
<event>
 7    0  0.4748297E-002  0.4549669E+03  0.7546771E-02  0.1026251E+00
         21   -1    0    0  502  501  0.00000000000E+00  0.00000000000E+00  0.94207718647E+02  0.94207718647E+02  0.00000000000E+00 0.  1.
         21   -1    0    0  501  502 -0.00000000000E+00 -0.00000000000E+00 -0.54930435746E+03  0.54930435746E+03  0.00000000000E+00 0.  1.
      99926    2    1    2    0    0  0.00000000000E+00  0.00000000000E+00 -0.45509663881E+03  0.64351207610E+03  0.45496685751E+03 0.  0.
      99925    2    3    3    0    0  0.10899370321E+02 -0.77322319184E+02 -0.40216668404E+03  0.48683844868E+03  0.26301349024E+03 0.  0.
         25    1    4    4    0    0 -0.15322879668E+02 -0.21396223752E+02 -0.13806859087E+03  0.18815693694E+03  0.12509000000E+03 0.  0.
         25    1    3    3    0    0 -0.10899370321E+02  0.77322319184E+02 -0.52929954772E+02  0.15667362742E+03  0.12509000000E+03 0.  0.
         25    1    4    4    0    0  0.26222249989E+02 -0.55926095431E+02 -0.26409809316E+03  0.29868151174E+03  0.12509000000E+03 0.  0.
<mgrwt>
<rscale>  2 0.45496686E+03</rscale>
<asrwt>0</asrwt>
<pdfrwt beam="1">  1       21 0.13854076E-01 0.45496686E+03</pdfrwt>
<pdfrwt beam="2">  1       21 0.80780052E-01 0.45496686E+03</pdfrwt>
<totfact> 0.56091480E+04</totfact>
</mgrwt>
</event>
<event>
 7    0  0.4748297E-002  0.4604019E+03  0.7546771E-02  0.1024665E+00
         21   -1    0    0  502  501  0.00000000000E+00  0.00000000000E+00  0.60267658495E+03  0.60267658495E+03  0.00000000000E+00 0.  1.
         21   -1    0    0  501  502 -0.00000000000E+00 -0.00000000000E+00 -0.87928548341E+02  0.87928548341E+02  0.00000000000E+00 0.  1.
      99926    2    1    2    0    0  0.00000000000E+00 -0.71054273576E-14  0.51474803660E+03  0.69060513329E+03  0.46040189936E+03 0.  0.
      99925    2    3    3    0    0  0.10943730621E+03  0.34865769411E+02  0.36504744782E+03  0.46422068097E+03  0.26277186991E+03 0.  0.
         25    1    4    4    0    0  0.62770191145E+02  0.56973855499E+02  0.20383128787E+03  0.25373375637E+03  0.12509000000E+03 0.  0.
         25    1    3    3    0    0 -0.10943730621E+03 -0.34865769411E+02  0.14970058878E+03  0.22638445231E+03  0.12509000000E+03 0.  0.
         25    1    4    4    0    0  0.46667115067E+02 -0.22108086089E+02  0.16121615996E+03  0.21048692461E+03  0.12509000000E+03 0.  0.
<mgrwt>
<rscale>  2 0.46040190E+03</rscale>
<asrwt>0</asrwt>
<pdfrwt beam="1">  1       21 0.88628908E-01 0.46040190E+03</pdfrwt>
<pdfrwt beam="2">  1       21 0.12930669E-01 0.46040190E+03</pdfrwt>
<totfact> 0.51203666E+04</totfact>
</mgrwt>
</event>
<event>
 7    0  0.4748297E-002  0.4677883E+03  0.7546771E-02  0.1022546E+00
         21   -1    0    0  502  501  0.00000000000E+00  0.00000000000E+00  0.10011328288E+03  0.10011328288E+03  0.00000000000E+00 0. -1.
         21   -1    0    0  501  502 -0.00000000000E+00 -0.00000000000E+00 -0.54644579370E+03  0.54644579370E+03  0.00000000000E+00 0. -1.
      99926    2    1    2    0    0  0.00000000000E+00  0.00000000000E+00 -0.44633251082E+03  0.64655907659E+03  0.46778833814E+03 0.  0.
      99925    2    3    3    0    0  0.37999207780E+02 -0.68389746068E+02 -0.14290375816E+03  0.30916077606E+03  0.26275045994E+03 0.  0.
         25    1    4    4    0    0  0.26947649565E+02 -0.53757454196E+02 -0.35474950582E+02  0.14325508688E+03  0.12509000000E+03 0.  0.
         25    1    3    3    0    0 -0.37999207780E+02  0.68389746068E+02 -0.30342875265E+03  0.33739830052E+03  0.12509000000E+03 0.  0.
         25    1    4    4    0    0  0.11051558215E+02 -0.14632291872E+02 -0.10742880758E+03  0.16590568918E+03  0.12509000000E+03 0.  0.
<mgrwt>
<rscale>  2 0.46778834E+03</rscale>
<asrwt>0</asrwt>
<pdfrwt beam="1">  1       21 0.14722541E-01 0.46778834E+03</pdfrwt>
<pdfrwt beam="2">  1       21 0.80359676E-01 0.46778834E+03</pdfrwt>
<totfact> 0.50597798E+04</totfact>
</mgrwt>
</event>
<event>
 7    0  0.4748297E-002  0.4561566E+03  0.7546771E-02  0.1025902E+00
         21   -1    0    0  502  501  0.00000000000E+00  0.00000000000E+00  0.34681092774E+03  0.34681092774E+03  0.00000000000E+00 0. -1.
         21   -1    0    0  501  502 -0.00000000000E+00 -0.00000000000E+00 -0.14999442333E+03  0.14999442333E+03  0.00000000000E+00 0. -1.
      99926    2    1    2    0    0  0.00000000000E+00  0.71054273576E-14  0.19681650441E+03  0.49680535107E+03  0.45615657449E+03 0.  0.
      99925    2    3    3    0    0  0.87847962521E+02  0.36688120750E+02  0.54440306763E+02  0.28471628375E+03  0.26274765938E+03 0.  0.
         25    1    4    4    0    0  0.51038094238E+02  0.13497650056E+02 -0.12449130609E+02  0.13634354614E+03  0.12509000000E+03 0.  0.
         25    1    3    3    0    0 -0.87847962521E+02 -0.36688120750E+02  0.14237619765E+03  0.21208906733E+03  0.12509000000E+03 0.  0.
         25    1    4    4    0    0  0.36809868283E+02  0.23190470694E+02  0.66889437373E+02  0.14837273761E+03  0.12509000000E+03 0.  0.
<mgrwt>
<rscale>  2 0.45615657E+03</rscale>
<asrwt>0</asrwt>
<pdfrwt beam="1">  1       21 0.51001607E-01 0.45615657E+03</pdfrwt>
<pdfrwt beam="2">  1       21 0.22058003E-01 0.45615657E+03</pdfrwt>
<totfact> 0.64897776E+04</totfact>
</mgrwt>
</event>
<event>
 7    0  0.4748297E-002  0.4552115E+03  0.7546771E-02  0.1026179E+00
         21   -1    0    0  502  501  0.00000000000E+00  0.00000000000E+00  0.36540425820E+03  0.36540425820E+03  0.00000000000E+00 0. -1.
         21   -1    0    0  501  502 -0.00000000000E+00 -0.00000000000E+00 -0.14177275927E+03  0.14177275927E+03  0.00000000000E+00 0. -1.
      99926    2    1    2    0    0  0.71054273576E-14  0.35527136788E-14  0.22363149893E+03  0.50717701747E+03  0.45521146705E+03 0.  0.
      99925    2    3    3    0    0 -0.33098097927E+02 -0.30588117114E+02  0.25661750089E+03  0.37018540670E+03  0.26297067627E+03 0.  0.
         25    1    3    3    0    0  0.33098097927E+02  0.30588117114E+02 -0.32986001961E+02  0.13699161077E+03  0.12509000000E+03 0.  0.
         25    1    4    4    0    0 -0.45091886225E+02 -0.38137642551E+02  0.15990376645E+03  0.21143434112E+03  0.12509000000E+03 0.  0.
         25    1    4    4    0    0  0.11993788298E+02  0.75495254376E+01  0.96713734441E+02  0.15875106558E+03  0.12509000000E+03 0.  0.
<mgrwt>
<rscale>  2 0.45521147E+03</rscale>
<asrwt>0</asrwt>
<pdfrwt beam="1">  1       21 0.53735920E-01 0.45521147E+03</pdfrwt>
<pdfrwt beam="2">  1       21 0.20848935E-01 0.45521147E+03</pdfrwt>
<totfact> 0.64660744E+04</totfact>
</mgrwt>
</event>
<event>
 7    0  0.4748297E-002  0.4512889E+03  0.7546771E-02  0.1027338E+00
         21   -1    0    0  502  501  0.00000000000E+00  0.00000000000E+00  0.10563143372E+03  0.10563143372E+03  0.00000000000E+00 0.  1.
         21   -1    0    0  501  502 -0.00000000000E+00 -0.00000000000E+00 -0.48201019332E+03  0.48201019332E+03  0.00000000000E+00 0.  1.
      99926    2    1    2    0    0 -0.62172489379E-14  0.14210854715E-13 -0.37637875960E+03  0.58764162704E+03  0.45128894419E+03 0.  0.
      99925    2    3    3    0    0  0.64488957014E+01  0.10903476104E+03 -0.22469978208E+03  0.36273233934E+03  0.26297260422E+03 0.  0.
         25    1    4    4    0    0  0.38490748973E+02  0.49295824174E+02 -0.13595839576E+03  0.19504822357E+03  0.12509000000E+03 0.  0.
         25    1    3    3    0    0 -0.64488957014E+01 -0.10903476104E+03 -0.15167897752E+03  0.22490928770E+03  0.12509000000E+03 0.  0.
         25    1    4    4    0    0 -0.32041853271E+02  0.59738936862E+02 -0.88741386315E+02  0.16768411578E+03  0.12509000000E+03 0.  0.
<mgrwt>
<rscale>  2 0.45128894E+03</rscale>
<asrwt>0</asrwt>
<pdfrwt beam="1">  1       21 0.15534034E-01 0.45128894E+03</pdfrwt>
<pdfrwt beam="2">  1       21 0.70883852E-01 0.45128894E+03</pdfrwt>
<totfact> 0.61221558E+04</totfact>
</mgrwt>
</event>
<event>
 7    0  0.4748297E-002  0.4546753E+03  0.7546771E-02  0.1026337E+00
         21   -1    0    0  502  501  0.00000000000E+00  0.00000000000E+00  0.47911231538E+02  0.47911231538E+02  0.00000000000E+00 0.  1.
         21   -1    0    0  501  502 -0.00000000000E+00 -0.00000000000E+00 -0.10787118975E+04  0.10787118975E+04  0.00000000000E+00 0.  1.
      99926    2    1    2    0    0  0.71054273576E-14  0.00000000000E+00 -0.10308006660E+04  0.11266231291E+04  0.45467533685E+03 0.  0.
      99925    2    3    3    0    0  0.35606613635E+02  0.88454862930E+02 -0.79850551310E+03  0.84608678584E+03  0.26298232074E+03 0.  0.
         25    1    4    4    0    0  0.32605379524E+02  0.75741450781E+02 -0.50532447225E+03  0.52706755591E+03  0.12509000000E+03 0.  0.
         25    1    3    3    0    0 -0.35606613635E+02 -0.88454862930E+02 -0.23229515289E+03  0.28053634322E+03  0.12509000000E+03 0.  0.
         25    1    4    4    0    0  0.30012341114E+01  0.12713412148E+02 -0.29318104085E+03  0.31901922994E+03  0.12509000000E+03 0.  0.
<mgrwt>
<rscale>  2 0.45467534E+03</rscale>
<asrwt>0</asrwt>
<pdfrwt beam="1">  1       21 0.70457696E-02 0.45467534E+03</pdfrwt>
<pdfrwt beam="2">  1       21 0.15863410E+00 0.45467534E+03</pdfrwt>
<totfact> 0.34660165E+04</totfact>
</mgrwt>
</event>
<event>
 7    0  0.4748297E-002  0.4572844E+03  0.7546771E-02  0.1025572E+00
         21   -1    0    0  502  501  0.00000000000E+00  0.00000000000E+00  0.23278766734E+03  0.23278766734E+03  0.00000000000E+00 0.  1.
         21   -1    0    0  501  502 -0.00000000000E+00 -0.00000000000E+00 -0.22457057315E+03  0.22457057315E+03  0.00000000000E+00 0.  1.
      99926    2    1    2    0    0  0.22204460493E-15 -0.13322676296E-14  0.82170941915E+01  0.45735824049E+03  0.45728441862E+03 0.  0.
      99925    2    3    3    0    0 -0.14139372316E+01  0.24588255926E+01 -0.11008602032E+03  0.28516306041E+03  0.26304181058E+03 0.  0.
         25    1    4    4    0    0  0.39381296936E+01 -0.34579086506E+02 -0.75072556868E+02  0.14998206221E+03  0.12509000000E+03 0.  0.
         25    1    3    3    0    0  0.14139372316E+01 -0.24588255926E+01  0.11830311451E+03  0.17219518008E+03  0.12509000000E+03 0.  0.
         25    1    4    4    0    0 -0.53520669252E+01  0.37037912098E+02 -0.35013463448E+02  0.13518099820E+03  0.12509000000E+03 0.  0.
<mgrwt>
<rscale>  2 0.45728442E+03</rscale>
<asrwt>0</asrwt>
<pdfrwt beam="1">  1       21 0.34233480E-01 0.45728442E+03</pdfrwt>
<pdfrwt beam="2">  1       21 0.33025084E-01 0.45728442E+03</pdfrwt>
<totfact> 0.67141205E+04</totfact>
</mgrwt>
</event>
<event>
 7    0  0.4748297E-002  0.4565921E+03  0.7546771E-02  0.1025774E+00
         21   -1    0    0  502  501  0.00000000000E+00  0.00000000000E+00  0.69112235176E+03  0.69112235176E+03  0.00000000000E+00 0. -1.
         21   -1    0    0  501  502 -0.00000000000E+00 -0.00000000000E+00 -0.75412227691E+02  0.75412227691E+02  0.00000000000E+00 0. -1.
      99926    2    1    2    0    0  0.00000000000E+00  0.00000000000E+00  0.61571012407E+03  0.76653457945E+03  0.45659205492E+03 0.  0.
      99925    2    3    3    0    0  0.11119686936E+03  0.11789397527E+02  0.34654231873E+03  0.44935553036E+03  0.26329656349E+03 0.  0.
         25    1    4    4    0    0  0.36882844540E+02 -0.92422713984E+01  0.11004489625E+03  0.17088929485E+03  0.12509000000E+03 0.  0.
         25    1    3    3    0    0 -0.11119686936E+03 -0.11789397527E+02  0.26916780534E+03  0.31717904909E+03  0.12509000000E+03 0.  0.
         25    1    4    4    0    0  0.74314024822E+02  0.21031668926E+02  0.23649742248E+03  0.27846623552E+03  0.12509000000E+03 0.  0.
<mgrwt>
<rscale>  2 0.45659205E+03</rscale>
<asrwt>0</asrwt>
<pdfrwt beam="1">  1       21 0.10163564E+00 0.45659205E+03</pdfrwt>
<pdfrwt beam="2">  1       21 0.11090034E-01 0.45659205E+03</pdfrwt>
<totfact> 0.48812991E+04</totfact>
</mgrwt>
</event>
<event>
 6    0  0.4748297E-002  0.4485710E+03  0.7546771E-02  0.1028149E+00
         21   -1    0    0  502  501  0.00000000000E+00  0.00000000000E+00  0.76483789694E+02  0.76483789694E+02  0.00000000000E+00 0. -1.
         21   -1    0    0  501  502 -0.00000000000E+00 -0.00000000000E+00 -0.65770771582E+03  0.65770771582E+03  0.00000000000E+00 0. -1.
      99926    2    1    2    0    0  0.00000000000E+00  0.00000000000E+00 -0.58122392613E+03  0.73419150551E+03  0.44857096926E+03 0.  0.
         25    1    3    3    0    0  0.38867145777E+02  0.77498365935E+02 -0.21701979606E+03  0.26506933381E+03  0.12509000000E+03 0.  0.
         25    1    3    3    0    0 -0.48011257719E+02  0.11350733923E+02 -0.22298981130E+03  0.26039562990E+03  0.12509000000E+03 0.  0.
         25    1    3    3    0    0  0.91441119418E+01 -0.88849099858E+02 -0.14121431877E+03  0.20872654180E+03  0.12509000000E+03 0.  0.
<mgrwt>
<rscale>  2 0.44857097E+03</rscale>
<asrwt>0</asrwt>
<pdfrwt beam="1">  1       21 0.11247617E-01 0.44857097E+03</pdfrwt>
<pdfrwt beam="2">  1       21 0.96721720E-01 0.44857097E+03</pdfrwt>
<totfact> 0.53751597E+04</totfact>
</mgrwt>
</event>
<event>
 7    0  0.4748297E-002  0.4345082E+03  0.7546771E-02  0.1032445E+00
         21   -1    0    0  502  501  0.00000000000E+00  0.00000000000E+00  0.31036171517E+03  0.31036171517E+03  0.00000000000E+00 0. -1.
         21   -1    0    0  501  502 -0.00000000000E+00 -0.00000000000E+00 -0.15207847967E+03  0.15207847967E+03  0.00000000000E+00 0. -1.
      99926    2    1    2    0    0 -0.71054273576E-14 -0.14210854715E-13  0.15828323550E+03  0.46244019484E+03  0.43450817157E+03 0.  0.
      99925    2    3    3    0    0 -0.48799321567E+02 -0.73577350374E+02  0.13156870416E+03  0.30701762711E+03  0.26297243043E+03 0.  0.
         25    1    4    4    0    0 -0.10528324486E+02 -0.45243232966E+01  0.86015999591E+02  0.15224183198E+03  0.12509000000E+03 0.  0.
         25    1    3    3    0    0  0.48799321567E+02  0.73577350374E+02  0.26714531335E+02  0.15542256772E+03  0.12509000000E+03 0.  0.
         25    1    4    4    0    0 -0.38270997081E+02 -0.69053027077E+02  0.45552704572E+02  0.15477579514E+03  0.12509000000E+03 0.  0.
<mgrwt>
<rscale>  2 0.43450817E+03</rscale>
<asrwt>0</asrwt>
<pdfrwt beam="1">  1       21 0.45641429E-01 0.43450817E+03</pdfrwt>
<pdfrwt beam="2">  1       21 0.22364482E-01 0.43450817E+03</pdfrwt>
<totfact> 0.80284343E+04</totfact>
</mgrwt>
</event>
<event>
 7    0  0.4748297E-002  0.4554921E+03  0.7546771E-02  0.1026097E+00
         21   -1    0    0  502  501  0.00000000000E+00  0.00000000000E+00  0.60041328722E+02  0.60041328722E+02  0.00000000000E+00 0. -1.
         21   -1    0    0  501  502 -0.00000000000E+00 -0.00000000000E+00 -0.86387584207E+03  0.86387584207E+03  0.00000000000E+00 0. -1.
      99926    2    1    2    0    0  0.71054273576E-14  0.00000000000E+00 -0.80383451335E+03  0.92391717079E+03  0.45549205661E+03 0.  0.
      99925    2    3    3    0    0  0.47841219101E+02 -0.72173535786E+02 -0.65479028972E+03  0.71093949542E+03  0.26303391628E+03 0.  0.
         25    1    3    3    0    0 -0.47841219101E+02  0.72173535786E+02 -0.14904422362E+03  0.21297767538E+03  0.12509000000E+03 0.  0.
         25    1    4    4    0    0 -0.10641484156E+02 -0.33087945345E+02 -0.36833166864E+03  0.39054292919E+03  0.12509000000E+03 0.  0.
         25    1    4    4    0    0  0.58482703257E+02 -0.39085590441E+02 -0.28645862108E+03  0.32039656623E+03  0.12509000000E+03 0.  0.
<mgrwt>
<rscale>  2 0.45549206E+03</rscale>
<asrwt>0</asrwt>
<pdfrwt beam="1">  1       21 0.88296070E-02 0.45549206E+03</pdfrwt>
<pdfrwt beam="2">  1       21 0.12704057E+00 0.45549206E+03</pdfrwt>
<totfact> 0.42053389E+04</totfact>
</mgrwt>
</event>
<event>
 7    0  0.4748297E-002  0.4560248E+03  0.7546771E-02  0.1025940E+00
         21   -1    0    0  502  501  0.00000000000E+00  0.00000000000E+00  0.35950469677E+03  0.35950469677E+03  0.00000000000E+00 0.  1.
         21   -1    0    0  501  502 -0.00000000000E+00 -0.00000000000E+00 -0.14461465207E+03  0.14461465207E+03  0.00000000000E+00 0.  1.
      99926    2    1    2    0    0  0.71054273576E-14  0.00000000000E+00  0.21489004469E+03  0.50411934884E+03  0.45602476530E+03 0.  0.
      99925    2    3    3    0    0  0.58351205009E+02 -0.66767070550E+02  0.21467578982E+03  0.35078879467E+03  0.26287711748E+03 0.  0.
         25    1    4    4    0    0  0.17859060886E+02 -0.72260386045E+02  0.10496432316E+03  0.17945898329E+03  0.12509000000E+03 0.  0.
         25    1    4    4    0    0  0.40492144123E+02  0.54933154953E+01  0.10971146667E+03  0.17132981138E+03  0.12509000000E+03 0.  0.
         25    1    3    3    0    0 -0.58351205009E+02  0.66767070550E+02  0.21425486929E+00  0.15333055417E+03  0.12509000000E+03 0.  0.
<mgrwt>
<rscale>  2 0.45602477E+03</rscale>
<asrwt>0</asrwt>
<pdfrwt beam="1">  1       21 0.52868338E-01 0.45602477E+03</pdfrwt>
<pdfrwt beam="2">  1       21 0.21266861E-01 0.45602477E+03</pdfrwt>
<totfact> 0.64456331E+04</totfact>
</mgrwt>
</event>
<event>
 7    0  0.4748297E-002  0.4571507E+03  0.7546771E-02  0.1025611E+00
         21   -1    0    0  502  501  0.00000000000E+00  0.00000000000E+00  0.26487629164E+02  0.26487629164E+02  0.00000000000E+00 0. -1.
         21   -1    0    0  501  502 -0.00000000000E+00 -0.00000000000E+00 -0.19724937455E+04  0.19724937455E+04  0.00000000000E+00 0. -1.
      99926    2    1    2    0    0  0.00000000000E+00  0.00000000000E+00 -0.19460061164E+04  0.19989813747E+04  0.45715066602E+03 0.  0.
      99925    2    3    3    0    0 -0.76263897377E+02 -0.84333962212E+02 -0.11477492107E+04  0.11830218200E+04  0.26321849648E+03 0.  0.
         25    1    3    3    0    0  0.76263897377E+02  0.84333962212E+02 -0.79825690571E+03  0.81595955466E+03  0.12509000000E+03 0.  0.
         25    1    4    4    0    0 -0.72066695101E+01 -0.38859103852E+02 -0.65307908242E+03  0.66612443434E+03  0.12509000000E+03 0.  0.
         25    1    4    4    0    0 -0.69057227867E+02 -0.45474858360E+02 -0.49467012824E+03  0.51689738569E+03  0.12509000000E+03 0.  0.
<mgrwt>
<rscale>  2 0.45715067E+03</rscale>
<asrwt>0</asrwt>
<pdfrwt beam="1">  1       21 0.38952394E-02 0.45715067E+03</pdfrwt>
<pdfrwt beam="2">  1       21 0.29007262E+00 0.45715067E+03</pdfrwt>
<totfact> 0.13499538E+04</totfact>
</mgrwt>
</event>
<event>
 7    0  0.4748297E-002  0.4518470E+03  0.7546771E-02  0.1027173E+00
         21   -1    0    0  502  501  0.00000000000E+00  0.00000000000E+00  0.42864131155E+03  0.42864131155E+03  0.00000000000E+00 0.  1.
         21   -1    0    0  501  502 -0.00000000000E+00 -0.00000000000E+00 -0.11907723013E+03  0.11907723013E+03  0.00000000000E+00 0.  1.
      99926    2    1    2    0    0  0.00000000000E+00  0.00000000000E+00  0.30956408143E+03  0.54771854168E+03  0.45184696567E+03 0.  0.
      99925    2    3    3    0    0 -0.91841431584E+02  0.58384443592E+02  0.21661547088E+03  0.35763817943E+03  0.26294336530E+03 0.  0.
         25    1    3    3    0    0  0.91841431584E+02 -0.58384443592E+02  0.92948610542E+02  0.19008036224E+03  0.12509000000E+03 0.  0.
         25    1    4    4    0    0 -0.15330607140E+02  0.24616943507E+02  0.13556870844E+03  0.18672815597E+03  0.12509000000E+03 0.  0.
         25    1    4    4    0    0 -0.76510824444E+02  0.33767500085E+02  0.81046762444E+02  0.17091002347E+03  0.12509000000E+03 0.  0.
<mgrwt>
<rscale>  2 0.45184697E+03</rscale>
<asrwt>0</asrwt>
<pdfrwt beam="1">  1       21 0.63035486E-01 0.45184697E+03</pdfrwt>
<pdfrwt beam="2">  1       21 0.17511358E-01 0.45184697E+03</pdfrwt>
<totfact> 0.63589148E+04</totfact>
</mgrwt>
</event>
<event>
 7    0  0.4748297E-002  0.4595323E+03  0.7546771E-02  0.1024917E+00
         21   -1    0    0  502  501  0.00000000000E+00  0.00000000000E+00  0.51720250369E+02  0.51720250369E+02  0.00000000000E+00 0. -1.
         21   -1    0    0  501  502 -0.00000000000E+00 -0.00000000000E+00 -0.10207315661E+04  0.10207315661E+04  0.00000000000E+00 0. -1.
      99926    2    1    2    0    0  0.00000000000E+00  0.00000000000E+00 -0.96901131578E+03  0.10724518165E+04  0.45953233688E+03 0.  0.
      99925    2    3    3    0    0  0.96565581430E+02  0.62403676416E+02 -0.55207138715E+03  0.62222349385E+03  0.26298313528E+03 0.  0.
         25    1    4    4    0    0  0.74837697168E+02  0.35294061430E+02 -0.36407114076E+03  0.39375329246E+03  0.12509000000E+03 0.  0.
         25    1    3    3    0    0 -0.96565581430E+02 -0.62403676416E+02 -0.41693992863E+03  0.45022832267E+03  0.12509000000E+03 0.  0.
         25    1    4    4    0    0  0.21727884263E+02  0.27109614986E+02 -0.18800024639E+03  0.22847020138E+03  0.12509000000E+03 0.  0.
<mgrwt>
<rscale>  2 0.45953234E+03</rscale>
<asrwt>0</asrwt>
<pdfrwt beam="1">  1       21 0.76059197E-02 0.45953234E+03</pdfrwt>
<pdfrwt beam="2">  1       21 0.15010757E+00 0.45953234E+03</pdfrwt>
<totfact> 0.35202588E+04</totfact>
</mgrwt>
</event>
<event>
 7    0  0.4748297E-002  0.4592723E+03  0.7546771E-02  0.1024992E+00
         21   -1    0    0  502  501  0.00000000000E+00  0.00000000000E+00  0.10419716360E+03  0.10419716360E+03  0.00000000000E+00 0. -1.
         21   -1    0    0  501  502 -0.00000000000E+00 -0.00000000000E+00 -0.50608642129E+03  0.50608642129E+03  0.00000000000E+00 0. -1.
      99926    2    1    2    0    0  0.00000000000E+00  0.00000000000E+00 -0.40188925769E+03  0.61028358489E+03  0.45927233591E+03 0.  0.
      99925    2    3    3    0    0 -0.10440245209E+03  0.50396200749E+02 -0.27481760107E+03  0.39759986884E+03  0.26290928624E+03 0.  0.
         25    1    4    4    0    0 -0.50449950532E+02  0.31802029781E+02 -0.19302259221E+03  0.23761690977E+03  0.12509000000E+03 0.  0.
         25    1    4    4    0    0 -0.53952501561E+02  0.18594170968E+02 -0.81795008864E+02  0.15998295907E+03  0.12509000000E+03 0.  0.
         25    1    3    3    0    0  0.10440245209E+03 -0.50396200749E+02 -0.12707165662E+03  0.21268371604E+03  0.12509000000E+03 0.  0.
<mgrwt>
<rscale>  2 0.45927234E+03</rscale>
<asrwt>0</asrwt>
<pdfrwt beam="1">  1       21 0.15323112E-01 0.45927234E+03</pdfrwt>
<pdfrwt beam="2">  1       21 0.74424474E-01 0.45927234E+03</pdfrwt>
<totfact> 0.56131306E+04</totfact>
</mgrwt>
</event>
<event>
 7    0  0.4748297E-002  0.4499615E+03  0.7546771E-02  0.1027734E+00
         21   -1    0    0  502  501  0.00000000000E+00  0.00000000000E+00  0.66646290560E+02  0.66646290560E+02  0.00000000000E+00 0. -1.
         21   -1    0    0  501  502 -0.00000000000E+00 -0.00000000000E+00 -0.75947731833E+03  0.75947731833E+03  0.00000000000E+00 0. -1.
      99926    2    1    2    0    0  0.00000000000E+00  0.00000000000E+00 -0.69283102777E+03  0.82612360889E+03  0.44996153627E+03 0.  0.
      99925    2    3    3    0    0 -0.38494740228E+02  0.10151915453E+03 -0.43483894487E+03  0.51953690550E+03  0.26276549323E+03 0.  0.
         25    1    4    4    0    0 -0.49981248161E+02  0.74530955470E+02 -0.26647184355E+03  0.30774622661E+03  0.12509000000E+03 0.  0.
         25    1    3    3    0    0  0.38494740228E+02 -0.10151915453E+03 -0.25799208290E+03  0.30658670340E+03  0.12509000000E+03 0.  0.
         25    1    4    4    0    0  0.11486507932E+02  0.26988199058E+02 -0.16836710133E+03  0.21179067888E+03  0.12509000000E+03 0.  0.
<mgrwt>
<rscale>  2 0.44996154E+03</rscale>
<asrwt>0</asrwt>
<pdfrwt beam="1">  1       21 0.98009246E-02 0.44996154E+03</pdfrwt>
<pdfrwt beam="2">  1       21 0.11168785E+00 0.44996154E+03</pdfrwt>
<totfact> 0.48412784E+04</totfact>
</mgrwt>
</event>
<event>
 7    0  0.4748297E-002  0.4592800E+03  0.7546771E-02  0.1024990E+00
         21   -1    0    0  502  501  0.00000000000E+00  0.00000000000E+00  0.67465443252E+02  0.67465443252E+02  0.00000000000E+00 0. -1.
         21   -1    0    0  501  502 -0.00000000000E+00 -0.00000000000E+00 -0.78165261558E+03  0.78165261558E+03  0.00000000000E+00 0. -1.
      99926    2    1    2    0    0  0.00000000000E+00  0.23314683517E-14 -0.71418717232E+03  0.84911805883E+03  0.45928004607E+03 0.  0.
      99925    2    3    3    0    0  0.11230130837E+03 -0.48489190665E+00 -0.50903362445E+03  0.58388739452E+03  0.26305406229E+03 0.  0.
         25    1    3    3    0    0 -0.11230130837E+03  0.48489190665E+00 -0.20515354788E+03  0.26523066431E+03  0.12509000000E+03 0.  0.
         25    1    4    4    0    0  0.28191813954E+02 -0.17873789995E+02 -0.28823297132E+03  0.31597468981E+03  0.12509000000E+03 0.  0.
         25    1    4    4    0    0  0.84109494413E+02  0.17388898088E+02 -0.22080065312E+03  0.26791270471E+03  0.12509000000E+03 0.  0.
<mgrwt>
<rscale>  2 0.45928005E+03</rscale>
<asrwt>0</asrwt>
<pdfrwt beam="1">  1       21 0.99213886E-02 0.45928005E+03</pdfrwt>
<pdfrwt beam="2">  1       21 0.11494891E+00 0.45928005E+03</pdfrwt>
<totfact> 0.43983379E+04</totfact>
</mgrwt>
</event>
<event>
 7    0  0.4748297E-002  0.4559533E+03  0.7546771E-02  0.1025961E+00
         21   -1    0    0  502  501  0.00000000000E+00  0.00000000000E+00  0.69767468974E+02  0.69767468974E+02  0.00000000000E+00 0.  1.
         21   -1    0    0  501  502 -0.00000000000E+00 -0.00000000000E+00 -0.74495094593E+03  0.74495094593E+03  0.00000000000E+00 0.  1.
      99926    2    1    2    0    0  0.00000000000E+00  0.00000000000E+00 -0.67518347696E+03  0.81471841490E+03  0.45595325202E+03 0.  0.
      99925    2    3    3    0    0  0.79575451487E+02  0.54477173263E+02 -0.31611448619E+03  0.42244547024E+03  0.26311934946E+03 0.  0.
         25    1    4    4    0    0  0.54463847423E+02 -0.85445109925E+01 -0.13511832750E+03  0.19220767381E+03  0.12509000000E+03 0.  0.
         25    1    4    4    0    0  0.25111604064E+02  0.63021684255E+02 -0.18099615870E+03  0.23023779644E+03  0.12509000000E+03 0.  0.
         25    1    3    3    0    0 -0.79575451487E+02 -0.54477173263E+02 -0.35906899076E+03  0.39227294466E+03  0.12509000000E+03 0.  0.
<mgrwt>
<rscale>  2 0.45595325E+03</rscale>
<asrwt>0</asrwt>
<pdfrwt beam="1">  1       21 0.10259921E-01 0.45595325E+03</pdfrwt>
<pdfrwt beam="2">  1       21 0.10955162E+00 0.45595325E+03</pdfrwt>
<totfact> 0.46710740E+04</totfact>
</mgrwt>
</event>
<event>
 7    0  0.4748297E-002  0.4512940E+03  0.7546771E-02  0.1027337E+00
         21   -1    0    0  502  501  0.00000000000E+00  0.00000000000E+00  0.13730592139E+03  0.13730592139E+03  0.00000000000E+00 0.  1.
         21   -1    0    0  501  502 -0.00000000000E+00 -0.00000000000E+00 -0.37082572207E+03  0.37082572207E+03  0.00000000000E+00 0.  1.
      99926    2    1    2    0    0 -0.71054273576E-14  0.00000000000E+00 -0.23351980067E+03  0.50813164346E+03  0.45129399484E+03 0.  0.
      99925    2    3    3    0    0 -0.42746555589E+02  0.91820154079E+02 -0.10027708971E+03  0.29918347564E+03  0.26305331906E+03 0.  0.
         25    1    3    3    0    0  0.42746555589E+02 -0.91820154079E+02 -0.13324271096E+03  0.20894816782E+03  0.12509000000E+03 0.  0.
         25    1    4    4    0    0  0.17513898710E+02  0.54582611425E+02 -0.39929566290E+02  0.14327552646E+03  0.12509000000E+03 0.  0.
         25    1    4    4    0    0 -0.60260454299E+02  0.37237542654E+02 -0.60347523421E+02  0.15590794918E+03  0.12509000000E+03 0.  0.
<mgrwt>
<rscale>  2 0.45129399E+03</rscale>
<asrwt>0</asrwt>
<pdfrwt beam="1">  1       21 0.20192047E-01 0.45129399E+03</pdfrwt>
<pdfrwt beam="2">  1       21 0.54533194E-01 0.45129399E+03</pdfrwt>
<totfact> 0.66641661E+04</totfact>
</mgrwt>
</event>
<event>
 7    0  0.4748297E-002  0.4422684E+03  0.7546771E-02  0.1030053E+00
         21   -1    0    0  502  501  0.00000000000E+00  0.00000000000E+00  0.76877553173E+02  0.76877553173E+02  0.00000000000E+00 0. -1.
         21   -1    0    0  501  502 -0.00000000000E+00 -0.00000000000E+00 -0.63608072992E+03  0.63608072992E+03  0.00000000000E+00 0. -1.
      99926    2    1    2    0    0  0.00000000000E+00 -0.71054273576E-14 -0.55920317674E+03  0.71295828309E+03  0.44226838068E+03 0.  0.
      99925    2    3    3    0    0  0.52882586295E+01  0.59868898700E+02 -0.22540951598E+03  0.35146420737E+03  0.26287903770E+03 0.  0.
         25    1    4    4    0    0  0.57104411460E+01  0.62491312402E+02 -0.86537899104E+02  0.16454205950E+03  0.12509000000E+03 0.  0.
         25    1    3    3    0    0 -0.52882586295E+01 -0.59868898700E+02 -0.33379366077E+03  0.36149407572E+03  0.12509000000E+03 0.  0.
         25    1    4    4    0    0 -0.42218251652E+00 -0.26224137025E+01 -0.13887161687E+03  0.18692214787E+03  0.12509000000E+03 0.  0.
<mgrwt>
<rscale>  2 0.44226838E+03</rscale>
<asrwt>0</asrwt>
<pdfrwt beam="1">  1       21 0.11305522E-01 0.44226838E+03</pdfrwt>
<pdfrwt beam="2">  1       21 0.93541288E-01 0.44226838E+03</pdfrwt>
<totfact> 0.57778211E+04</totfact>
</mgrwt>
</event>
<event>
 7    0  0.4748297E-002  0.4564025E+03  0.7546771E-02  0.1025830E+00
         21   -1    0    0  502  501  0.00000000000E+00  0.00000000000E+00  0.17204816985E+03  0.17204816985E+03  0.00000000000E+00 0.  1.
         21   -1    0    0  501  502 -0.00000000000E+00 -0.00000000000E+00 -0.30268153798E+03  0.30268153798E+03  0.00000000000E+00 0.  1.
      99926    2    1    2    0    0 -0.14210854715E-13 -0.35527136788E-14 -0.13063336813E+03  0.47472970784E+03  0.45640247439E+03 0.  0.
      99925    2    3    3    0    0  0.11225927088E+03  0.22661031842E+02 -0.81170224877E+02  0.29806681727E+03  0.26294401665E+03 0.  0.
         25    1    4    4    0    0  0.97505257505E+02  0.15660770869E+01 -0.36381249366E+02  0.16272931894E+03  0.12509000000E+03 0.  0.
         25    1    3    3    0    0 -0.11225927088E+03 -0.22661031842E+02 -0.49463143251E+02  0.17666289056E+03  0.12509000000E+03 0.  0.
         25    1    4    4    0    0  0.14754013370E+02  0.21094954755E+02 -0.44788975511E+02  0.13533749833E+03  0.12509000000E+03 0.  0.
<mgrwt>
<rscale>  2 0.45640247E+03</rscale>
<asrwt>0</asrwt>
<pdfrwt beam="1">  1       21 0.25301201E-01 0.45640247E+03</pdfrwt>
<pdfrwt beam="2">  1       21 0.44511991E-01 0.45640247E+03</pdfrwt>
<totfact> 0.66344370E+04</totfact>
</mgrwt>
</event>
<event>
 7    0  0.4748297E-002  0.4530910E+03  0.7546771E-02  0.1026804E+00
         21   -1    0    0  502  501  0.00000000000E+00  0.00000000000E+00  0.58539056667E+03  0.58539056667E+03  0.00000000000E+00 0. -1.
         21   -1    0    0  501  502 -0.00000000000E+00 -0.00000000000E+00 -0.87672841922E+02  0.87672841922E+02  0.00000000000E+00 0. -1.
      99926    2    1    2    0    0  0.00000000000E+00  0.00000000000E+00  0.49771772475E+03  0.67306340859E+03  0.45309096047E+03 0.  0.
      99925    2    3    3    0    0  0.27350854829E+02 -0.96135764134E+02  0.38715495580E+03  0.47848234995E+03  0.26280457569E+03 0.  0.
         25    1    4    4    0    0  0.33828123002E+02 -0.45981928646E+02  0.25449350059E+03  0.28926308027E+03  0.12509000000E+03 0.  0.
         25    1    4    4    0    0 -0.64772681734E+01 -0.50153835488E+02  0.13266145521E+03  0.18921926968E+03  0.12509000000E+03 0.  0.
         25    1    3    3    0    0 -0.27350854829E+02  0.96135764134E+02  0.11056276894E+03  0.19458105864E+03  0.12509000000E+03 0.  0.
<mgrwt>
<rscale>  2 0.45309096E+03</rscale>
<asrwt>0</asrwt>
<pdfrwt beam="1">  1       21 0.86086846E-01 0.45309096E+03</pdfrwt>
<pdfrwt beam="2">  1       21 0.12893065E-01 0.45309096E+03</pdfrwt>
<totfact> 0.55216309E+04</totfact>
</mgrwt>
</event>
<event>
 6    0  0.4748297E-002  0.4569825E+03  0.7546771E-02  0.1025660E+00
         21   -1    0    0  502  501  0.00000000000E+00  0.00000000000E+00  0.79707486195E+03  0.79707486195E+03  0.00000000000E+00 0. -1.
         21   -1    0    0  501  502 -0.00000000000E+00 -0.00000000000E+00 -0.65499816920E+02  0.65499816920E+02  0.00000000000E+00 0. -1.
      99926    2    1    2    0    0  0.00000000000E+00 -0.17763568394E-14  0.73157504503E+03  0.86257467887E+03  0.45698252714E+03 0.  0.
         25    1    3    3    0    0 -0.10057407269E+03  0.37488457880E+02  0.19746346231E+03  0.25721558199E+03  0.12509000000E+03 0.  0.
         25    1    3    3    0    0  0.27161540165E+02 -0.52698918366E+02  0.28077329543E+03  0.31304325067E+03  0.12509000000E+03 0.  0.
         25    1    3    3    0    0  0.73412532522E+02  0.15210460486E+02  0.25333828729E+03  0.29231584621E+03  0.12509000000E+03 0.  0.
<mgrwt>
<rscale>  2 0.45698253E+03</rscale>
<asrwt>0</asrwt>
<pdfrwt beam="1">  1       21 0.11721689E+00 0.45698253E+03</pdfrwt>
<pdfrwt beam="2">  1       21 0.96323265E-02 0.45698253E+03</pdfrwt>
<totfact> 0.44190785E+04</totfact>
</mgrwt>
</event>
<event>
 7    0  0.4748297E-002  0.4479961E+03  0.7546771E-02  0.1028321E+00
         21   -1    0    0  502  501  0.00000000000E+00  0.00000000000E+00  0.71577522183E+02  0.71577522183E+02  0.00000000000E+00 0. -1.
         21   -1    0    0  501  502 -0.00000000000E+00 -0.00000000000E+00 -0.70099010444E+03  0.70099010444E+03  0.00000000000E+00 0. -1.
      99926    2    1    2    0    0  0.00000000000E+00 -0.14210854715E-13 -0.62941258226E+03  0.77256762662E+03  0.44799613726E+03 0.  0.
      99925    2    3    3    0    0  0.12073380610E+02  0.63875864367E+02 -0.25338385626E+03  0.37098201502E+03  0.26305585774E+03 0.  0.
         25    1    4    4    0    0  0.55137919551E+01 -0.98858272445E+01 -0.11813635969E+03  0.17242922914E+03  0.12509000000E+03 0.  0.
         25    1    4    4    0    0  0.65595886550E+01  0.73761691611E+02 -0.13524749657E+03  0.19855278588E+03  0.12509000000E+03 0.  0.
         25    1    3    3    0    0 -0.12073380610E+02 -0.63875864367E+02 -0.37602872600E+03  0.40158561160E+03  0.12509000000E+03 0.  0.
<mgrwt>
<rscale>  2 0.44799614E+03</rscale>
<asrwt>0</asrwt>
<pdfrwt beam="1">  1       21 0.10526106E-01 0.44799614E+03</pdfrwt>
<pdfrwt beam="2">  1       21 0.10308678E+00 0.44799614E+03</pdfrwt>
<totfact> 0.51916351E+04</totfact>
</mgrwt>
</event>
<event>
 7    0  0.4748297E-002  0.4898391E+03  0.7546771E-02  0.1016466E+00
         21   -1    0    0  502  501  0.00000000000E+00  0.00000000000E+00  0.51806517414E+03  0.51806517414E+03  0.00000000000E+00 0. -1.
         21   -1    0    0  501  502 -0.00000000000E+00 -0.00000000000E+00 -0.11578774274E+03  0.11578774274E+03  0.00000000000E+00 0. -1.
      99926    2    1    2    0    0  0.00000000000E+00 -0.71054273576E-14  0.40227743141E+03  0.63385291688E+03  0.48983914545E+03 0.  0.
      99925    2    3    3    0    0 -0.76501369060E+02 -0.34228013315E+02  0.39654509729E+03  0.48317317664E+03  0.26302906318E+03 0.  0.
         25    1    3    3    0    0  0.76501369060E+02  0.34228013315E+02  0.57323341200E+01  0.15067974024E+03  0.12509000000E+03 0.  0.
         25    1    4    4    0    0 -0.34175817863E+02  0.21382532058E+02  0.16600004267E+03  0.21172794211E+03  0.12509000000E+03 0.  0.
         25    1    4    4    0    0 -0.42325551197E+02 -0.55610545373E+02  0.23054505462E+03  0.27144523453E+03  0.12509000000E+03 0.  0.
<mgrwt>
<rscale>  2 0.48983915E+03</rscale>
<asrwt>0</asrwt>
<pdfrwt beam="1">  1       21 0.76186054E-01 0.48983915E+03</pdfrwt>
<pdfrwt beam="2">  1       21 0.17027609E-01 0.48983915E+03</pdfrwt>
<totfact> 0.43410754E+04</totfact>
</mgrwt>
</event>
<event>
 7    0  0.4748297E-002  0.4550265E+03  0.7546771E-02  0.1026234E+00
         21   -1    0    0  502  501  0.00000000000E+00  0.00000000000E+00  0.15212032218E+03  0.15212032218E+03  0.00000000000E+00 0. -1.
         21   -1    0    0  501  502 -0.00000000000E+00 -0.00000000000E+00 -0.34027197269E+03  0.34027197269E+03  0.00000000000E+00 0. -1.
      99926    2    1    2    0    0  0.00000000000E+00  0.00000000000E+00 -0.18815165052E+03  0.49239229487E+03  0.45502651401E+03 0.  0.
      99925    2    3    3    0    0  0.60732765182E+02 -0.72202735655E+02 -0.18610415822E+03  0.33569703608E+03  0.26297535726E+03 0.  0.
         25    1    4    4    0    0  0.69029309282E+01 -0.69226693249E+02 -0.92499976279E+02  0.17042223806E+03  0.12509000000E+03 0.  0.
         25    1    4    4    0    0  0.53829834254E+02 -0.29760424057E+01 -0.93604181941E+02  0.16527479802E+03  0.12509000000E+03 0.  0.
         25    1    3    3    0    0 -0.60732765182E+02  0.72202735655E+02 -0.20474922981E+01  0.15669525879E+03  0.12509000000E+03 0.  0.
<mgrwt>
<rscale>  2 0.45502651E+03</rscale>
<asrwt>0</asrwt>
<pdfrwt beam="1">  1       21 0.22370636E-01 0.45502651E+03</pdfrwt>
<pdfrwt beam="2">  1       21 0.50039995E-01 0.45502651E+03</pdfrwt>
<totfact> 0.65794645E+04</totfact>
</mgrwt>
</event>
<event>
 7    0  0.4748297E-002  0.4615304E+03  0.7546771E-02  0.1024338E+00
         21   -1    0    0  502  501  0.00000000000E+00  0.00000000000E+00  0.40841865699E+03  0.40841865699E+03  0.00000000000E+00 0.  1.
         21   -1    0    0  501  502 -0.00000000000E+00 -0.00000000000E+00 -0.13038723098E+03  0.13038723098E+03  0.00000000000E+00 0.  1.
      99926    2    1    2    0    0  0.00000000000E+00  0.00000000000E+00  0.27803142601E+03  0.53880588796E+03  0.46153040101E+03 0.  0.
      99925    2    3    3    0    0 -0.11613534850E+03  0.18664346450E+02  0.19669498304E+03  0.34880877731E+03  0.26295031808E+03 0.  0.
         25    1    4    4    0    0 -0.46672837068E+02 -0.91358241521E+01  0.13635446592E+03  0.19105461387E+03  0.12509000000E+03 0.  0.
         25    1    4    4    0    0 -0.69462511428E+02  0.27800170602E+02  0.60340517117E+02  0.15775416345E+03  0.12509000000E+03 0.  0.
         25    1    3    3    0    0  0.11613534850E+03 -0.18664346450E+02  0.81336442975E+02  0.18999711065E+03  0.12509000000E+03 0.  0.
<mgrwt>
<rscale>  2 0.46153040E+03</rscale>
<asrwt>0</asrwt>
<pdfrwt beam="1">  1       21 0.60061567E-01 0.46153040E+03</pdfrwt>
<pdfrwt beam="2">  1       21 0.19174593E-01 0.46153040E+03</pdfrwt>
<totfact> 0.59476069E+04</totfact>
</mgrwt>
</event>
<event>
 7    0  0.4748297E-002  0.4546398E+03  0.7546771E-02  0.1026347E+00
         21   -1    0    0  502  501  0.00000000000E+00  0.00000000000E+00  0.34873121813E+03  0.34873121813E+03  0.00000000000E+00 0.  1.
         21   -1    0    0  501  502 -0.00000000000E+00 -0.00000000000E+00 -0.14817809684E+03  0.14817809684E+03  0.00000000000E+00 0.  1.
      99926    2    1    2    0    0  0.00000000000E+00 -0.14210854715E-13  0.20055312129E+03  0.49690931497E+03  0.45463976162E+03 0.  0.
      99925    2    3    3    0    0  0.91618710520E+01  0.10866121505E+03  0.95951869778E+02  0.30074578764E+03  0.26334401062E+03 0.  0.
         25    1    4    4    0    0  0.13205472366E+02  0.84490206288E+02  0.82605754405E+02  0.17258099032E+03  0.12509000000E+03 0.  0.
         25    1    3    3    0    0 -0.91618710520E+01 -0.10866121505E+03  0.10460125151E+03  0.19616352734E+03  0.12509000000E+03 0.  0.
         25    1    4    4    0    0 -0.40436013138E+01  0.24171008766E+02  0.13346115373E+02  0.12816479732E+03  0.12509000000E+03 0.  0.
<mgrwt>
<rscale>  2 0.45463976E+03</rscale>
<asrwt>0</asrwt>
<pdfrwt beam="1">  1       21 0.51284003E-01 0.45463976E+03</pdfrwt>
<pdfrwt beam="2">  1       21 0.21790897E-01 0.45463976E+03</pdfrwt>
<totfact> 0.65675951E+04</totfact>
</mgrwt>
</event>
<event>
 7    0  0.4748297E-002  0.4502678E+03  0.7546771E-02  0.1027642E+00
         21   -1    0    0  502  501  0.00000000000E+00  0.00000000000E+00  0.15291410430E+03  0.15291410430E+03  0.00000000000E+00 0.  1.
         21   -1    0    0  501  502 -0.00000000000E+00 -0.00000000000E+00 -0.33146241970E+03  0.33146241970E+03  0.00000000000E+00 0.  1.
      99926    2    1    2    0    0 -0.35527136788E-14  0.00000000000E+00 -0.17854831540E+03  0.48437652400E+03  0.45026782704E+03 0.  0.
      99925    2    3    3    0    0  0.19533609978E+02 -0.88514645691E+02 -0.48640343523E+02  0.28253501767E+03  0.26314206955E+03 0.  0.
         25    1    4    4    0    0  0.42323823823E+02 -0.26065118473E+02 -0.40839218066E+02  0.14066288173E+03  0.12509000000E+03 0.  0.
         25    1    3    3    0    0 -0.19533609978E+02  0.88514645691E+02 -0.12990797188E+03  0.20184150633E+03  0.12509000000E+03 0.  0.
         25    1    4    4    0    0 -0.22790213845E+02 -0.62449527217E+02 -0.78011254565E+01  0.14187213594E+03  0.12509000000E+03 0.  0.
<mgrwt>
<rscale>  2 0.45026783E+03</rscale>
<asrwt>0</asrwt>
<pdfrwt beam="1">  1       21 0.22487369E-01 0.45026783E+03</pdfrwt>
<pdfrwt beam="2">  1       21 0.48744473E-01 0.45026783E+03</pdfrwt>
<totfact> 0.68936414E+04</totfact>
</mgrwt>
</event>
<event>
 7    0  0.4748297E-002  0.4550843E+03  0.7546771E-02  0.1026217E+00
         21   -1    0    0  502  501  0.00000000000E+00  0.00000000000E+00  0.50513742071E+02  0.50513742071E+02  0.00000000000E+00 0.  1.
         21   -1    0    0  501  502 -0.00000000000E+00 -0.00000000000E+00 -0.10249771610E+04  0.10249771610E+04  0.00000000000E+00 0.  1.
      99926    2    1    2    0    0 -0.35527136788E-14  0.00000000000E+00 -0.97446341895E+03  0.10754909031E+04  0.45508430841E+03 0.  0.
      99925    2    3    3    0    0  0.18386412514E+02  0.85233050297E+02 -0.78386176639E+03  0.83140233088E+03  0.26303580355E+03 0.  0.
         25    1    4    4    0    0 -0.20035429861E+02  0.62490550998E+02 -0.46504560772E+03  0.48602614413E+03  0.12509000000E+03 0.  0.
         25    1    3    3    0    0 -0.18386412514E+02 -0.85233050297E+02 -0.19060165256E+03  0.24408857222E+03  0.12509000000E+03 0.  0.
         25    1    4    4    0    0  0.38421842375E+02  0.22742499299E+02 -0.31881615867E+03  0.34537618675E+03  0.12509000000E+03 0.  0.
<mgrwt>
<rscale>  2 0.45508431E+03</rscale>
<asrwt>0</asrwt>
<pdfrwt beam="1">  1       21 0.74284914E-02 0.45508431E+03</pdfrwt>
<pdfrwt beam="2">  1       21 0.15073194E+00 0.45508431E+03</pdfrwt>
<totfact> 0.36331826E+04</totfact>
</mgrwt>
</event>
<event>
 7    0  0.4748297E-002  0.4664838E+03  0.7546771E-02  0.1022917E+00
         21   -1    0    0  502  501  0.00000000000E+00  0.00000000000E+00  0.20145532232E+03  0.20145532232E+03  0.00000000000E+00 0. -1.
         21   -1    0    0  501  502 -0.00000000000E+00 -0.00000000000E+00 -0.27004386609E+03  0.27004386609E+03  0.00000000000E+00 0. -1.
      99926    2    1    2    0    0  0.00000000000E+00  0.00000000000E+00 -0.68588543776E+02  0.47149918841E+03  0.46648375785E+03 0.  0.
      99925    2    3    3    0    0  0.12682341998E+02 -0.62753305746E+02 -0.14965727903E+03  0.30926951444E+03  0.26296675116E+03 0.  0.
         25    1    3    3    0    0 -0.12682341998E+02  0.62753305746E+02  0.81068735253E+02  0.16222967397E+03  0.12509000000E+03 0.  0.
         25    1    4    4    0    0 -0.31533031472E+02 -0.25278514876E+02 -0.57781615121E+02  0.14359512016E+03  0.12509000000E+03 0.  0.
         25    1    4    4    0    0  0.44215373470E+02 -0.37474790871E+02 -0.91875663908E+02  0.16567439428E+03  0.12509000000E+03 0.  0.
<mgrwt>
<rscale>  2 0.46648376E+03</rscale>
<asrwt>0</asrwt>
<pdfrwt beam="1">  1       21 0.29625783E-01 0.46648376E+03</pdfrwt>
<pdfrwt beam="2">  1       21 0.39712333E-01 0.46648376E+03</pdfrwt>
<totfact> 0.61519618E+04</totfact>
</mgrwt>
</event>
<event>
 7    0  0.4748297E-002  0.4575526E+03  0.7546771E-02  0.1025493E+00
         21   -1    0    0  502  501  0.00000000000E+00  0.00000000000E+00  0.10715700854E+03  0.10715700854E+03  0.00000000000E+00 0. -1.
         21   -1    0    0  501  502 -0.00000000000E+00 -0.00000000000E+00 -0.48842909702E+03  0.48842909702E+03  0.00000000000E+00 0. -1.
      99926    2    1    2    0    0  0.00000000000E+00 -0.14210854715E-13 -0.38127208848E+03  0.59558610556E+03  0.45755262394E+03 0.  0.
      99925    2    3    3    0    0  0.95797757525E+02  0.64087483991E+02 -0.22874053922E+03  0.36711773232E+03  0.26299958012E+03 0.  0.
         25    1    4    4    0    0  0.35799429569E+02 -0.77523378338E+01 -0.11561793012E+03  0.17423177599E+03  0.12509000000E+03 0.  0.
         25    1    4    4    0    0  0.59998327957E+02  0.71839821825E+02 -0.11312260910E+03  0.19288595632E+03  0.12509000000E+03 0.  0.
         25    1    3    3    0    0 -0.95797757525E+02 -0.64087483991E+02 -0.15253154926E+03  0.22846837324E+03  0.12509000000E+03 0.  0.
<mgrwt>
<rscale>  2 0.45755262E+03</rscale>
<asrwt>0</asrwt>
<pdfrwt beam="1">  1       21 0.15758384E-01 0.45755262E+03</pdfrwt>
<pdfrwt beam="2">  1       21 0.71827809E-01 0.45755262E+03</pdfrwt>
<totfact> 0.57776476E+04</totfact>
</mgrwt>
</event>
<event>
 7    0  0.4748297E-002  0.4486649E+03  0.7546771E-02  0.1028121E+00
         21   -1    0    0  502  501  0.00000000000E+00  0.00000000000E+00  0.13215545705E+03  0.13215545705E+03  0.00000000000E+00 0.  1.
         21   -1    0    0  501  502 -0.00000000000E+00 -0.00000000000E+00 -0.38080188754E+03  0.38080188754E+03  0.00000000000E+00 0.  1.
      99926    2    1    2    0    0  0.00000000000E+00  0.00000000000E+00 -0.24864643049E+03  0.51295734459E+03  0.44866489719E+03 0.  0.
      99925    2    3    3    0    0 -0.95397045287E+02  0.48637266979E+02 -0.15884021870E+03  0.32539710423E+03  0.26303399091E+03 0.  0.
         25    1    4    4    0    0 -0.30442459578E+02  0.32181733587E+02 -0.35470095593E+02  0.13736099557E+03  0.12509000000E+03 0.  0.
         25    1    3    3    0    0  0.95397045287E+02 -0.48637266979E+02 -0.89806211784E+02  0.18756024036E+03  0.12509000000E+03 0.  0.
         25    1    4    4    0    0 -0.64954585708E+02  0.16455533392E+02 -0.12337012311E+03  0.18803610866E+03  0.12509000000E+03 0.  0.
<mgrwt>
<rscale>  2 0.44866490E+03</rscale>
<asrwt>0</asrwt>
<pdfrwt beam="1">  1       21 0.19434627E-01 0.44866490E+03</pdfrwt>
<pdfrwt beam="2">  1       21 0.56000276E-01 0.44866490E+03</pdfrwt>
<totfact> 0.67709695E+04</totfact>
</mgrwt>
</event>
<event>
 7    0  0.4748297E-002  0.4559431E+03  0.7546771E-02  0.1025964E+00
         21   -1    0    0  502  501  0.00000000000E+00  0.00000000000E+00  0.16820323477E+04  0.16820323477E+04  0.00000000000E+00 0. -1.
         21   -1    0    0  501  502 -0.00000000000E+00 -0.00000000000E+00 -0.30897763213E+02  0.30897763213E+02  0.00000000000E+00 0. -1.
      99926    2    1    2    0    0 -0.44408920985E-15  0.14210854715E-13  0.16511345845E+04  0.17129301109E+04  0.45594314205E+03 0.  0.
      99925    2    3    3    0    0  0.32975472480E+01  0.11373014191E+03  0.10057208953E+04  0.10457331705E+04  0.26294091668E+03 0.  0.
         25    1    3    3    0    0 -0.32975472480E+01 -0.11373014191E+03  0.64541368917E+03  0.66719694039E+03  0.12509000000E+03 0.  0.
         25    1    4    4    0    0  0.24816412739E+02  0.92411928344E+02  0.57736568997E+03  0.59846007962E+03  0.12509000000E+03 0.  0.
         25    1    4    4    0    0 -0.21518865491E+02  0.21318213561E+02  0.42835520537E+03  0.44727309092E+03  0.12509000000E+03 0.  0.
<mgrwt>
<rscale>  2 0.45594314E+03</rscale>
<asrwt>0</asrwt>
<pdfrwt beam="1">  1       21 0.24735764E+00 0.45594314E+03</pdfrwt>
<pdfrwt beam="2">  1       21 0.45437899E-02 0.45594314E+03</pdfrwt>
<totfact> 0.18855574E+04</totfact>
</mgrwt>
</event>
<event>
 7    0  0.4748297E-002  0.4504971E+03  0.7546771E-02  0.1027574E+00
         21   -1    0    0  502  501  0.00000000000E+00  0.00000000000E+00  0.16765871576E+03  0.16765871576E+03  0.00000000000E+00 0. -1.
         21   -1    0    0  501  502 -0.00000000000E+00 -0.00000000000E+00 -0.30262011073E+03  0.30262011073E+03  0.00000000000E+00 0. -1.
      99926    2    1    2    0    0  0.00000000000E+00  0.00000000000E+00 -0.13496139497E+03  0.47027882649E+03  0.45049705494E+03 0.  0.
      99925    2    3    3    0    0  0.64180207093E+02 -0.37056502902E+02 -0.16866740349E+03  0.32102774107E+03  0.26290270852E+03 0.  0.
         25    1    4    4    0    0  0.75777810808E+01 -0.42372144808E+02 -0.10822552219E+03  0.17091838162E+03  0.12509000000E+03 0.  0.
         25    1    4    4    0    0  0.56602426012E+02  0.53156419057E+01 -0.60441881302E+02  0.15010935945E+03  0.12509000000E+03 0.  0.
         25    1    3    3    0    0 -0.64180207093E+02  0.37056502902E+02  0.33706008518E+02  0.14925108542E+03  0.12509000000E+03 0.  0.
<mgrwt>
<rscale>  2 0.45049705E+03</rscale>
<asrwt>0</asrwt>
<pdfrwt beam="1">  1       21 0.24655694E-01 0.45049705E+03</pdfrwt>
<pdfrwt beam="2">  1       21 0.44502957E-01 0.45049705E+03</pdfrwt>
<totfact> 0.69878488E+04</totfact>
</mgrwt>
</event>
<event>
 7    0  0.4748297E-002  0.3905223E+03  0.7546771E-02  0.1047112E+00
         21   -1    0    0  502  501  0.00000000000E+00  0.00000000000E+00  0.45775095966E+02  0.45775095966E+02  0.00000000000E+00 0. -1.
         21   -1    0    0  501  502 -0.00000000000E+00 -0.00000000000E+00 -0.83291832599E+03  0.83291832599E+03  0.00000000000E+00 0. -1.
      99926    2    1    2    0    0  0.88817841970E-15 -0.17763568394E-14 -0.78714323002E+03  0.87869342195E+03  0.39052229797E+03 0.  0.
      99925    2    3    3    0    0  0.73534493759E+01  0.13573698935E+02 -0.49726931504E+03  0.56260369861E+03  0.26269341728E+03 0.  0.
         25    1    3    3    0    0 -0.73534493759E+01 -0.13573698935E+02 -0.28987391498E+03  0.31608972335E+03  0.12509000000E+03 0.  0.
         25    1    4    4    0    0 -0.10715809773E+02  0.28742522111E+02 -0.31471441756E+03  0.34004945799E+03  0.12509000000E+03 0.  0.
         25    1    4    4    0    0  0.18069259149E+02 -0.15168823176E+02 -0.18255489748E+03  0.22255424062E+03  0.12509000000E+03 0.  0.
<mgrwt>
<rscale>  2 0.39052230E+03</rscale>
<asrwt>0</asrwt>
<pdfrwt beam="1">  1       21 0.67316321E-02 0.39052230E+03</pdfrwt>
<pdfrwt beam="2">  1       21 0.12248798E+00 0.39052230E+03</pdfrwt>
<totfact> 0.75783646E+04</totfact>
</mgrwt>
</event>
<event>
 7    0  0.4748297E-002  0.4206961E+03  0.7546771E-02  0.1036840E+00
         21   -1    0    0  502  501  0.00000000000E+00  0.00000000000E+00  0.95065210961E+02  0.95065210961E+02  0.00000000000E+00 0.  1.
         21   -1    0    0  501  502 -0.00000000000E+00 -0.00000000000E+00 -0.46543107687E+03  0.46543107687E+03  0.00000000000E+00 0.  1.
      99926    2    1    2    0    0  0.14210854715E-13  0.00000000000E+00 -0.37036586591E+03  0.56049628783E+03  0.42069610652E+03 0.  0.
      99925    2    3    3    0    0 -0.76071969165E+02 -0.59345138540E+01 -0.23108495681E+03  0.35833584984E+03  0.26302501986E+03 0.  0.
         25    1    4    4    0    0 -0.13377929837E+02 -0.17493331371E+02 -0.14865948594E+03  0.19553039791E+03  0.12509000000E+03 0.  0.
         25    1    3    3    0    0  0.76071969165E+02  0.59345138540E+01 -0.13928090910E+03  0.20216043799E+03  0.12509000000E+03 0.  0.
         25    1    4    4    0    0 -0.62694039328E+02  0.11558817517E+02 -0.82425470873E+02  0.16280545193E+03  0.12509000000E+03 0.  0.
<mgrwt>
<rscale>  2 0.42069611E+03</rscale>
<asrwt>0</asrwt>
<pdfrwt beam="1">  1       21 0.13980179E-01 0.42069611E+03</pdfrwt>
<pdfrwt beam="2">  1       21 0.68445744E-01 0.42069611E+03</pdfrwt>
<totfact> 0.81024057E+04</totfact>
</mgrwt>
</event>
<event>
 7    0  0.4748297E-002  0.3950908E+03  0.7546771E-02  0.1045493E+00
         21   -1    0    0  502  501  0.00000000000E+00  0.00000000000E+00  0.56023674041E+02  0.56023674041E+02  0.00000000000E+00 0.  1.
         21   -1    0    0  501  502 -0.00000000000E+00 -0.00000000000E+00 -0.69656596682E+03  0.69656596682E+03  0.00000000000E+00 0.  1.
      99926    2    1    2    0    0  0.00000000000E+00  0.00000000000E+00 -0.64054229278E+03  0.75258964086E+03  0.39509079804E+03 0.  0.
      99925    2    3    3    0    0 -0.22771402405E+02 -0.12371114049E+02 -0.37924941078E+03  0.46174078060E+03  0.26211228827E+03 0.  0.
         25    1    4    4    0    0  0.87943525389E+01 -0.14315843359E+02 -0.24464995723E+03  0.27528783787E+03  0.12509000000E+03 0.  0.
         25    1    3    3    0    0  0.22771402405E+02  0.12371114049E+02 -0.26129288200E+03  0.29084886026E+03  0.12509000000E+03 0.  0.
         25    1    4    4    0    0 -0.31565754944E+02  0.19447293099E+01 -0.13459945356E+03  0.18645294274E+03  0.12509000000E+03 0.  0.
<mgrwt>
<rscale>  2 0.39509080E+03</rscale>
<asrwt>0</asrwt>
<pdfrwt beam="1">  1       21 0.82387757E-02 0.39509080E+03</pdfrwt>
<pdfrwt beam="2">  1       21 0.10243617E+00 0.39509080E+03</pdfrwt>
<totfact> 0.82721124E+04</totfact>
</mgrwt>
</event>
<event>
 7    0  0.4748297E-002  0.4563689E+03  0.7546771E-02  0.1025840E+00
         21   -1    0    0  502  501  0.00000000000E+00  0.00000000000E+00  0.33585137587E+03  0.33585137587E+03  0.00000000000E+00 0. -1.
         21   -1    0    0  501  502 -0.00000000000E+00 -0.00000000000E+00 -0.15503327702E+03  0.15503327702E+03  0.00000000000E+00 0. -1.
      99926    2    1    2    0    0  0.00000000000E+00 -0.14210854715E-13  0.18081809885E+03  0.49088465289E+03  0.45636888322E+03 0.  0.
      99925    2    3    3    0    0 -0.77015714270E+02 -0.74107906121E+02  0.15760601224E+03  0.32472295135E+03  0.26302459590E+03 0.  0.
         25    1    4    4    0    0 -0.52695347052E+02  0.14824060545E+01  0.74832368300E+02  0.15500447921E+03  0.12509000000E+03 0.  0.
         25    1    4    4    0    0 -0.24320367218E+02 -0.75590312175E+02  0.82773643937E+02  0.16971847214E+03  0.12509000000E+03 0.  0.
         25    1    3    3    0    0  0.77015714270E+02  0.74107906121E+02  0.23212086611E+02  0.16616170154E+03  0.12509000000E+03 0.  0.
<mgrwt>
<rscale>  2 0.45636888E+03</rscale>
<asrwt>0</asrwt>
<pdfrwt beam="1">  1       21 0.49389908E-01 0.45636888E+03</pdfrwt>
<pdfrwt beam="2">  1       21 0.22799011E-01 0.45636888E+03</pdfrwt>
<totfact> 0.65204434E+04</totfact>
</mgrwt>
</event>
<event>
 7    0  0.4748297E-002  0.4500596E+03  0.7546771E-02  0.1027704E+00
         21   -1    0    0  502  501  0.00000000000E+00  0.00000000000E+00  0.44441400982E+03  0.44441400982E+03  0.00000000000E+00 0.  1.
         21   -1    0    0  501  502 -0.00000000000E+00 -0.00000000000E+00 -0.11394421457E+03  0.11394421457E+03  0.00000000000E+00 0.  1.
      99926    2    1    2    0    0  0.00000000000E+00  0.17763568394E-14  0.33046979524E+03  0.55835822439E+03  0.45005957514E+03 0.  0.
      99925    2    3    3    0    0 -0.53579905999E+02 -0.33653128885E+01  0.92084073815E+02  0.28384521571E+03  0.26307127964E+03 0.  0.
         25    1    4    4    0    0  0.13694959073E+00 -0.30346553601E+02  0.56495115636E+02  0.14057075891E+03  0.12509000000E+03 0.  0.
         25    1    4    4    0    0 -0.53716855590E+02  0.26981240713E+02  0.35588958179E+02  0.14327445679E+03  0.12509000000E+03 0.  0.
         25    1    3    3    0    0  0.53579905999E+02  0.33653128885E+01  0.23838572143E+03  0.27451300869E+03  0.12509000000E+03 0.  0.
<mgrwt>
<rscale>  2 0.45005958E+03</rscale>
<asrwt>0</asrwt>
<pdfrwt beam="1">  1       21 0.65355001E-01 0.45005958E+03</pdfrwt>
<pdfrwt beam="2">  1       21 0.16756502E-01 0.45005958E+03</pdfrwt>
<totfact> 0.63773481E+04</totfact>
</mgrwt>
</event>
<event>
 7    0  0.4748297E-002  0.4525039E+03  0.7546771E-02  0.1026978E+00
         21   -1    0    0  502  501  0.00000000000E+00  0.00000000000E+00  0.13141524935E+03  0.13141524935E+03  0.00000000000E+00 0.  1.
         21   -1    0    0  501  502 -0.00000000000E+00 -0.00000000000E+00 -0.38952826100E+03  0.38952826100E+03  0.00000000000E+00 0.  1.
      99926    2    1    2    0    0 -0.31086244690E-14  0.00000000000E+00 -0.25811301166E+03  0.52094351035E+03  0.45250393831E+03 0.  0.
      99925    2    3    3    0    0 -0.23000045949E+01  0.37634770134E+02 -0.42633664796E+02  0.26895040932E+03  0.26285932997E+03 0.  0.
         25    1    4    4    0    0 -0.41336611656E+02  0.17047842759E+02 -0.24226197106E+02  0.13503244474E+03  0.12509000000E+03 0.  0.
         25    1    4    4    0    0  0.39036607061E+02  0.20586927375E+02 -0.18407467691E+02  0.13391796458E+03  0.12509000000E+03 0.  0.
         25    1    3    3    0    0  0.23000045949E+01 -0.37634770134E+02 -0.21547934686E+03  0.25199310103E+03  0.12509000000E+03 0.  0.
<mgrwt>
<rscale>  2 0.45250394E+03</rscale>
<asrwt>0</asrwt>
<pdfrwt beam="1">  1       21 0.19325772E-01 0.45250394E+03</pdfrwt>
<pdfrwt beam="2">  1       21 0.57283568E-01 0.45250394E+03</pdfrwt>
<totfact> 0.65102472E+04</totfact>
</mgrwt>
</event>
<event>
 7    0  0.4748297E-002  0.4586611E+03  0.7546771E-02  0.1025170E+00
         21   -1    0    0  502  501  0.00000000000E+00  0.00000000000E+00  0.25619137806E+03  0.25619137806E+03  0.00000000000E+00 0. -1.
         21   -1    0    0  501  502 -0.00000000000E+00 -0.00000000000E+00 -0.20528601577E+03  0.20528601577E+03  0.00000000000E+00 0. -1.
      99926    2    1    2    0    0  0.00000000000E+00  0.00000000000E+00  0.50905362292E+02  0.46147739384E+03  0.45866112666E+03 0.  0.
      99925    2    3    3    0    0  0.20795991909E+02  0.47583872056E+02  0.13655902170E+03  0.30122523120E+03  0.26342280719E+03 0.  0.
         25    1    4    4    0    0  0.31144342220E+02 -0.98416916986E+01  0.51975807044E+02  0.13934066731E+03  0.12509000000E+03 0.  0.
         25    1    3    3    0    0 -0.20795991909E+02 -0.47583872056E+02 -0.85653659404E+02  0.16025216263E+03  0.12509000000E+03 0.  0.
         25    1    4    4    0    0 -0.10348350311E+02  0.57425563755E+02  0.84583214652E+02  0.16188456390E+03  0.12509000000E+03 0.  0.
<mgrwt>
<rscale>  2 0.45866113E+03</rscale>
<asrwt>0</asrwt>
<pdfrwt beam="1">  1       21 0.37675203E-01 0.45866113E+03</pdfrwt>
<pdfrwt beam="2">  1       21 0.30189120E-01 0.45866113E+03</pdfrwt>
<totfact> 0.66121162E+04</totfact>
</mgrwt>
</event>
<event>
 7    0  0.4748297E-002  0.4511701E+03  0.7546771E-02  0.1027374E+00
         21   -1    0    0  502  501  0.00000000000E+00  0.00000000000E+00  0.47138919980E+03  0.47138919980E+03  0.00000000000E+00 0. -1.
         21   -1    0    0  501  502 -0.00000000000E+00 -0.00000000000E+00 -0.10795455545E+03  0.10795455545E+03  0.00000000000E+00 0. -1.
      99926    2    1    2    0    0  0.00000000000E+00  0.00000000000E+00  0.36343464435E+03  0.57934375526E+03  0.45117008549E+03 0.  0.
      99925    2    3    3    0    0 -0.10707698370E+03  0.45816664909E+01  0.20010576655E+03  0.34737327754E+03  0.26294372790E+03 0.  0.
         25    1    4    4    0    0 -0.21680566204E+02  0.10360637651E+02  0.59345266576E+02  0.14052316011E+03  0.12509000000E+03 0.  0.
         25    1    3    3    0    0  0.10707698370E+03 -0.45816664909E+01  0.16332887780E+03  0.23197047771E+03  0.12509000000E+03 0.  0.
         25    1    4    4    0    0 -0.85396417492E+02 -0.57789711598E+01  0.14076049997E+03  0.20685011743E+03  0.12509000000E+03 0.  0.
<mgrwt>
<rscale>  2 0.45117009E+03</rscale>
<asrwt>0</asrwt>
<pdfrwt beam="1">  1       21 0.69321940E-01 0.45117009E+03</pdfrwt>
<pdfrwt beam="2">  1       21 0.15875670E-01 0.45117009E+03</pdfrwt>
<totfact> 0.61818687E+04</totfact>
</mgrwt>
</event>
<event>
 7    0  0.4748297E-002  0.4528305E+03  0.7546771E-02  0.1026881E+00
         21   -1    0    0  502  501  0.00000000000E+00  0.00000000000E+00  0.22489028093E+03  0.22489028093E+03  0.00000000000E+00 0. -1.
         21   -1    0    0  501  502 -0.00000000000E+00 -0.00000000000E+00 -0.22795060675E+03  0.22795060675E+03  0.00000000000E+00 0. -1.
      99926    2    1    2    0    0  0.00000000000E+00  0.00000000000E+00 -0.30603258156E+01  0.45284088768E+03  0.45283054663E+03 0.  0.
      99925    2    3    3    0    0 -0.10577252558E+03  0.29820289463E+02  0.14747908108E+02  0.28538427203E+03  0.26296312497E+03 0.  0.
         25    1    3    3    0    0  0.10577252558E+03 -0.29820289463E+02 -0.17808233924E+02  0.16745661566E+03  0.12509000000E+03 0.  0.
         25    1    4    4    0    0 -0.48723072995E+02 -0.18787048000E+02 -0.15563253975E+02  0.13644271321E+03  0.12509000000E+03 0.  0.
         25    1    4    4    0    0 -0.57049452585E+02  0.48607337463E+02  0.30311162083E+02  0.14894155882E+03  0.12509000000E+03 0.  0.
<mgrwt>
<rscale>  2 0.45283055E+03</rscale>
<asrwt>0</asrwt>
<pdfrwt beam="1">  1       21 0.33072100E-01 0.45283055E+03</pdfrwt>
<pdfrwt beam="2">  1       21 0.33522148E-01 0.45283055E+03</pdfrwt>
<totfact> 0.69906521E+04</totfact>
</mgrwt>
</event>
<event>
 7    0  0.4748297E-002  0.4539388E+03  0.7546771E-02  0.1026554E+00
         21   -1    0    0  502  501  0.00000000000E+00  0.00000000000E+00  0.98565390102E+02  0.98565390102E+02  0.00000000000E+00 0.  1.
         21   -1    0    0  501  502 -0.00000000000E+00 -0.00000000000E+00 -0.52264908241E+03  0.52264908241E+03  0.00000000000E+00 0.  1.
      99926    2    1    2    0    0  0.00000000000E+00  0.14210854715E-13 -0.42408369231E+03  0.62121447251E+03  0.45393880951E+03 0.  0.
      99925    2    3    3    0    0  0.16631252382E+02  0.10076270050E+03 -0.20370121064E+03  0.34800088080E+03  0.26302226038E+03 0.  0.
         25    1    4    4    0    0 -0.36056723623E+01  0.33458152719E+02 -0.53118540125E+02  0.14000548654E+03  0.12509000000E+03 0.  0.
         25    1    3    3    0    0 -0.16631252382E+02 -0.10076270050E+03 -0.22038248167E+03  0.27321359171E+03  0.12509000000E+03 0.  0.
         25    1    4    4    0    0  0.20236924745E+02  0.67304547782E+02 -0.15058267051E+03  0.20799539426E+03  0.12509000000E+03 0.  0.
<mgrwt>
<rscale>  2 0.45393881E+03</rscale>
<asrwt>0</asrwt>
<pdfrwt beam="1">  1       21 0.14494910E-01 0.45393881E+03</pdfrwt>
<pdfrwt beam="2">  1       21 0.76860160E-01 0.45393881E+03</pdfrwt>
<totfact> 0.57874529E+04</totfact>
</mgrwt>
</event>
<event>
 7    0  0.4748297E-002  0.4552742E+03  0.7546771E-02  0.1026161E+00
         21   -1    0    0  502  501  0.00000000000E+00  0.00000000000E+00  0.10906266600E+04  0.10906266600E+04  0.00000000000E+00 0. -1.
         21   -1    0    0  501  502 -0.00000000000E+00 -0.00000000000E+00 -0.47512730317E+02  0.47512730317E+02  0.00000000000E+00 0. -1.
      99926    2    1    2    0    0  0.00000000000E+00 -0.17763568394E-14  0.10431139297E+04  0.11381393903E+04  0.45527420473E+03 0.  0.
      99925    2    3    3    0    0  0.11284817643E+03 -0.12118225016E+02  0.65788535002E+03  0.71750875782E+03  0.26291466578E+03 0.  0.
         25    1    4    4    0    0  0.50718626151E+02 -0.46059222422E+02  0.32484259023E+03  0.35477323396E+03  0.12509000000E+03 0.  0.
         25    1    4    4    0    0  0.62129550277E+02  0.33940997406E+02  0.33304275979E+03  0.36273552386E+03  0.12509000000E+03 0.  0.
         25    1    3    3    0    0 -0.11284817643E+03  0.12118225016E+02  0.38522857964E+03  0.42063063247E+03  0.12509000000E+03 0.  0.
<mgrwt>
<rscale>  2 0.45527420E+03</rscale>
<asrwt>0</asrwt>
<pdfrwt beam="1">  1       21 0.16038626E+00 0.45527420E+03</pdfrwt>
<pdfrwt beam="2">  1       21 0.69871669E-02 0.45527420E+03</pdfrwt>
<totfact> 0.34107891E+04</totfact>
</mgrwt>
</event>
<event>
 7    0  0.4748297E-002  0.4580711E+03  0.7546771E-02  0.1025342E+00
         21   -1    0    0  502  501  0.00000000000E+00  0.00000000000E+00  0.10743070088E+03  0.10743070088E+03  0.00000000000E+00 0.  1.
         21   -1    0    0  501  502 -0.00000000000E+00 -0.00000000000E+00 -0.48828940908E+03  0.48828940908E+03  0.00000000000E+00 0.  1.
      99926    2    1    2    0    0  0.14210854715E-13  0.00000000000E+00 -0.38085870820E+03  0.59572010995E+03  0.45807105758E+03 0.  0.
      99925    2    3    3    0    0 -0.11076074159E+03  0.17108740168E+02 -0.20109786769E+03  0.34970767379E+03  0.26323839736E+03 0.  0.
         25    1    3    3    0    0  0.11076074159E+03 -0.17108740168E+02 -0.17976084050E+03  0.24601243616E+03  0.12509000000E+03 0.  0.
         25    1    4    4    0    0 -0.68818248263E+02  0.78532774212E+01 -0.15185670624E+03  0.20857994292E+03  0.12509000000E+03 0.  0.
         25    1    4    4    0    0 -0.41942493330E+02  0.92554627465E+01 -0.49241161454E+02  0.14112773086E+03  0.12509000000E+03 0.  0.
<mgrwt>
<rscale>  2 0.45807106E+03</rscale>
<asrwt>0</asrwt>
<pdfrwt beam="1">  1       21 0.15798632E-01 0.45807106E+03</pdfrwt>
<pdfrwt beam="2">  1       21 0.71807266E-01 0.45807106E+03</pdfrwt>
<totfact> 0.57533462E+04</totfact>
</mgrwt>
</event>
<event>
 7    0  0.4748297E-002  0.4341501E+03  0.7546771E-02  0.1032557E+00
         21   -1    0    0  502  501  0.00000000000E+00  0.00000000000E+00  0.25029666742E+03  0.25029666742E+03  0.00000000000E+00 0. -1.
         21   -1    0    0  501  502 -0.00000000000E+00 -0.00000000000E+00 -0.18826290438E+03  0.18826290438E+03  0.00000000000E+00 0. -1.
      99926    2    1    2    0    0  0.00000000000E+00  0.00000000000E+00  0.62033763037E+02  0.43855957181E+03  0.43415010108E+03 0.  0.
      99925    2    3    3    0    0 -0.49943061495E+02  0.26017474477E+02  0.11363243464E+03  0.29199508299E+03  0.26301631113E+03 0.  0.
         25    1    4    4    0    0 -0.44121105618E+01  0.47791280885E+02  0.60769549208E+02  0.14711872573E+03  0.12509000000E+03 0.  0.
         25    1    3    3    0    0  0.49943061495E+02 -0.26017474477E+02 -0.51598671605E+02  0.14656448881E+03  0.12509000000E+03 0.  0.
         25    1    4    4    0    0 -0.45530950933E+02 -0.21773806407E+02  0.52862885434E+02  0.14487635727E+03  0.12509000000E+03 0.  0.
<mgrwt>
<rscale>  2 0.43415010E+03</rscale>
<asrwt>0</asrwt>
<pdfrwt beam="1">  1       21 0.36808334E-01 0.43415010E+03</pdfrwt>
<pdfrwt beam="2">  1       21 0.27685721E-01 0.43415010E+03</pdfrwt>
<totfact> 0.82689225E+04</totfact>
</mgrwt>
</event>
<event>
 7    0  0.4748297E-002  0.4622994E+03  0.7546771E-02  0.1024116E+00
         21   -1    0    0  502  501  0.00000000000E+00  0.00000000000E+00  0.25379805225E+03  0.25379805225E+03  0.00000000000E+00 0.  1.
         21   -1    0    0  501  502 -0.00000000000E+00 -0.00000000000E+00 -0.21052245030E+03  0.21052245030E+03  0.00000000000E+00 0.  1.
      99926    2    1    2    0    0 -0.71054273576E-14  0.71054273576E-14  0.43275601948E+02  0.46432050256E+03  0.46229941745E+03 0.  0.
      99925    2    3    3    0    0 -0.46128572257E+02 -0.48780563320E+02  0.12575539611E+03  0.30013215619E+03  0.26411645725E+03 0.  0.
         25    1    3    3    0    0  0.46128572257E+02  0.48780563320E+02 -0.82479794165E+02  0.16418834636E+03  0.12509000000E+03 0.  0.
         25    1    4    4    0    0  0.19631901758E+02 -0.27812449417E+02  0.58754888973E+02  0.14233267013E+03  0.12509000000E+03 0.  0.
         25    1    4    4    0    0 -0.65760474015E+02 -0.20968113902E+02  0.67000507140E+02  0.15779948606E+03  0.12509000000E+03 0.  0.
<mgrwt>
<rscale>  2 0.46229942E+03</rscale>
<asrwt>0</asrwt>
<pdfrwt beam="1">  1       21 0.37323243E-01 0.46229942E+03</pdfrwt>
<pdfrwt beam="2">  1       21 0.30959184E-01 0.46229942E+03</pdfrwt>
<totfact> 0.64055678E+04</totfact>
</mgrwt>
</event>
<event>
 7    0  0.4748297E-002  0.4529856E+03  0.7546771E-02  0.1026835E+00
         21   -1    0    0  502  501  0.00000000000E+00  0.00000000000E+00  0.25781905761E+03  0.25781905761E+03  0.00000000000E+00 0.  1.
         21   -1    0    0  501  502 -0.00000000000E+00 -0.00000000000E+00 -0.19897285101E+03  0.19897285101E+03  0.00000000000E+00 0.  1.
      99926    2    1    2    0    0  0.00000000000E+00  0.35527136788E-14  0.58846206603E+02  0.45679190863E+03  0.45298561981E+03 0.  0.
      99925    2    3    3    0    0  0.99527885563E+02 -0.24961702376E+02 -0.66320723506E+01  0.28225308858E+03  0.26285725220E+03 0.  0.
         25    1    4    4    0    0  0.61437034927E+02 -0.43996201126E+02 -0.26812419351E+02  0.14858192658E+03  0.12509000000E+03 0.  0.
         25    1    3    3    0    0 -0.99527885563E+02  0.24961702376E+02  0.65478278954E+02  0.17453882005E+03  0.12509000000E+03 0.  0.
         25    1    4    4    0    0  0.38090850636E+02  0.19034498749E+02  0.20180347000E+02  0.13367116200E+03  0.12509000000E+03 0.  0.
<mgrwt>
<rscale>  2 0.45298562E+03</rscale>
<asrwt>0</asrwt>
<pdfrwt beam="1">  1       21 0.37914567E-01 0.45298562E+03</pdfrwt>
<pdfrwt beam="2">  1       21 0.29260714E-01 0.45298562E+03</pdfrwt>
<totfact> 0.69525169E+04</totfact>
</mgrwt>
</event>
<event>
 7    0  0.4748297E-002  0.4320414E+03  0.7546771E-02  0.1033217E+00
         21   -1    0    0  502  501  0.00000000000E+00  0.00000000000E+00  0.57261943825E+02  0.57261943825E+02  0.00000000000E+00 0. -1.
         21   -1    0    0  501  502 -0.00000000000E+00 -0.00000000000E+00 -0.81493813035E+03  0.81493813035E+03  0.00000000000E+00 0. -1.
      99926    2    1    2    0    0  0.71054273576E-14  0.00000000000E+00 -0.75767618652E+03  0.87220007417E+03  0.43204139357E+03 0.  0.
      99925    2    3    3    0    0 -0.45676928689E+02  0.69889513315E+02 -0.55511848542E+03  0.61991441017E+03  0.26299508967E+03 0.  0.
         25    1    4    4    0    0  0.16963134258E+02  0.22507622596E+02 -0.25864726953E+03  0.28868713018E+03  0.12509000000E+03 0.  0.
         25    1    3    3    0    0  0.45676928689E+02 -0.69889513315E+02 -0.20255770110E+03  0.25228566400E+03  0.12509000000E+03 0.  0.
         25    1    4    4    0    0 -0.62640062947E+02  0.47381890718E+02 -0.29647121589E+03  0.33122727999E+03  0.12509000000E+03 0.  0.
<mgrwt>
<rscale>  2 0.43204139E+03</rscale>
<asrwt>0</asrwt>
<pdfrwt beam="1">  1       21 0.84208741E-02 0.43204139E+03</pdfrwt>
<pdfrwt beam="2">  1       21 0.11984384E+00 0.43204139E+03</pdfrwt>
<totfact> 0.53435747E+04</totfact>
</mgrwt>
</event>
<event>
 7    0  0.4748297E-002  0.4308286E+03  0.7546771E-02  0.1033599E+00
         21   -1    0    0  502  501  0.00000000000E+00  0.00000000000E+00  0.26959170826E+02  0.26959170826E+02  0.00000000000E+00 0. -1.
         21   -1    0    0  501  502 -0.00000000000E+00 -0.00000000000E+00 -0.17212443186E+04  0.17212443186E+04  0.00000000000E+00 0. -1.
      99926    2    1    2    0    0  0.00000000000E+00  0.00000000000E+00 -0.16942851477E+04  0.17482034894E+04  0.43082859523E+03 0.  0.
      99925    2    3    3    0    0  0.22375395610E+02 -0.85432875502E+02 -0.11118702152E+04  0.11459958040E+04  0.26315693587E+03 0.  0.
         25    1    4    4    0    0  0.36149936956E+02 -0.69985464366E+02 -0.68089589014E+03  0.69675785211E+03  0.12509000000E+03 0.  0.
         25    1    3    3    0    0 -0.22375395610E+02  0.85432875502E+02 -0.58241493256E+03  0.60220768536E+03  0.12509000000E+03 0.  0.
         25    1    4    4    0    0 -0.13774541346E+02 -0.15447411136E+02 -0.43097432505E+03  0.44923795193E+03  0.12509000000E+03 0.  0.
<mgrwt>
<rscale>  2 0.43082860E+03</rscale>
<asrwt>0</asrwt>
<pdfrwt beam="1">  1       21 0.39645834E-02 0.43082860E+03</pdfrwt>
<pdfrwt beam="2">  1       21 0.25312420E+00 0.43082860E+03</pdfrwt>
<totfact> 0.22149500E+04</totfact>
</mgrwt>
</event>
<event>
 7    0  0.4748297E-002  0.4525857E+03  0.7546771E-02  0.1026954E+00
         21   -1    0    0  502  501  0.00000000000E+00  0.00000000000E+00  0.74785210565E+02  0.74785210565E+02  0.00000000000E+00 0.  1.
         21   -1    0    0  501  502 -0.00000000000E+00 -0.00000000000E+00 -0.68474052941E+03  0.68474052941E+03  0.00000000000E+00 0.  1.
      99926    2    1    2    0    0  0.00000000000E+00  0.00000000000E+00 -0.60995531884E+03  0.75952573997E+03  0.45258574734E+03 0.  0.
      99925    2    3    3    0    0  0.49955946942E+02 -0.88598277623E+01 -0.21934015051E+03  0.34624398255E+03  0.26306026049E+03 0.  0.
         25    1    4    4    0    0  0.32211235583E+02 -0.25523337956E+02 -0.67335499991E+02  0.14788705872E+03  0.12509000000E+03 0.  0.
         25    1    4    4    0    0  0.17744711358E+02  0.16663510194E+02 -0.15200465052E+03  0.19835692383E+03  0.12509000000E+03 0.  0.
         25    1    3    3    0    0 -0.49955946942E+02  0.88598277623E+01 -0.39061516833E+03  0.41328175742E+03  0.12509000000E+03 0.  0.
<mgrwt>
<rscale>  2 0.45258575E+03</rscale>
<asrwt>0</asrwt>
<pdfrwt beam="1">  1       21 0.10997825E-01 0.45258575E+03</pdfrwt>
<pdfrwt beam="2">  1       21 0.10069714E+00 0.45258575E+03</pdfrwt>
<totfact> 0.50739282E+04</totfact>
</mgrwt>
</event>
<event>
 7    0  0.4748297E-002  0.4430554E+03  0.7546771E-02  0.1029813E+00
         21   -1    0    0  502  501  0.00000000000E+00  0.00000000000E+00  0.99728084088E+02  0.99728084088E+02  0.00000000000E+00 0.  1.
         21   -1    0    0  501  502 -0.00000000000E+00 -0.00000000000E+00 -0.49208325993E+03  0.49208325993E+03  0.00000000000E+00 0.  1.
      99926    2    1    2    0    0 -0.35527136788E-14  0.14210854715E-13 -0.39235517584E+03  0.59181134402E+03  0.44305539484E+03 0.  0.
      99925    2    3    3    0    0 -0.16617623952E+02  0.97853184923E+02 -0.22229423261E+03  0.35853120397E+03  0.26320810616E+03 0.  0.
         25    1    3    3    0    0  0.16617623952E+02 -0.97853184923E+02 -0.17006094323E+03  0.23328014004E+03  0.12509000000E+03 0.  0.
         25    1    4    4    0    0  0.10801202781E+02  0.63022280111E+02 -0.71427952643E+02  0.15760055295E+03  0.12509000000E+03 0.  0.
         25    1    4    4    0    0 -0.27418826733E+02  0.34830904812E+02 -0.15086627996E+03  0.20093065102E+03  0.12509000000E+03 0.  0.
<mgrwt>
<rscale>  2 0.44305539E+03</rscale>
<asrwt>0</asrwt>
<pdfrwt beam="1">  1       21 0.14665895E-01 0.44305539E+03</pdfrwt>
<pdfrwt beam="2">  1       21 0.72365185E-01 0.44305539E+03</pdfrwt>
<totfact> 0.65117663E+04</totfact>
</mgrwt>
</event>
<event>
 7    0  0.4748297E-002  0.4428466E+03  0.7546771E-02  0.1029877E+00
         21   -1    0    0  502  501  0.00000000000E+00  0.00000000000E+00  0.34375145320E+03  0.34375145320E+03  0.00000000000E+00 0. -1.
         21   -1    0    0  501  502 -0.00000000000E+00 -0.00000000000E+00 -0.14262711598E+03  0.14262711598E+03  0.00000000000E+00 0. -1.
      99926    2    1    2    0    0  0.00000000000E+00  0.00000000000E+00  0.20112433722E+03  0.48637856918E+03  0.44284660271E+03 0.  0.
      99925    2    3    3    0    0 -0.49066295076E+02  0.71632407686E+02  0.18504938393E+03  0.33326222333E+03  0.26321423187E+03 0.  0.
         25    1    4    4    0    0 -0.39111221620E+02  0.61183227654E+02  0.13470475926E+03  0.19765109479E+03  0.12509000000E+03 0.  0.
         25    1    3    3    0    0  0.49066295076E+02 -0.71632407686E+02  0.16074953289E+02  0.15311634585E+03  0.12509000000E+03 0.  0.
         25    1    4    4    0    0 -0.99550734556E+01  0.10449180032E+02  0.50344624673E+02  0.13561112854E+03  0.12509000000E+03 0.  0.
<mgrwt>
<rscale>  2 0.44284660E+03</rscale>
<asrwt>0</asrwt>
<pdfrwt beam="1">  1       21 0.50551684E-01 0.44284660E+03</pdfrwt>
<pdfrwt beam="2">  1       21 0.20974576E-01 0.44284660E+03</pdfrwt>
<totfact> 0.73034791E+04</totfact>
</mgrwt>
</event>
<event>
 7    0  0.4748297E-002  0.4497866E+03  0.7546771E-02  0.1027786E+00
         21   -1    0    0  502  501  0.00000000000E+00  0.00000000000E+00  0.15236379209E+03  0.15236379209E+03  0.00000000000E+00 0.  1.
         21   -1    0    0  501  502 -0.00000000000E+00 -0.00000000000E+00 -0.33194886975E+03  0.33194886975E+03  0.00000000000E+00 0.  1.
      99926    2    1    2    0    0  0.14210854715E-13  0.00000000000E+00 -0.17958507766E+03  0.48431266184E+03  0.44978656527E+03 0.  0.
      99925    2    3    3    0    0 -0.99158638825E+02  0.43628865810E+02 -0.11398993826E+03  0.30630663947E+03  0.26285763785E+03 0.  0.
         25    1    4    4    0    0 -0.14816384141E+02  0.40727296324E+02 -0.66267071103E+02  0.14804415124E+03  0.12509000000E+03 0.  0.
         25    1    4    4    0    0 -0.84342254683E+02  0.29015694861E+01 -0.47722867162E+02  0.15826248823E+03  0.12509000000E+03 0.  0.
         25    1    3    3    0    0  0.99158638825E+02 -0.43628865810E+02 -0.65595139394E+02  0.17800602236E+03  0.12509000000E+03 0.  0.
<mgrwt>
<rscale>  2 0.44978657E+03</rscale>
<asrwt>0</asrwt>
<pdfrwt beam="1">  1       21 0.22406440E-01 0.44978657E+03</pdfrwt>
<pdfrwt beam="2">  1       21 0.48816009E-01 0.44978657E+03</pdfrwt>
<totfact> 0.69207755E+04</totfact>
</mgrwt>
</event>
<event>
 7    0  0.4748297E-002  0.4446865E+03  0.7546771E-02  0.1029319E+00
         21   -1    0    0  502  501  0.00000000000E+00  0.00000000000E+00  0.47273200406E+03  0.47273200406E+03  0.00000000000E+00 0.  1.
         21   -1    0    0  501  502 -0.00000000000E+00 -0.00000000000E+00 -0.10457619573E+03  0.10457619573E+03  0.00000000000E+00 0.  1.
      99926    2    1    2    0    0  0.00000000000E+00 -0.71054273576E-14  0.36815580833E+03  0.57730819979E+03  0.44468647195E+03 0.  0.
      99925    2    3    3    0    0 -0.34219408529E+02 -0.56540273878E+02  0.13451386305E+03  0.30417116974E+03  0.26468538051E+03 0.  0.
         25    1    4    4    0    0 -0.18479969554E+02 -0.61249954261E+02  0.38655678763E+02  0.14572177522E+03  0.12509000000E+03 0.  0.
         25    1    4    4    0    0 -0.15739438975E+02  0.47096803828E+01  0.95858184289E+02  0.15844939452E+03  0.12509000000E+03 0.  0.
         25    1    3    3    0    0  0.34219408529E+02  0.56540273878E+02  0.23364194528E+03  0.27313703005E+03  0.12509000000E+03 0.  0.
<mgrwt>
<rscale>  2 0.44468647E+03</rscale>
<asrwt>0</asrwt>
<pdfrwt beam="1">  1       21 0.69519411E-01 0.44468647E+03</pdfrwt>
<pdfrwt beam="2">  1       21 0.15378853E-01 0.44468647E+03</pdfrwt>
<totfact> 0.65257701E+04</totfact>
</mgrwt>
</event>
<event>
 7    0  0.4748297E-002  0.4873723E+03  0.7546771E-02  0.1017128E+00
         21   -1    0    0  502  501  0.00000000000E+00  0.00000000000E+00  0.12502707567E+04  0.12502707567E+04  0.00000000000E+00 0. -1.
         21   -1    0    0  501  502 -0.00000000000E+00 -0.00000000000E+00 -0.47496065844E+02  0.47496065844E+02  0.00000000000E+00 0. -1.
      99926    2    1    2    0    0  0.00000000000E+00  0.00000000000E+00  0.12027746909E+04  0.12977668226E+04  0.48737231018E+03 0.  0.
      99925    2    3    3    0    0  0.11129489882E+03 -0.79972334416E+02  0.64393573039E+03  0.70892845711E+03  0.26295285442E+03 0.  0.
         25    1    4    4    0    0  0.45397607431E+02 -0.78742981085E+02  0.35702132930E+03  0.38906700901E+03  0.12509000000E+03 0.  0.
         25    1    4    4    0    0  0.65897291389E+02 -0.12293533309E+01  0.28691440109E+03  0.31986144809E+03  0.12509000000E+03 0.  0.
         25    1    3    3    0    0 -0.11129489882E+03  0.79972334416E+02  0.55883896049E+03  0.58883836545E+03  0.12509000000E+03 0.  0.
<mgrwt>
<rscale>  2 0.48737231E+03</rscale>
<asrwt>0</asrwt>
<pdfrwt beam="1">  1       21 0.18386333E+00 0.48737231E+03</pdfrwt>
<pdfrwt beam="2">  1       21 0.69847164E-02 0.48737231E+03</pdfrwt>
<totfact> 0.22856243E+04</totfact>
</mgrwt>
</event>
<event>
 7    0  0.4748297E-002  0.4617862E+03  0.7546771E-02  0.1024264E+00
         21   -1    0    0  502  501  0.00000000000E+00  0.00000000000E+00  0.45415602329E+02  0.45415602329E+02  0.00000000000E+00 0. -1.
         21   -1    0    0  501  502 -0.00000000000E+00 -0.00000000000E+00 -0.11738615122E+04  0.11738615122E+04  0.00000000000E+00 0. -1.
      99926    2    1    2    0    0  0.00000000000E+00  0.00000000000E+00 -0.11284459099E+04  0.12192771146E+04  0.46178621734E+03 0.  0.
      99925    2    3    3    0    0 -0.38657510464E+02 -0.75802707578E+02 -0.48447956926E+03  0.55777835449E+03  0.26297487735E+03 0.  0.
         25    1    4    4    0    0 -0.52260364911E+02 -0.37976657451E+02 -0.20181821760E+03  0.24607208965E+03  0.12509000000E+03 0.  0.
         25    1    3    3    0    0  0.38657510464E+02  0.75802707578E+02 -0.64396634066E+03  0.66149876009E+03  0.12509000000E+03 0.  0.
         25    1    4    4    0    0  0.13602854446E+02 -0.37826050126E+02 -0.28266135166E+03  0.31170626484E+03  0.12509000000E+03 0.  0.
<mgrwt>
<rscale>  2 0.46178622E+03</rscale>
<asrwt>0</asrwt>
<pdfrwt beam="1">  1       21 0.66787654E-02 0.46178622E+03</pdfrwt>
<pdfrwt beam="2">  1       21 0.17262668E+00 0.46178622E+03</pdfrwt>
<totfact> 0.29936973E+04</totfact>
</mgrwt>
</event>
<event>
 7    0  0.4748297E-002  0.4682811E+03  0.7546771E-02  0.1022406E+00
         21   -1    0    0  502  501  0.00000000000E+00  0.00000000000E+00  0.13205200651E+03  0.13205200651E+03  0.00000000000E+00 0. -1.
         21   -1    0    0  501  502 -0.00000000000E+00 -0.00000000000E+00 -0.41515301539E+03  0.41515301539E+03  0.00000000000E+00 0. -1.
      99926    2    1    2    0    0  0.00000000000E+00  0.14210854715E-13 -0.28310100888E+03  0.54720502190E+03  0.46828106385E+03 0.  0.
      99925    2    3    3    0    0 -0.82446356256E+02 -0.93481417025E+02 -0.16704608737E+03  0.33589380617E+03  0.26340857375E+03 0.  0.
         25    1    4    4    0    0 -0.75541752796E+02 -0.23803803426E+02 -0.85352782376E+02  0.17089699539E+03  0.12509000000E+03 0.  0.
         25    1    3    3    0    0  0.82446356256E+02  0.93481417025E+02 -0.11605492150E+03  0.21131121573E+03  0.12509000000E+03 0.  0.
         25    1    4    4    0    0 -0.69046034596E+01 -0.69677613599E+02 -0.81693304997E+02  0.16499681078E+03  0.12509000000E+03 0.  0.
<mgrwt>
<rscale>  2 0.46828106E+03</rscale>
<asrwt>0</asrwt>
<pdfrwt beam="1">  1       21 0.19419413E-01 0.46828106E+03</pdfrwt>
<pdfrwt beam="2">  1       21 0.61051914E-01 0.46828106E+03</pdfrwt>
<totfact> 0.55934122E+04</totfact>
</mgrwt>
</event>
<event>
 7    0  0.4748297E-002  0.4523957E+03  0.7546771E-02  0.1027010E+00
         21   -1    0    0  502  501  0.00000000000E+00  0.00000000000E+00  0.17815269094E+03  0.17815269094E+03  0.00000000000E+00 0.  1.
         21   -1    0    0  501  502 -0.00000000000E+00 -0.00000000000E+00 -0.28720011746E+03  0.28720011746E+03  0.00000000000E+00 0.  1.
      99926    2    1    2    0    0  0.14210854715E-13  0.17763568394E-14 -0.10904742652E+03  0.46535280840E+03  0.45239572838E+03 0.  0.
      99925    2    3    3    0    0  0.10309018302E+03  0.93674164117E+01 -0.10886469136E+03  0.30298632227E+03  0.26312327174E+03 0.  0.
         25    1    3    3    0    0 -0.10309018302E+03 -0.93674164117E+01 -0.18273515724E+00  0.16236648613E+03  0.12509000000E+03 0.  0.
         25    1    4    4    0    0  0.28706314477E+02  0.31919885805E+02 -0.28775447503E+02  0.13534572797E+03  0.12509000000E+03 0.  0.
         25    1    4    4    0    0  0.74383868546E+02 -0.22552469393E+02 -0.80089243861E+02  0.16764059430E+03  0.12509000000E+03 0.  0.
<mgrwt>
<rscale>  2 0.45239573E+03</rscale>
<asrwt>0</asrwt>
<pdfrwt beam="1">  1       21 0.26198925E-01 0.45239573E+03</pdfrwt>
<pdfrwt beam="2">  1       21 0.42235311E-01 0.45239573E+03</pdfrwt>
<totfact> 0.69201620E+04</totfact>
</mgrwt>
</event>
<event>
 7    0  0.4748297E-002  0.4548803E+03  0.7546771E-02  0.1026277E+00
         21   -1    0    0  502  501  0.00000000000E+00  0.00000000000E+00  0.27420123318E+03  0.27420123318E+03  0.00000000000E+00 0.  1.
         21   -1    0    0  501  502 -0.00000000000E+00 -0.00000000000E+00 -0.18865351986E+03  0.18865351986E+03  0.00000000000E+00 0.  1.
      99926    2    1    2    0    0  0.00000000000E+00  0.00000000000E+00  0.85547713324E+02  0.46285475304E+03  0.45488032619E+03 0.  0.
      99925    2    3    3    0    0  0.83705672255E+02  0.72329346674E+02  0.78270258896E+02  0.29570618619E+03  0.26282644685E+03 0.  0.
         25    1    4    4    0    0  0.13870199176E+02  0.59517444918E+02  0.56431373625E+02  0.15022222440E+03  0.12509000000E+03 0.  0.
         25    1    3    3    0    0 -0.83705672255E+02 -0.72329346674E+02  0.72774544279E+01  0.16714856685E+03  0.12509000000E+03 0.  0.
         25    1    4    4    0    0  0.69835473079E+02  0.12811901757E+02  0.21838885272E+02  0.14548396179E+03  0.12509000000E+03 0.  0.
<mgrwt>
<rscale>  2 0.45488033E+03</rscale>
<asrwt>0</asrwt>
<pdfrwt beam="1">  1       21 0.40323711E-01 0.45488033E+03</pdfrwt>
<pdfrwt beam="2">  1       21 0.27743165E-01 0.45488033E+03</pdfrwt>
<totfact> 0.68034403E+04</totfact>
</mgrwt>
</event>
<event>
 7    0  0.4748297E-002  0.4577528E+03  0.7546771E-02  0.1025435E+00
         21   -1    0    0  502  501  0.00000000000E+00  0.00000000000E+00  0.11823284303E+03  0.11823284303E+03  0.00000000000E+00 0.  1.
         21   -1    0    0  501  502 -0.00000000000E+00 -0.00000000000E+00 -0.44306135414E+03  0.44306135414E+03  0.00000000000E+00 0.  1.
      99926    2    1    2    0    0 -0.25812685323E-14  0.71054273576E-14 -0.32482851111E+03  0.56129419717E+03  0.45775278715E+03 0.  0.
      99925    2    3    3    0    0 -0.13314599331E+00  0.38264734975E+02 -0.70369198643E+02  0.27518013342E+03  0.26326426655E+03 0.  0.
         25    1    4    4    0    0 -0.40186793592E+02  0.13425848055E+02 -0.41345453147E+02  0.13839142449E+03  0.12509000000E+03 0.  0.
         25    1    4    4    0    0  0.40053647598E+02  0.24838886920E+02 -0.29023745496E+02  0.13678870893E+03  0.12509000000E+03 0.  0.
         25    1    3    3    0    0  0.13314599331E+00 -0.38264734975E+02 -0.25445931247E+03  0.28611406375E+03  0.12509000000E+03 0.  0.
<mgrwt>
<rscale>  2 0.45775279E+03</rscale>
<asrwt>0</asrwt>
<pdfrwt beam="1">  1       21 0.17387183E-01 0.45775279E+03</pdfrwt>
<pdfrwt beam="2">  1       21 0.65156081E-01 0.45775279E+03</pdfrwt>
<totfact> 0.59813265E+04</totfact>
</mgrwt>
</event>
<event>
 7    0  0.4748297E-002  0.4392329E+03  0.7546771E-02  0.1030982E+00
         21   -1    0    0  502  501  0.00000000000E+00  0.00000000000E+00  0.12570266268E+03  0.12570266268E+03  0.00000000000E+00 0.  1.
         21   -1    0    0  501  502 -0.00000000000E+00 -0.00000000000E+00 -0.38369430295E+03  0.38369430295E+03  0.00000000000E+00 0.  1.
      99926    2    1    2    0    0  0.17763568394E-14  0.00000000000E+00 -0.25799164027E+03  0.50939696563E+03  0.43923294747E+03 0.  0.
      99925    2    3    3    0    0 -0.57135178632E+01  0.97224737141E+02 -0.15873453889E+03  0.32235479372E+03  0.26311720848E+03 0.  0.
         25    1    4    4    0    0  0.21395584758E+02  0.64657840308E+02 -0.11553738490E+03  0.18339793556E+03  0.12509000000E+03 0.  0.
         25    1    4    4    0    0 -0.27109102622E+02  0.32566896833E+02 -0.43197153992E+02  0.13895685815E+03  0.12509000000E+03 0.  0.
         25    1    3    3    0    0  0.57135178632E+01 -0.97224737141E+02 -0.99257101385E+02  0.18704217191E+03  0.12509000000E+03 0.  0.
<mgrwt>
<rscale>  2 0.43923295E+03</rscale>
<asrwt>0</asrwt>
<pdfrwt beam="1">  1       21 0.18485686E-01 0.43923295E+03</pdfrwt>
<pdfrwt beam="2">  1       21 0.56425632E-01 0.43923295E+03</pdfrwt>
<totfact> 0.73371981E+04</totfact>
</mgrwt>
</event>
<event>
 7    0  0.4748297E-002  0.4580596E+03  0.7546771E-02  0.1025345E+00
         21   -1    0    0  502  501  0.00000000000E+00  0.00000000000E+00  0.68753125773E+02  0.68753125773E+02  0.00000000000E+00 0.  1.
         21   -1    0    0  501  502 -0.00000000000E+00 -0.00000000000E+00 -0.76294201717E+03  0.76294201717E+03  0.00000000000E+00 0.  1.
      99926    2    1    2    0    0  0.00000000000E+00  0.00000000000E+00 -0.69418889139E+03  0.83169514294E+03  0.45805959640E+03 0.  0.
      99925    2    3    3    0    0 -0.66145870761E+02 -0.33856308084E+02 -0.59715225164E+03  0.65680905610E+03  0.26322195714E+03 0.  0.
         25    1    4    4    0    0 -0.59579888299E+02 -0.49683993737E+02 -0.31467611438E+03  0.34740009698E+03  0.12509000000E+03 0.  0.
         25    1    4    4    0    0 -0.65659824623E+01  0.15827685653E+02 -0.28247613726E+03  0.30940895912E+03  0.12509000000E+03 0.  0.
         25    1    3    3    0    0  0.66145870761E+02  0.33856308084E+02 -0.97036639751E+02  0.17488608684E+03  0.12509000000E+03 0.  0.
<mgrwt>
<rscale>  2 0.45805960E+03</rscale>
<asrwt>0</asrwt>
<pdfrwt beam="1">  1       21 0.10110754E-01 0.45805960E+03</pdfrwt>
<pdfrwt beam="2">  1       21 0.11219735E+00 0.45805960E+03</pdfrwt>
<totfact> 0.45175388E+04</totfact>
</mgrwt>
</event>
<event>
 7    0  0.4748297E-002  0.4506297E+03  0.7546771E-02  0.1027534E+00
         21   -1    0    0  502  501  0.00000000000E+00  0.00000000000E+00  0.47259651405E+02  0.47259651405E+02  0.00000000000E+00 0.  1.
         21   -1    0    0  501  502 -0.00000000000E+00 -0.00000000000E+00 -0.10742097202E+04  0.10742097202E+04  0.00000000000E+00 0.  1.
      99926    2    1    2    0    0  0.71054273576E-14  0.00000000000E+00 -0.10269500688E+04  0.11214693716E+04  0.45062967906E+03 0.  0.
      99925    2    3    3    0    0 -0.44743950596E+02 -0.98014073730E+02 -0.69030199227E+03  0.74651842109E+03  0.26299074647E+03 0.  0.
         25    1    4    4    0    0 -0.10010004718E+02 -0.85816658246E+02 -0.32961929755E+03  0.36298910238E+03  0.12509000000E+03 0.  0.
         25    1    3    3    0    0  0.44743950596E+02  0.98014073730E+02 -0.33664807651E+03  0.37495095050E+03  0.12509000000E+03 0.  0.
         25    1    4    4    0    0 -0.34733945877E+02 -0.12197415484E+02 -0.36068269472E+03  0.38352931871E+03  0.12509000000E+03 0.  0.
<mgrwt>
<rscale>  2 0.45062968E+03</rscale>
<asrwt>0</asrwt>
<pdfrwt beam="1">  1       21 0.69499491E-02 0.45062968E+03</pdfrwt>
<pdfrwt beam="2">  1       21 0.15797201E+00 0.45062968E+03</pdfrwt>
<totfact> 0.35958967E+04</totfact>
</mgrwt>
</event>
<event>
 7    0  0.4748297E-002  0.4598934E+03  0.7546771E-02  0.1024812E+00
         21   -1    0    0  502  501  0.00000000000E+00  0.00000000000E+00  0.99346451557E+02  0.99346451557E+02  0.00000000000E+00 0.  1.
         21   -1    0    0  501  502 -0.00000000000E+00 -0.00000000000E+00 -0.53223314504E+03  0.53223314504E+03  0.00000000000E+00 0.  1.
      99926    2    1    2    0    0  0.00000000000E+00  0.00000000000E+00 -0.43288669348E+03  0.63157959660E+03  0.45989335442E+03 0.  0.
      99925    2    3    3    0    0  0.34754043375E+02  0.70703065404E+02 -0.15114357487E+03  0.31340753627E+03  0.26300786410E+03 0.  0.
         25    1    4    4    0    0  0.29420624587E+01  0.44781251801E+02 -0.11782677069E+03  0.17760819867E+03  0.12509000000E+03 0.  0.
         25    1    4    4    0    0  0.31811980916E+02  0.25921813603E+02 -0.33316804178E+02  0.13579933759E+03  0.12509000000E+03 0.  0.
         25    1    3    3    0    0 -0.34754043375E+02 -0.70703065404E+02 -0.28174311862E+03  0.31817206033E+03  0.12509000000E+03 0.  0.
<mgrwt>
<rscale>  2 0.45989335E+03</rscale>
<asrwt>0</asrwt>
<pdfrwt beam="1">  1       21 0.14609772E-01 0.45989335E+03</pdfrwt>
<pdfrwt beam="2">  1       21 0.78269582E-01 0.45989335E+03</pdfrwt>
<totfact> 0.54634183E+04</totfact>
</mgrwt>
</event>
<event>
 7    0  0.4748297E-002  0.4516580E+03  0.7546771E-02  0.1027229E+00
         21   -1    0    0  502  501  0.00000000000E+00  0.00000000000E+00  0.86508235250E+02  0.86508235250E+02  0.00000000000E+00 0. -1.
         21   -1    0    0  501  502 -0.00000000000E+00 -0.00000000000E+00 -0.58952464633E+03  0.58952464633E+03  0.00000000000E+00 0. -1.
      99926    2    1    2    0    0  0.00000000000E+00  0.00000000000E+00 -0.50301641108E+03  0.67603288158E+03  0.45165799800E+03 0.  0.
      99925    2    3    3    0    0 -0.36599970444E+02 -0.60088146784E+02 -0.44413216962E+03  0.52090388618E+03  0.26293978651E+03 0.  0.
         25    1    3    3    0    0  0.36599970444E+02  0.60088146784E+02 -0.58884241458E+02  0.15512899540E+03  0.12509000000E+03 0.  0.
         25    1    4    4    0    0 -0.53111485362E+02 -0.11619387180E+02 -0.20533097513E+03  0.24650386911E+03  0.12509000000E+03 0.  0.
         25    1    4    4    0    0  0.16511514918E+02 -0.48468759604E+02 -0.23880119449E+03  0.27440001708E+03  0.12509000000E+03 0.  0.
<mgrwt>
<rscale>  2 0.45165800E+03</rscale>
<asrwt>0</asrwt>
<pdfrwt beam="1">  1       21 0.12721800E-01 0.45165800E+03</pdfrwt>
<pdfrwt beam="2">  1       21 0.86694799E-01 0.45165800E+03</pdfrwt>
<totfact> 0.55675128E+04</totfact>
</mgrwt>
</event>
<event>
 7    0  0.4748297E-002  0.4363390E+03  0.7546771E-02  0.1031876E+00
         21   -1    0    0  502  501  0.00000000000E+00  0.00000000000E+00  0.58975870815E+02  0.58975870815E+02  0.00000000000E+00 0.  1.
         21   -1    0    0  501  502 -0.00000000000E+00 -0.00000000000E+00 -0.80707455627E+03  0.80707455627E+03  0.00000000000E+00 0.  1.
      99926    2    1    2    0    0  0.00000000000E+00 -0.71054273576E-14 -0.74809868546E+03  0.86605042709E+03  0.43633897267E+03 0.  0.
      99925    2    3    3    0    0  0.80218615243E+02 -0.50248199523E+02 -0.47884833687E+03  0.55443661786E+03  0.26295308653E+03 0.  0.
         25    1    4    4    0    0  0.55328207588E+02 -0.96840905832E+01 -0.17426154655E+03  0.22174216304E+03  0.12509000000E+03 0.  0.
         25    1    3    3    0    0 -0.80218615243E+02  0.50248199523E+02 -0.26925034859E+03  0.31161380923E+03  0.12509000000E+03 0.  0.
         25    1    4    4    0    0  0.24890407656E+02 -0.40564108939E+02 -0.30458679033E+03  0.33269445482E+03  0.12509000000E+03 0.  0.
<mgrwt>
<rscale>  2 0.43633897E+03</rscale>
<asrwt>0</asrwt>
<pdfrwt beam="1">  1       21 0.86729233E-02 0.43633897E+03</pdfrwt>
<pdfrwt beam="2">  1       21 0.11868742E+00 0.43633897E+03</pdfrwt>
<totfact> 0.51916354E+04</totfact>
</mgrwt>
</event>
<event>
 7    0  0.4748297E-002  0.4509366E+03  0.7546771E-02  0.1027443E+00
         21   -1    0    0  502  501  0.00000000000E+00  0.00000000000E+00  0.63246363058E+03  0.63246363058E+03  0.00000000000E+00 0.  1.
         21   -1    0    0  501  502 -0.00000000000E+00 -0.00000000000E+00 -0.80377683002E+02  0.80377683002E+02  0.00000000000E+00 0.  1.
      99926    2    1    2    0    0 -0.71054273576E-14  0.14210854715E-13  0.55208594757E+03  0.71284131358E+03  0.45093663062E+03 0.  0.
      99925    2    3    3    0    0  0.55337427684E+02 -0.76899241292E+02  0.26179348122E+03  0.38285199809E+03  0.26280049737E+03 0.  0.
         25    1    4    4    0    0  0.27500580827E+02 -0.30229178481E+01  0.15109424595E+03  0.19809694404E+03  0.12509000000E+03 0.  0.
         25    1    3    3    0    0 -0.55337427684E+02  0.76899241292E+02  0.29029246636E+03  0.32998931549E+03  0.12509000000E+03 0.  0.
         25    1    4    4    0    0  0.27836846857E+02 -0.73876323444E+02  0.11069923527E+03  0.18475505405E+03  0.12509000000E+03 0.  0.
<mgrwt>
<rscale>  2 0.45093663E+03</rscale>
<asrwt>0</asrwt>
<pdfrwt beam="1">  1       21 0.93009355E-01 0.45093663E+03</pdfrwt>
<pdfrwt beam="2">  1       21 0.11820248E-01 0.45093663E+03</pdfrwt>
<totfact> 0.53914209E+04</totfact>
</mgrwt>
</event>
<event>
 7    0  0.4748297E-002  0.4497907E+03  0.7546771E-02  0.1027784E+00
         21   -1    0    0  502  501  0.00000000000E+00  0.00000000000E+00  0.58432889957E+03  0.58432889957E+03  0.00000000000E+00 0.  1.
         21   -1    0    0  501  502 -0.00000000000E+00 -0.00000000000E+00 -0.86557260621E+02  0.86557260621E+02  0.00000000000E+00 0.  1.
      99926    2    1    2    0    0 -0.14210854715E-13  0.00000000000E+00  0.49777163894E+03  0.67088616019E+03  0.44979065730E+03 0.  0.
      99925    2    3    3    0    0 -0.10192392611E+03  0.17075568666E+02  0.36259260250E+03  0.45969680971E+03  0.26299752796E+03 0.  0.
         25    1    4    4    0    0 -0.70878348875E+02 -0.24977945147E+02  0.20791031635E+03  0.25401150727E+03  0.12509000000E+03 0.  0.
         25    1    3    3    0    0  0.10192392611E+03 -0.17075568666E+02  0.13517903644E+03  0.21118935047E+03  0.12509000000E+03 0.  0.
         25    1    4    4    0    0 -0.31045577239E+02  0.42053513813E+02  0.15468228616E+03  0.20568530244E+03  0.12509000000E+03 0.  0.
<mgrwt>
<rscale>  2 0.44979066E+03</rscale>
<asrwt>0</asrwt>
<pdfrwt beam="1">  1       21 0.85930719E-01 0.44979066E+03</pdfrwt>
<pdfrwt beam="2">  1       21 0.12729009E-01 0.44979066E+03</pdfrwt>
<totfact> 0.56808489E+04</totfact>
</mgrwt>
</event>
<event>
 7    0  0.4748297E-002  0.4112550E+03  0.7546771E-02  0.1039951E+00
         21   -1    0    0  502  501  0.00000000000E+00  0.00000000000E+00  0.24645332480E+03  0.24645332480E+03  0.00000000000E+00 0.  1.
         21   -1    0    0  501  502 -0.00000000000E+00 -0.00000000000E+00 -0.17156460735E+03  0.17156460735E+03  0.00000000000E+00 0.  1.
      99926    2    1    2    0    0  0.00000000000E+00 -0.35527136788E-14  0.74888717453E+02  0.41801793215E+03  0.41125499583E+03 0.  0.
      99925    2    3    3    0    0  0.50777176521E+02  0.23007150310E+02  0.17150252114E+02  0.26939461938E+03  0.26300509345E+03 0.  0.
         25    1    3    3    0    0 -0.50777176521E+02 -0.23007150310E+02  0.57738465339E+02  0.14862331278E+03  0.12509000000E+03 0.  0.
         25    1    4    4    0    0  0.59195142328E+02  0.33538409325E+02 -0.15721590438E+00  0.14239530397E+03  0.12509000000E+03 0.  0.
         25    1    4    4    0    0 -0.84179658075E+01 -0.10531259015E+02  0.17307468019E+02  0.12699931541E+03  0.12509000000E+03 0.  0.
<mgrwt>
<rscale>  2 0.41125500E+03</rscale>
<asrwt>0</asrwt>
<pdfrwt beam="1">  1       21 0.36243136E-01 0.41125500E+03</pdfrwt>
<pdfrwt beam="2">  1       21 0.25230089E-01 0.41125500E+03</pdfrwt>
<totfact> 0.10278918E+05</totfact>
</mgrwt>
</event>
<event>
 7    0  0.4748297E-002  0.4534392E+03  0.7546771E-02  0.1026701E+00
         21   -1    0    0  502  501  0.00000000000E+00  0.00000000000E+00  0.91931339478E+03  0.91931339478E+03  0.00000000000E+00 0.  1.
         21   -1    0    0  501  502 -0.00000000000E+00 -0.00000000000E+00 -0.55913229410E+02  0.55913229410E+02  0.00000000000E+00 0.  1.
      99926    2    1    2    0    0  0.00000000000E+00 -0.71054273576E-14  0.86340016537E+03  0.97522662419E+03  0.45343921640E+03 0.  0.
      99925    2    3    3    0    0  0.32250484016E+02 -0.55705450369E+02  0.34776368739E+03  0.44074399918E+03  0.26300665319E+03 0.  0.
         25    1    4    4    0    0  0.14366657070E+02  0.13544549653E+02  0.16629057966E+03  0.20902134016E+03  0.12509000000E+03 0.  0.
         25    1    4    4    0    0  0.17883826946E+02 -0.69250000022E+02  0.18147310773E+03  0.23172265901E+03  0.12509000000E+03 0.  0.
         25    1    3    3    0    0 -0.32250484016E+02  0.55705450369E+02  0.51563647798E+03  0.53448262502E+03  0.12509000000E+03 0.  0.
<mgrwt>
<rscale>  2 0.45343922E+03</rscale>
<asrwt>0</asrwt>
<pdfrwt beam="1">  1       21 0.13519314E+00 0.45343922E+03</pdfrwt>
<pdfrwt beam="2">  1       21 0.82225343E-02 0.45343922E+03</pdfrwt>
<totfact> 0.40629269E+04</totfact>
</mgrwt>
</event>
<event>
 7    0  0.4748297E-002  0.4274424E+03  0.7546771E-02  0.1034671E+00
         21   -1    0    0  502  501  0.00000000000E+00  0.00000000000E+00  0.10496777093E+04  0.10496777093E+04  0.00000000000E+00 0. -1.
         21   -1    0    0  501  502 -0.00000000000E+00 -0.00000000000E+00 -0.43515021760E+02  0.43515021760E+02  0.00000000000E+00 0. -1.
      99926    2    1    2    0    0 -0.35527136788E-14  0.14210854715E-13  0.10061626875E+04  0.10931927310E+04  0.42744238611E+03 0.  0.
      99925    2    3    3    0    0  0.23200082150E+02 -0.80484709501E+02  0.61851948507E+03  0.67734324772E+03  0.26308076619E+03 0.  0.
         25    1    4    4    0    0  0.45038795849E+02 -0.54908633712E+02  0.27779471360E+03  0.31282720820E+03  0.12509000000E+03 0.  0.
         25    1    4    4    0    0 -0.21838713699E+02 -0.25576075788E+02  0.34072477147E+03  0.36451603952E+03  0.12509000000E+03 0.  0.
         25    1    3    3    0    0 -0.23200082150E+02  0.80484709501E+02  0.38764320243E+03  0.41584948331E+03  0.12509000000E+03 0.  0.
<mgrwt>
<rscale>  2 0.42744239E+03</rscale>
<asrwt>0</asrwt>
<pdfrwt beam="1">  1       21 0.15436435E+00 0.42744239E+03</pdfrwt>
<pdfrwt beam="2">  1       21 0.63992686E-02 0.42744239E+03</pdfrwt>
<totfact> 0.44569508E+04</totfact>
</mgrwt>
</event>
<event>
 7    0  0.4748297E-002  0.4164357E+03  0.7546771E-02  0.1038233E+00
         21   -1    0    0  502  501  0.00000000000E+00  0.00000000000E+00  0.19596775910E+02  0.19596775910E+02  0.00000000000E+00 0.  1.
         21   -1    0    0  501  502 -0.00000000000E+00 -0.00000000000E+00 -0.22123371275E+04  0.22123371275E+04  0.00000000000E+00 0.  1.
      99926    2    1    2    0    0  0.00000000000E+00  0.00000000000E+00 -0.21927403516E+04  0.22319339034E+04  0.41643570896E+03 0.  0.
      99925    2    3    3    0    0  0.63466801241E+02 -0.30041096619E+02 -0.13692152256E+04  0.13960082826E+04  0.26297963540E+03 0.  0.
         25    1    3    3    0    0 -0.63466801241E+02  0.30041096619E+02 -0.82352512598E+03  0.83592562083E+03  0.12509000000E+03 0.  0.
         25    1    4    4    0    0  0.23871463629E+02  0.58660902556E+01 -0.48902641962E+03  0.50536977054E+03  0.12509000000E+03 0.  0.
         25    1    4    4    0    0  0.39595337611E+02 -0.35907186874E+02 -0.88018880601E+03  0.89063851205E+03  0.12509000000E+03 0.  0.
<mgrwt>
<rscale>  2 0.41643571E+03</rscale>
<asrwt>0</asrwt>
<pdfrwt beam="1">  1       21 0.28818785E-02 0.41643571E+03</pdfrwt>
<pdfrwt beam="2">  1       21 0.32534373E+00 0.41643571E+03</pdfrwt>
<totfact> 0.14036767E+04</totfact>
</mgrwt>
</event>
<event>
 7    0  0.4748297E-002  0.4519913E+03  0.7546771E-02  0.1027130E+00
         21   -1    0    0  502  501  0.00000000000E+00  0.00000000000E+00  0.24047182605E+03  0.24047182605E+03  0.00000000000E+00 0.  1.
         21   -1    0    0  501  502 -0.00000000000E+00 -0.00000000000E+00 -0.21239096623E+03  0.21239096623E+03  0.00000000000E+00 0.  1.
      99926    2    1    2    0    0 -0.14210854715E-13 -0.71054273576E-14  0.28080859824E+02  0.45286279228E+03  0.45199134277E+03 0.  0.
      99925    2    3    3    0    0 -0.71625229617E+02 -0.43485045727E+02  0.89668230644E+02  0.29019246596E+03  0.26296416675E+03 0.  0.
         25    1    3    3    0    0  0.71625229617E+02  0.43485045727E+02 -0.61587370820E+02  0.16267032632E+03  0.12509000000E+03 0.  0.
         25    1    4    4    0    0 -0.24812172333E+02 -0.21618425090E+01  0.69251380611E+01  0.12773324977E+03  0.12509000000E+03 0.  0.
         25    1    4    4    0    0 -0.46813057284E+02 -0.41323203218E+02  0.82743092582E+02  0.16245921619E+03  0.12509000000E+03 0.  0.
<mgrwt>
<rscale>  2 0.45199134E+03</rscale>
<asrwt>0</asrwt>
<pdfrwt beam="1">  1       21 0.35363504E-01 0.45199134E+03</pdfrwt>
<pdfrwt beam="2">  1       21 0.31233965E-01 0.45199134E+03</pdfrwt>
<totfact> 0.70377003E+04</totfact>
</mgrwt>
</event>
<event>
 7    0  0.4748297E-002  0.4575920E+03  0.7546771E-02  0.1025482E+00
         21   -1    0    0  502  501  0.00000000000E+00  0.00000000000E+00  0.80514163033E+02  0.80514163033E+02  0.00000000000E+00 0. -1.
         21   -1    0    0  501  502 -0.00000000000E+00 -0.00000000000E+00 -0.65016645790E+03  0.65016645790E+03  0.00000000000E+00 0. -1.
      99926    2    1    2    0    0  0.00000000000E+00  0.35527136788E-14 -0.56965229486E+03  0.73068062093E+03  0.45759199377E+03 0.  0.
      99925    2    3    3    0    0  0.11259193466E+03 -0.21252233499E+02 -0.38132846442E+03  0.47722061542E+03  0.26305801039E+03 0.  0.
         25    1    4    4    0    0  0.98980898674E+02 -0.78414992791E+01 -0.22897197862E+03  0.27916730200E+03  0.12509000000E+03 0.  0.
         25    1    4    4    0    0  0.13611035982E+02 -0.13410734220E+02 -0.15235648580E+03  0.19805331342E+03  0.12509000000E+03 0.  0.
         25    1    3    3    0    0 -0.11259193466E+03  0.21252233499E+02 -0.18832383044E+03  0.25346000551E+03  0.12509000000E+03 0.  0.
<mgrwt>
<rscale>  2 0.45759199E+03</rscale>
<asrwt>0</asrwt>
<pdfrwt beam="1">  1       21 0.11840318E-01 0.45759199E+03</pdfrwt>
<pdfrwt beam="2">  1       21 0.95612714E-01 0.45759199E+03</pdfrwt>
<totfact> 0.50236905E+04</totfact>
</mgrwt>
</event>
<event>
 7    0  0.4748297E-002  0.4207765E+03  0.7546771E-02  0.1036814E+00
         21   -1    0    0  502  501  0.00000000000E+00  0.00000000000E+00  0.63483244325E+02  0.63483244325E+02  0.00000000000E+00 0. -1.
         21   -1    0    0  501  502 -0.00000000000E+00 -0.00000000000E+00 -0.69724237698E+03  0.69724237698E+03  0.00000000000E+00 0. -1.
      99926    2    1    2    0    0  0.00000000000E+00  0.00000000000E+00 -0.63375913266E+03  0.76072562131E+03  0.42077646404E+03 0.  0.
      99925    2    3    3    0    0  0.37797207743E+02 -0.66389912290E+02 -0.40085110820E+03  0.48553495046E+03  0.26310896564E+03 0.  0.
         25    1    4    4    0    0 -0.10788377200E+02 -0.17967994867E+02 -0.23267911832E+03  0.26500248702E+03  0.12509000000E+03 0.  0.
         25    1    3    3    0    0 -0.37797207743E+02  0.66389912290E+02 -0.23290802446E+03  0.27519067085E+03  0.12509000000E+03 0.  0.
         25    1    4    4    0    0  0.48585584943E+02 -0.48421917423E+02 -0.16817198988E+03  0.22053246344E+03  0.12509000000E+03 0.  0.
<mgrwt>
<rscale>  2 0.42077646E+03</rscale>
<asrwt>0</asrwt>
<pdfrwt beam="1">  1       21 0.93357705E-02 0.42077646E+03</pdfrwt>
<pdfrwt beam="2">  1       21 0.10253565E+00 0.42077646E+03</pdfrwt>
<totfact> 0.65670007E+04</totfact>
</mgrwt>
</event>
<event>
 7    0  0.4748297E-002  0.4552895E+03  0.7546771E-02  0.1026156E+00
         21   -1    0    0  502  501  0.00000000000E+00  0.00000000000E+00  0.17087280155E+02  0.17087280155E+02  0.00000000000E+00 0. -1.
         21   -1    0    0  501  502 -0.00000000000E+00 -0.00000000000E+00 -0.30327895092E+04  0.30327895092E+04  0.00000000000E+00 0. -1.
      99926    2    1    2    0    0  0.00000000000E+00  0.35527136788E-14 -0.30157022291E+04  0.30498767894E+04  0.45528946395E+03 0.  0.
      99925    2    3    3    0    0 -0.11123968904E+03  0.21618975664E+02 -0.19271911697E+04  0.19483571649E+04  0.26303647871E+03 0.  0.
         25    1    3    3    0    0  0.11123968904E+03 -0.21618975664E+02 -0.10885110594E+04  0.11015196244E+04  0.12509000000E+03 0.  0.
         25    1    4    4    0    0 -0.49050818187E+02 -0.29637906264E+02 -0.93502476522E+03  0.94509428521E+03  0.12509000000E+03 0.  0.
         25    1    4    4    0    0 -0.62188870850E+02  0.51256881928E+02 -0.99216640445E+03  0.10032628797E+04  0.12509000000E+03 0.  0.
<mgrwt>
<rscale>  2 0.45528946E+03</rscale>
<asrwt>0</asrwt>
<pdfrwt beam="1">  1       21 0.25128375E-02 0.45528946E+03</pdfrwt>
<pdfrwt beam="2">  1       21 0.44599808E+00 0.45528946E+03</pdfrwt>
<totfact> 0.29725535E+03</totfact>
</mgrwt>
</event>
<event>
 7    0  0.4748297E-002  0.4169202E+03  0.7546771E-02  0.1038073E+00
         21   -1    0    0  502  501  0.00000000000E+00  0.00000000000E+00  0.90997665306E+02  0.90997665306E+02  0.00000000000E+00 0.  1.
         21   -1    0    0  501  502 -0.00000000000E+00 -0.00000000000E+00 -0.47754643867E+03  0.47754643867E+03  0.00000000000E+00 0.  1.
      99926    2    1    2    0    0  0.00000000000E+00  0.00000000000E+00 -0.38654877337E+03  0.56854410398E+03  0.41692018898E+03 0.  0.
      99925    2    3    3    0    0  0.44485047953E+02  0.55903058830E+02 -0.24088970303E+03  0.36368282323E+03  0.26293207376E+03 0.  0.
         25    1    4    4    0    0 -0.54717810129E+01  0.50108386514E+02 -0.94553503222E+02  0.16470781359E+03  0.12509000000E+03 0.  0.
         25    1    4    4    0    0  0.49956828966E+02  0.57946723160E+01 -0.14633619981E+03  0.19897500964E+03  0.12509000000E+03 0.  0.
         25    1    3    3    0    0 -0.44485047953E+02 -0.55903058830E+02 -0.14565907034E+03  0.20486128075E+03  0.12509000000E+03 0.  0.
<mgrwt>
<rscale>  2 0.41692019E+03</rscale>
<asrwt>0</asrwt>
<pdfrwt beam="1">  1       21 0.13382010E-01 0.41692019E+03</pdfrwt>
<pdfrwt beam="2">  1       21 0.70227416E-01 0.41692019E+03</pdfrwt>
<totfact> 0.82953974E+04</totfact>
</mgrwt>
</event>
<event>
 7    0  0.4748297E-002  0.3994564E+03  0.7546771E-02  0.1043968E+00
         21   -1    0    0  502  501  0.00000000000E+00  0.00000000000E+00  0.58835477896E+03  0.58835477896E+03  0.00000000000E+00 0. -1.
         21   -1    0    0  501  502 -0.00000000000E+00 -0.00000000000E+00 -0.67801527836E+02  0.67801527836E+02  0.00000000000E+00 0. -1.
      99926    2    1    2    0    0  0.00000000000E+00 -0.71054273576E-14  0.52055325113E+03  0.65615630680E+03  0.39945639523E+03 0.  0.
      99925    2    3    3    0    0 -0.21884817814E+02  0.38528542134E+02  0.34244854951E+03  0.43404780483E+03  0.26298877163E+03 0.  0.
         25    1    4    4    0    0  0.22426611447E+02 -0.39636586584E+01  0.15488453834E+03  0.20038810296E+03  0.12509000000E+03 0.  0.
         25    1    4    4    0    0 -0.44311429261E+02  0.42492200792E+02  0.18756401117E+03  0.23365970187E+03  0.12509000000E+03 0.  0.
         25    1    3    3    0    0  0.21884817814E+02 -0.38528542134E+02  0.17810470161E+03  0.22210850197E+03  0.12509000000E+03 0.  0.
<mgrwt>
<rscale>  2 0.39945640E+03</rscale>
<asrwt>0</asrwt>
<pdfrwt beam="1">  1       21 0.86522759E-01 0.39945640E+03</pdfrwt>
<pdfrwt beam="2">  1       21 0.99708132E-02 0.39945640E+03</pdfrwt>
<totfact> 0.87990295E+04</totfact>
</mgrwt>
</event>
<event>
 7    0  0.4748297E-002  0.4565688E+03  0.7546771E-02  0.1025781E+00
         21   -1    0    0  502  501  0.00000000000E+00  0.00000000000E+00  0.22607501820E+03  0.22607501820E+03  0.00000000000E+00 0.  1.
         21   -1    0    0  501  502 -0.00000000000E+00 -0.00000000000E+00 -0.23051535181E+03  0.23051535181E+03  0.00000000000E+00 0.  1.
      99926    2    1    2    0    0  0.00000000000E+00  0.00000000000E+00 -0.44403336079E+01  0.45659037002E+03  0.45656877842E+03 0.  0.
      99925    2    3    3    0    0  0.87213829336E+02  0.68400000407E+02  0.26625438146E+02  0.28659801031E+03  0.26295378582E+03 0.  0.
         25    1    4    4    0    0  0.19819422875E+02  0.44261436723E+02 -0.18824291082E+02  0.13547599912E+03  0.12509000000E+03 0.  0.
         25    1    4    4    0    0  0.67394406460E+02  0.24138563684E+02  0.45449729229E+02  0.15112201119E+03  0.12509000000E+03 0.  0.
         25    1    3    3    0    0 -0.87213829336E+02 -0.68400000407E+02 -0.31065771754E+02  0.16999235970E+03  0.12509000000E+03 0.  0.
<mgrwt>
<rscale>  2 0.45656878E+03</rscale>
<asrwt>0</asrwt>
<pdfrwt beam="1">  1       21 0.33246327E-01 0.45656878E+03</pdfrwt>
<pdfrwt beam="2">  1       21 0.33899316E-01 0.45656878E+03</pdfrwt>
<totfact> 0.67579561E+04</totfact>
</mgrwt>
</event>
<event>
 7    0  0.4748297E-002  0.4562365E+03  0.7546771E-02  0.1025878E+00
         21   -1    0    0  502  501  0.00000000000E+00  0.00000000000E+00  0.28395125561E+02  0.28395125561E+02  0.00000000000E+00 0. -1.
         21   -1    0    0  501  502 -0.00000000000E+00 -0.00000000000E+00 -0.18326363790E+04  0.18326363790E+04  0.00000000000E+00 0. -1.
      99926    2    1    2    0    0  0.00000000000E+00  0.71054273576E-14 -0.18042412534E+04  0.18610315046E+04  0.45623651800E+03 0.  0.
      99925    2    3    3    0    0 -0.89369437885E+02  0.49327062010E+02 -0.91869477487E+03  0.96088699990E+03  0.26245700927E+03 0.  0.
         25    1    3    3    0    0  0.89369437885E+02 -0.49327062010E+02 -0.88554647856E+03  0.90014450466E+03  0.12509000000E+03 0.  0.
         25    1    4    4    0    0 -0.70340851487E+01  0.35038953834E+02 -0.38439071386E+03  0.40580898911E+03  0.12509000000E+03 0.  0.
         25    1    4    4    0    0 -0.82335352737E+02  0.14288108176E+02 -0.53430406101E+03  0.55507801078E+03  0.12509000000E+03 0.  0.
<mgrwt>
<rscale>  2 0.45623652E+03</rscale>
<asrwt>0</asrwt>
<pdfrwt beam="1">  1       21 0.41757532E-02 0.45623652E+03</pdfrwt>
<pdfrwt beam="2">  1       21 0.26950539E+00 0.45623652E+03</pdfrwt>
<totfact> 0.15960649E+04</totfact>
</mgrwt>
</event>
<event>
 7    0  0.4748297E-002  0.4531941E+03  0.7546771E-02  0.1026774E+00
         21   -1    0    0  502  501  0.00000000000E+00  0.00000000000E+00  0.10595594860E+03  0.10595594860E+03  0.00000000000E+00 0. -1.
         21   -1    0    0  501  502 -0.00000000000E+00 -0.00000000000E+00 -0.48459965250E+03  0.48459965250E+03  0.00000000000E+00 0. -1.
      99926    2    1    2    0    0  0.00000000000E+00  0.00000000000E+00 -0.37864370390E+03  0.59055560110E+03  0.45319406824E+03 0.  0.
      99925    2    3    3    0    0 -0.78632125565E+02 -0.39483918583E+02 -0.14925311621E+03  0.31485732250E+03  0.26290045614E+03 0.  0.
         25    1    4    4    0    0 -0.26184159939E+02 -0.11333749496E+00 -0.10906396048E+03  0.16801213841E+03  0.12509000000E+03 0.  0.
         25    1    3    3    0    0  0.78632125565E+02  0.39483918583E+02 -0.22939058769E+03  0.27569827859E+03  0.12509000000E+03 0.  0.
         25    1    4    4    0    0 -0.52447965626E+02 -0.39370581088E+02 -0.40189155726E+02  0.14684518409E+03  0.12509000000E+03 0.  0.
<mgrwt>
<rscale>  2 0.45319407E+03</rscale>
<asrwt>0</asrwt>
<pdfrwt beam="1">  1       21 0.15581757E-01 0.45319407E+03</pdfrwt>
<pdfrwt beam="2">  1       21 0.71264654E-01 0.45319407E+03</pdfrwt>
<totfact> 0.60116849E+04</totfact>
</mgrwt>
</event>
<event>
 7    0  0.4748297E-002  0.4571492E+03  0.7546771E-02  0.1025611E+00
         21   -1    0    0  502  501  0.00000000000E+00  0.00000000000E+00  0.99612914897E+02  0.99612914897E+02  0.00000000000E+00 0.  1.
         21   -1    0    0  501  502 -0.00000000000E+00 -0.00000000000E+00 -0.52449382300E+03  0.52449382300E+03  0.00000000000E+00 0.  1.
      99926    2    1    2    0    0  0.35527136788E-14 -0.35527136788E-14 -0.42488090810E+03  0.62410673789E+03  0.45714924720E+03 0.  0.
      99925    2    3    3    0    0  0.23593246737E+02 -0.13059092250E+02 -0.11391528675E+03  0.28784150486E+03  0.26296170479E+03 0.  0.
         25    1    4    4    0    0  0.51702034004E+01  0.19471809472E+02 -0.89235494288E+02  0.15497213914E+03  0.12509000000E+03 0.  0.
         25    1    3    3    0    0 -0.23593246737E+02  0.13059092250E+02 -0.31096562136E+03  0.33626523303E+03  0.12509000000E+03 0.  0.
         25    1    4    4    0    0  0.18423043337E+02 -0.32530901723E+02 -0.24679792457E+02  0.13286936573E+03  0.12509000000E+03 0.  0.
<mgrwt>
<rscale>  2 0.45714925E+03</rscale>
<asrwt>0</asrwt>
<pdfrwt beam="1">  1       21 0.14648958E-01 0.45714925E+03</pdfrwt>
<pdfrwt beam="2">  1       21 0.77131445E-01 0.45714925E+03</pdfrwt>
<totfact> 0.56257669E+04</totfact>
</mgrwt>
</event>
<event>
 7    0  0.4748297E-002  0.4153263E+03  0.7546771E-02  0.1038598E+00
         21   -1    0    0  502  501  0.00000000000E+00  0.00000000000E+00  0.54920844245E+03  0.54920844245E+03  0.00000000000E+00 0. -1.
         21   -1    0    0  501  502 -0.00000000000E+00 -0.00000000000E+00 -0.78520245319E+02  0.78520245319E+02  0.00000000000E+00 0. -1.
      99926    2    1    2    0    0  0.00000000000E+00  0.00000000000E+00  0.47068819713E+03  0.62772868777E+03  0.41532628923E+03 0.  0.
      99925    2    3    3    0    0  0.25532788493E+02 -0.63905931785E+02  0.29858198043E+03  0.40411305921E+03  0.26347727452E+03 0.  0.
         25    1    4    4    0    0  0.12500849824E+02 -0.70963643546E+02  0.18364128094E+03  0.23358882276E+03  0.12509000000E+03 0.  0.
         25    1    4    4    0    0  0.13031938669E+02  0.70577117610E+01  0.11494069949E+03  0.17052423646E+03  0.12509000000E+03 0.  0.
         25    1    3    3    0    0 -0.25532788493E+02  0.63905931785E+02  0.17210621670E+03  0.22361562855E+03  0.12509000000E+03 0.  0.
<mgrwt>
<rscale>  2 0.41532629E+03</rscale>
<asrwt>0</asrwt>
<pdfrwt beam="1">  1       21 0.80765946E-01 0.41532629E+03</pdfrwt>
<pdfrwt beam="2">  1       21 0.11547095E-01 0.41532629E+03</pdfrwt>
<totfact> 0.78967437E+04</totfact>
</mgrwt>
</event>
<event>
 7    0  0.4748297E-002  0.4501623E+03  0.7546771E-02  0.1027674E+00
         21   -1    0    0  502  501  0.00000000000E+00  0.00000000000E+00  0.18641175713E+04  0.18641175713E+04  0.00000000000E+00 0. -1.
         21   -1    0    0  501  502 -0.00000000000E+00 -0.00000000000E+00 -0.27177217297E+02  0.27177217297E+02  0.00000000000E+00 0. -1.
      99926    2    1    2    0    0 -0.22204460493E-15  0.00000000000E+00  0.18369403540E+04  0.18912947886E+04  0.45016231873E+03 0.  0.
      99925    2    3    3    0    0  0.12302557691E+01  0.92633011831E+02  0.92330915283E+03  0.96449822609E+03  0.26301073748E+03 0.  0.
         25    1    3    3    0    0 -0.12302557691E+01 -0.92633011831E+02  0.91363120115E+03  0.92679656248E+03  0.12509000000E+03 0.  0.
         25    1    4    4    0    0 -0.52530693630E+01  0.69163832964E+02  0.60383842954E+03  0.62054781251E+03  0.12509000000E+03 0.  0.
         25    1    4    4    0    0  0.64833251322E+01  0.23469178867E+02  0.31947072329E+03  0.34395041358E+03  0.12509000000E+03 0.  0.
<mgrwt>
<rscale>  2 0.45016232E+03</rscale>
<asrwt>0</asrwt>
<pdfrwt beam="1">  1       21 0.27413485E+00 0.45016232E+03</pdfrwt>
<pdfrwt beam="2">  1       21 0.39966509E-02 0.45016232E+03</pdfrwt>
<totfact> 0.16165260E+04</totfact>
</mgrwt>
</event>
<event>
 7    0  0.4748297E-002  0.4570221E+03  0.7546771E-02  0.1025648E+00
         21   -1    0    0  502  501  0.00000000000E+00  0.00000000000E+00  0.30771607551E+03  0.30771607551E+03  0.00000000000E+00 0.  1.
         21   -1    0    0  501  502 -0.00000000000E+00 -0.00000000000E+00 -0.16969310809E+03  0.16969310809E+03  0.00000000000E+00 0.  1.
      99926    2    1    2    0    0 -0.14210854715E-13  0.00000000000E+00  0.13802296742E+03  0.47740918360E+03  0.45702208815E+03 0.  0.
      99925    2    3    3    0    0  0.83263358174E+02 -0.63351773652E+02  0.13667805315E+03  0.31432775936E+03  0.26301105690E+03 0.  0.
         25    1    4    4    0    0  0.78154660414E+02 -0.31588617799E+02  0.96471226821E+02  0.17905361606E+03  0.12509000000E+03 0.  0.
         25    1    4    4    0    0  0.51086977601E+01 -0.31763155853E+02  0.40206826330E+02  0.13527414330E+03  0.12509000000E+03 0.  0.
         25    1    3    3    0    0 -0.83263358174E+02  0.63351773652E+02  0.13449142731E+01  0.16308142424E+03  0.12509000000E+03 0.  0.
<mgrwt>
<rscale>  2 0.45702209E+03</rscale>
<asrwt>0</asrwt>
<pdfrwt beam="1">  1       21 0.45252364E-01 0.45702209E+03</pdfrwt>
<pdfrwt beam="2">  1       21 0.24954869E-01 0.45702209E+03</pdfrwt>
<totfact> 0.65826445E+04</totfact>
</mgrwt>
</event>
<event>
 7    0  0.4748297E-002  0.4484302E+03  0.7546771E-02  0.1028191E+00
         21   -1    0    0  502  501  0.00000000000E+00  0.00000000000E+00  0.99125754897E+02  0.99125754897E+02  0.00000000000E+00 0. -1.
         21   -1    0    0  501  502 -0.00000000000E+00 -0.00000000000E+00 -0.50715785787E+03  0.50715785787E+03  0.00000000000E+00 0. -1.
      99926    2    1    2    0    0  0.00000000000E+00  0.00000000000E+00 -0.40803210297E+03  0.60628361276E+03  0.44843017522E+03 0.  0.
      99925    2    3    3    0    0 -0.86922628965E+02  0.53644936055E+02 -0.21599669074E+03  0.35536842741E+03  0.26305669769E+03 0.  0.
         25    1    4    4    0    0 -0.44944186561E+02 -0.33298728606E+01 -0.13887481434E+03  0.19226229510E+03  0.12509000000E+03 0.  0.
         25    1    4    4    0    0 -0.41978442405E+02  0.56974808916E+02 -0.77121876398E+02  0.16310613231E+03  0.12509000000E+03 0.  0.
         25    1    3    3    0    0  0.86922628965E+02 -0.53644936055E+02 -0.19203541223E+03  0.25091518535E+03  0.12509000000E+03 0.  0.
<mgrwt>
<rscale>  2 0.44843018E+03</rscale>
<asrwt>0</asrwt>
<pdfrwt beam="1">  1       21 0.14577317E-01 0.44843018E+03</pdfrwt>
<pdfrwt beam="2">  1       21 0.74582035E-01 0.44843018E+03</pdfrwt>
<totfact> 0.61419190E+04</totfact>
</mgrwt>
</event>
<event>
 7    0  0.4748297E-002  0.4503981E+03  0.7546771E-02  0.1027603E+00
         21   -1    0    0  502  501  0.00000000000E+00  0.00000000000E+00  0.19462385071E+03  0.19462385071E+03  0.00000000000E+00 0.  1.
         21   -1    0    0  501  502 -0.00000000000E+00 -0.00000000000E+00 -0.26057760920E+03  0.26057760920E+03  0.00000000000E+00 0.  1.
      99926    2    1    2    0    0 -0.17763568394E-14  0.00000000000E+00 -0.65953758493E+02  0.45520145991E+03  0.45039812482E+03 0.  0.
      99925    2    3    3    0    0  0.77570950807E+01 -0.10837780915E+03 -0.35172409547E+02  0.28667573017E+03  0.26294477336E+03 0.  0.
         25    1    4    4    0    0  0.23615112616E+02 -0.62742929835E+02 -0.52802720598E+02  0.15142649765E+03  0.12509000000E+03 0.  0.
         25    1    4    4    0    0 -0.15858017536E+02 -0.45634879313E+02  0.17630311051E+02  0.13524923252E+03  0.12509000000E+03 0.  0.
         25    1    3    3    0    0 -0.77570950807E+01  0.10837780915E+03 -0.30781348947E+02  0.16852572973E+03  0.12509000000E+03 0.  0.
<mgrwt>
<rscale>  2 0.45039812E+03</rscale>
<asrwt>0</asrwt>
<pdfrwt beam="1">  1       21 0.28621155E-01 0.45039812E+03</pdfrwt>
<pdfrwt beam="2">  1       21 0.38320236E-01 0.45039812E+03</pdfrwt>
<totfact> 0.71105557E+04</totfact>
</mgrwt>
</event>
<event>
 7    0  0.4748297E-002  0.4569496E+03  0.7546771E-02  0.1025670E+00
         21   -1    0    0  502  501  0.00000000000E+00  0.00000000000E+00  0.33300230925E+03  0.33300230925E+03  0.00000000000E+00 0.  1.
         21   -1    0    0  501  502 -0.00000000000E+00 -0.00000000000E+00 -0.15675787732E+03  0.15675787732E+03  0.00000000000E+00 0.  1.
      99926    2    1    2    0    0  0.00000000000E+00  0.00000000000E+00  0.17624443193E+03  0.48976018657E+03  0.45694960396E+03 0.  0.
      99925    2    3    3    0    0  0.19267923020E+02  0.10736294957E+03  0.15010847623E+03  0.32174634167E+03  0.26284995329E+03 0.  0.
         25    1    3    3    0    0 -0.19267923020E+02 -0.10736294957E+03  0.26135955696E+02  0.16801384490E+03  0.12509000000E+03 0.  0.
         25    1    4    4    0    0  0.34576196078E+01  0.45589007231E+02  0.11749590341E+03  0.17760379538E+03  0.12509000000E+03 0.  0.
         25    1    4    4    0    0  0.15810303412E+02  0.61773942339E+02  0.32612572823E+02  0.14414254629E+03  0.12509000000E+03 0.  0.
<mgrwt>
<rscale>  2 0.45694960E+03</rscale>
<asrwt>0</asrwt>
<pdfrwt beam="1">  1       21 0.48970928E-01 0.45694960E+03</pdfrwt>
<pdfrwt beam="2">  1       21 0.23052629E-01 0.45694960E+03</pdfrwt>
<totfact> 0.64984581E+04</totfact>
</mgrwt>
</event>
<event>
 7    0  0.4748297E-002  0.4517911E+03  0.7546771E-02  0.1027189E+00
         21   -1    0    0  502  501  0.00000000000E+00  0.00000000000E+00  0.63628660623E+03  0.63628660623E+03  0.00000000000E+00 0. -1.
         21   -1    0    0  501  502 -0.00000000000E+00 -0.00000000000E+00 -0.80197835641E+02  0.80197835641E+02  0.00000000000E+00 0. -1.
      99926    2    1    2    0    0  0.00000000000E+00  0.00000000000E+00  0.55608877059E+03  0.71648444187E+03  0.45179114054E+03 0.  0.
      99925    2    3    3    0    0 -0.31100842907E+02  0.84857417926E+02  0.25096243765E+03  0.37455223958E+03  0.26294332329E+03 0.  0.
         25    1    3    3    0    0  0.31100842907E+02 -0.84857417926E+02  0.30512633294E+03  0.34193220229E+03  0.12509000000E+03 0.  0.
         25    1    4    4    0    0 -0.23601111268E+02  0.41876291849E+02  0.72719118054E+02  0.15246709318E+03  0.12509000000E+03 0.  0.
         25    1    4    4    0    0 -0.74997316385E+01  0.42981126077E+02  0.17824331959E+03  0.22208514640E+03  0.12509000000E+03 0.  0.
<mgrwt>
<rscale>  2 0.45179114E+03</rscale>
<asrwt>0</asrwt>
<pdfrwt beam="1">  1       21 0.93571557E-01 0.45179114E+03</pdfrwt>
<pdfrwt beam="2">  1       21 0.11793800E-01 0.45179114E+03</pdfrwt>
<totfact> 0.53351087E+04</totfact>
</mgrwt>
</event>
<event>
 7    0  0.4748297E-002  0.4590948E+03  0.7546771E-02  0.1025044E+00
         21   -1    0    0  502  501  0.00000000000E+00  0.00000000000E+00  0.90840560064E+03  0.90840560064E+03  0.00000000000E+00 0.  1.
         21   -1    0    0  501  502 -0.00000000000E+00 -0.00000000000E+00 -0.58004937715E+02  0.58004937715E+02  0.00000000000E+00 0.  1.
      99926    2    1    2    0    0  0.35527136788E-14 -0.71054273576E-14  0.85040066293E+03  0.96641053836E+03  0.45909480627E+03 0.  0.
      99925    2    3    3    0    0 -0.29721925932E+02  0.54929376273E+02  0.32486531205E+03  0.42259481371E+03  0.26296059845E+03 0.  0.
         25    1    4    4    0    0 -0.32301560552E+02  0.11674945992E+02  0.10931289386E+03  0.16963641131E+03  0.12509000000E+03 0.  0.
         25    1    3    3    0    0  0.29721925932E+02 -0.54929376273E+02  0.52553535088E+03  0.54381572465E+03  0.12509000000E+03 0.  0.
         25    1    4    4    0    0  0.25796346199E+01  0.43254430281E+02  0.21555241820E+03  0.25295840240E+03  0.12509000000E+03 0.  0.
<mgrwt>
<rscale>  2 0.45909481E+03</rscale>
<asrwt>0</asrwt>
<pdfrwt beam="1">  1       21 0.13358905E+00 0.45909481E+03</pdfrwt>
<pdfrwt beam="2">  1       21 0.85301384E-02 0.45909481E+03</pdfrwt>
<totfact> 0.39212853E+04</totfact>
</mgrwt>
</event>
<event>
 7    0  0.4748297E-002  0.4336780E+03  0.7546771E-02  0.1032704E+00
         21   -1    0    0  502  501  0.00000000000E+00  0.00000000000E+00  0.89132272048E+03  0.89132272048E+03  0.00000000000E+00 0. -1.
         21   -1    0    0  501  502 -0.00000000000E+00 -0.00000000000E+00 -0.52752107803E+02  0.52752107803E+02  0.00000000000E+00 0. -1.
      99926    2    1    2    0    0  0.00000000000E+00 -0.16653345369E-15  0.83857061268E+03  0.94407482828E+03  0.43367800146E+03 0.  0.
      99925    2    3    3    0    0 -0.53015639525E+02 -0.88396474450E-01  0.37117962095E+03  0.45733823310E+03  0.26186500834E+03 0.  0.
         25    1    3    3    0    0  0.53015639525E+02  0.88396474450E-01  0.46739099173E+03  0.48673659519E+03  0.12509000000E+03 0.  0.
         25    1    4    4    0    0 -0.23771197111E+02  0.13259513923E+02  0.12283615630E+03  0.17741790754E+03  0.12509000000E+03 0.  0.
         25    1    4    4    0    0 -0.29244442414E+02 -0.13347910397E+02  0.24834346465E+03  0.27992032556E+03  0.12509000000E+03 0.  0.
<mgrwt>
<rscale>  2 0.43367800E+03</rscale>
<asrwt>0</asrwt>
<pdfrwt beam="1">  1       21 0.13107686E+00 0.43367800E+03</pdfrwt>
<pdfrwt beam="2">  1       21 0.77576635E-02 0.43367800E+03</pdfrwt>
<totfact> 0.49066270E+04</totfact>
</mgrwt>
</event>
<event>
 7    0  0.4748297E-002  0.4521698E+03  0.7546771E-02  0.1027077E+00
         21   -1    0    0  502  501  0.00000000000E+00  0.00000000000E+00  0.47890094570E+02  0.47890094570E+02  0.00000000000E+00 0.  1.
         21   -1    0    0  501  502 -0.00000000000E+00 -0.00000000000E+00 -0.10673267714E+04  0.10673267714E+04  0.00000000000E+00 0.  1.
      99926    2    1    2    0    0  0.00000000000E+00  0.44408920985E-14 -0.10194366768E+04  0.11152168660E+04  0.45216979120E+03 0.  0.
      99925    2    3    3    0    0  0.10494272304E+03  0.12593005832E+01 -0.55732997106E+03  0.62511006478E+03  0.26292838471E+03 0.  0.
         25    1    4    4    0    0  0.44100108845E+02 -0.33401942827E+02 -0.31738560937E+03  0.34560330224E+03  0.12509000000E+03 0.  0.
         25    1    3    3    0    0 -0.10494272304E+03 -0.12593005832E+01 -0.46210670578E+03  0.49010680120E+03  0.12509000000E+03 0.  0.
         25    1    4    4    0    0  0.60842614196E+02  0.34661243410E+02 -0.23994436169E+03  0.27950676254E+03  0.12509000000E+03 0.  0.
<mgrwt>
<rscale>  2 0.45216979E+03</rscale>
<asrwt>0</asrwt>
<pdfrwt beam="1">  1       21 0.70426616E-02 0.45216979E+03</pdfrwt>
<pdfrwt beam="2">  1       21 0.15695980E+00 0.45216979E+03</pdfrwt>
<totfact> 0.35747422E+04</totfact>
</mgrwt>
</event>
<event>
 7    0  0.4748297E-002  0.4546704E+03  0.7546771E-02  0.1026338E+00
         21   -1    0    0  502  501  0.00000000000E+00  0.00000000000E+00  0.10029847379E+04  0.10029847379E+04  0.00000000000E+00 0.  1.
         21   -1    0    0  501  502 -0.00000000000E+00 -0.00000000000E+00 -0.51527493344E+02  0.51527493344E+02  0.00000000000E+00 0.  1.
      99926    2    1    2    0    0 -0.27755575616E-16  0.00000000000E+00  0.95145724454E+03  0.10545122312E+04  0.45467038349E+03 0.  0.
      99925    2    3    3    0    0 -0.16363462124E+00 -0.11271869286E+03  0.60911233185E+03  0.67299804035E+03  0.26306462896E+03 0.  0.
         25    1    3    3    0    0  0.16363462124E+00  0.11271869286E+03  0.34234491269E+03  0.38151419087E+03  0.12509000000E+03 0.  0.
         25    1    4    4    0    0  0.17672925424E+02 -0.70282322538E+02  0.39678119594E+03  0.42229700769E+03  0.12509000000E+03 0.  0.
         25    1    4    4    0    0 -0.17836560045E+02 -0.42436370317E+02  0.21233113591E+03  0.25070103266E+03  0.12509000000E+03 0.  0.
<mgrwt>
<rscale>  2 0.45467038E+03</rscale>
<asrwt>0</asrwt>
<pdfrwt beam="1">  1       21 0.14749774E+00 0.45467038E+03</pdfrwt>
<pdfrwt beam="2">  1       21 0.75775732E-02 0.45467038E+03</pdfrwt>
<totfact> 0.37207885E+04</totfact>
</mgrwt>
</event>
<event>
 7    0  0.4748297E-002  0.4575236E+03  0.7546771E-02  0.1025502E+00
         21   -1    0    0  502  501  0.00000000000E+00  0.00000000000E+00  0.17496978370E+04  0.17496978370E+04  0.00000000000E+00 0.  1.
         21   -1    0    0  501  502 -0.00000000000E+00 -0.00000000000E+00 -0.29909142203E+02  0.29909142203E+02  0.00000000000E+00 0.  1.
      99926    2    1    2    0    0  0.00000000000E+00  0.00000000000E+00  0.17197886948E+04  0.17796069792E+04  0.45752360122E+03 0.  0.
      99925    2    3    3    0    0 -0.85960716583E+02 -0.45019460391E+02  0.83644767339E+03  0.88219132032E+03  0.26306048490E+03 0.  0.
         25    1    4    4    0    0 -0.24038605100E+02  0.90403309190E+01  0.32155955746E+03  0.34598791773E+03  0.12509000000E+03 0.  0.
         25    1    3    3    0    0  0.85960716583E+02  0.45019460391E+02  0.88334102143E+03  0.89741565890E+03  0.12509000000E+03 0.  0.
         25    1    4    4    0    0 -0.61922111484E+02 -0.54059791310E+02  0.51488811593E+03  0.53620340259E+03  0.12509000000E+03 0.  0.
<mgrwt>
<rscale>  2 0.45752360E+03</rscale>
<asrwt>0</asrwt>
<pdfrwt beam="1">  1       21 0.25730844E+00 0.45752360E+03</pdfrwt>
<pdfrwt beam="2">  1       21 0.43984044E-02 0.45752360E+03</pdfrwt>
<totfact> 0.17312922E+04</totfact>
</mgrwt>
</event>
<event>
 7    0  0.4748297E-002  0.4538374E+03  0.7546771E-02  0.1026584E+00
         21   -1    0    0  502  501  0.00000000000E+00  0.00000000000E+00  0.11470268601E+03  0.11470268601E+03  0.00000000000E+00 0.  1.
         21   -1    0    0  501  502 -0.00000000000E+00 -0.00000000000E+00 -0.44891787940E+03  0.44891787940E+03  0.00000000000E+00 0.  1.
      99926    2    1    2    0    0 -0.71054273576E-14  0.71054273576E-14 -0.33421519339E+03  0.56362056542E+03  0.45383735662E+03 0.  0.
      99925    2    3    3    0    0 -0.37621054937E+02  0.59459562524E+02 -0.31883613714E+03  0.41927789390E+03  0.26303362259E+03 0.  0.
         25    1    4    4    0    0  0.11648799578E+01  0.60144751836E+02 -0.13556386194E+03  0.19402014556E+03  0.12509000000E+03 0.  0.
         25    1    3    3    0    0  0.37621054937E+02 -0.59459562524E+02 -0.15379056250E+02  0.14434267152E+03  0.12509000000E+03 0.  0.
         25    1    4    4    0    0 -0.38785934895E+02 -0.68518931224E+00 -0.18327227519E+03  0.22525774834E+03  0.12509000000E+03 0.  0.
<mgrwt>
<rscale>  2 0.45383736E+03</rscale>
<asrwt>0</asrwt>
<pdfrwt beam="1">  1       21 0.16868042E-01 0.45383736E+03</pdfrwt>
<pdfrwt beam="2">  1       21 0.66017336E-01 0.45383736E+03</pdfrwt>
<totfact> 0.61539261E+04</totfact>
</mgrwt>
</event>
<event>
 7    0  0.4748297E-002  0.4454207E+03  0.7546771E-02  0.1029097E+00
         21   -1    0    0  502  501  0.00000000000E+00  0.00000000000E+00  0.41592445994E+02  0.41592445994E+02  0.00000000000E+00 0.  1.
         21   -1    0    0  501  502 -0.00000000000E+00 -0.00000000000E+00 -0.11925216924E+04  0.11925216924E+04  0.00000000000E+00 0.  1.
      99926    2    1    2    0    0 -0.26645352591E-14  0.17763568394E-14 -0.11509292464E+04  0.12341141384E+04  0.44542067346E+03 0.  0.
      99925    2    3    3    0    0 -0.53392987843E+01  0.10936645636E+02 -0.44509654082E+03  0.51717938912E+03  0.26308833414E+03 0.  0.
         25    1    4    4    0    0 -0.28539454997E+02  0.35438220575E+02 -0.20669784447E+03  0.24584929323E+03  0.12509000000E+03 0.  0.
         25    1    3    3    0    0  0.53392987843E+01 -0.10936645636E+02 -0.70583270557E+03  0.71693474925E+03  0.12509000000E+03 0.  0.
         25    1    4    4    0    0  0.23200156212E+02 -0.24501574939E+02 -0.23839869634E+03  0.27133009590E+03  0.12509000000E+03 0.  0.
<mgrwt>
<rscale>  2 0.44542067E+03</rscale>
<asrwt>0</asrwt>
<pdfrwt beam="1">  1       21 0.61165372E-02 0.44542067E+03</pdfrwt>
<pdfrwt beam="2">  1       21 0.17537081E+00 0.44542067E+03</pdfrwt>
<totfact> 0.33520772E+04</totfact>
</mgrwt>
</event>
<event>
 7    0  0.4748297E-002  0.4442455E+03  0.7546771E-02  0.1029452E+00
         21   -1    0    0  502  501  0.00000000000E+00  0.00000000000E+00  0.60616480332E+02  0.60616480332E+02  0.00000000000E+00 0. -1.
         21   -1    0    0  501  502 -0.00000000000E+00 -0.00000000000E+00 -0.81394544019E+03  0.81394544019E+03  0.00000000000E+00 0. -1.
      99926    2    1    2    0    0  0.00000000000E+00  0.71054273576E-14 -0.75332895985E+03  0.87456192052E+03  0.44424546263E+03 0.  0.
      99925    2    3    3    0    0  0.63548015747E+02  0.36672842760E+02 -0.33723584663E+03  0.43392121124E+03  0.26301397988E+03 0.  0.
         25    1    4    4    0    0  0.25976871965E+02  0.45618739755E+02 -0.12449663759E+03  0.18412709786E+03  0.12509000000E+03 0.  0.
         25    1    3    3    0    0 -0.63548015747E+02 -0.36672842760E+02 -0.41609311322E+03  0.44064070928E+03  0.12509000000E+03 0.  0.
         25    1    4    4    0    0  0.37571143782E+02 -0.89458969944E+01 -0.21273920905E+03  0.24979411339E+03  0.12509000000E+03 0.  0.
<mgrwt>
<rscale>  2 0.44424546E+03</rscale>
<asrwt>0</asrwt>
<pdfrwt beam="1">  1       21 0.89141889E-02 0.44424546E+03</pdfrwt>
<pdfrwt beam="2">  1       21 0.11969785E+00 0.44424546E+03</pdfrwt>
<totfact> 0.48293148E+04</totfact>
</mgrwt>
</event>
<event>
 7    0  0.4748297E-002  0.4466436E+03  0.7546771E-02  0.1028728E+00
         21   -1    0    0  502  501  0.00000000000E+00  0.00000000000E+00  0.18131770967E+03  0.18131770967E+03  0.00000000000E+00 0.  1.
         21   -1    0    0  501  502 -0.00000000000E+00 -0.00000000000E+00 -0.27505661452E+03  0.27505661452E+03  0.00000000000E+00 0.  1.
      99926    2    1    2    0    0  0.35527136788E-14  0.14210854715E-13 -0.93738904850E+02  0.45637432420E+03  0.44664364040E+03 0.  0.
      99925    2    3    3    0    0  0.28754652603E+02  0.68079651049E+02 -0.13595973664E+03  0.30507404109E+03  0.26291339187E+03 0.  0.
         25    1    4    4    0    0 -0.18288327979E+01 -0.25875668002E+00 -0.43541385650E+02  0.13246422894E+03  0.12509000000E+03 0.  0.
         25    1    4    4    0    0  0.30583485401E+02  0.68338407729E+02 -0.92418350986E+02  0.17260981215E+03  0.12509000000E+03 0.  0.
         25    1    3    3    0    0 -0.28754652603E+02 -0.68079651049E+02  0.42220831786E+02  0.15130028311E+03  0.12509000000E+03 0.  0.
<mgrwt>
<rscale>  2 0.44664364E+03</rscale>
<asrwt>0</asrwt>
<pdfrwt beam="1">  1       21 0.26664370E-01 0.44664364E+03</pdfrwt>
<pdfrwt beam="2">  1       21 0.40449501E-01 0.44664364E+03</pdfrwt>
<totfact> 0.73195790E+04</totfact>
</mgrwt>
</event>
<event>
 7    0  0.4748297E-002  0.4806885E+03  0.7546771E-02  0.1018946E+00
         21   -1    0    0  502  501  0.00000000000E+00  0.00000000000E+00  0.62307460312E+02  0.62307460312E+02  0.00000000000E+00 0. -1.
         21   -1    0    0  501  502 -0.00000000000E+00 -0.00000000000E+00 -0.92710175928E+03  0.92710175928E+03  0.00000000000E+00 0. -1.
      99926    2    1    2    0    0  0.00000000000E+00  0.00000000000E+00 -0.86479429897E+03  0.98940921959E+03  0.48068848986E+03 0.  0.
      99925    2    3    3    0    0 -0.60402362374E+02  0.10771385936E+03 -0.64906043177E+03  0.71112998854E+03  0.26301272903E+03 0.  0.
         25    1    3    3    0    0  0.60402362374E+02 -0.10771385936E+03 -0.21573386720E+03  0.27827923105E+03  0.12509000000E+03 0.  0.
         25    1    4    4    0    0 -0.49702474818E+02  0.77034452859E+02 -0.27981287649E+03  0.31991779706E+03  0.12509000000E+03 0.  0.
         25    1    4    4    0    0 -0.10699887556E+02  0.30679406501E+02 -0.36924755529E+03  0.39121219148E+03  0.12509000000E+03 0.  0.
<mgrwt>
<rscale>  2 0.48068849E+03</rscale>
<asrwt>0</asrwt>
<pdfrwt beam="1">  1       21 0.91628629E-02 0.48068849E+03</pdfrwt>
<pdfrwt beam="2">  1       21 0.13633848E+00 0.48068849E+03</pdfrwt>
<totfact> 0.32540864E+04</totfact>
</mgrwt>
</event>
<event>
 7    0  0.4748297E-002  0.4516209E+03  0.7546771E-02  0.1027240E+00
         21   -1    0    0  502  501  0.00000000000E+00  0.00000000000E+00  0.49982013092E+03  0.49982013092E+03  0.00000000000E+00 0. -1.
         21   -1    0    0  501  502 -0.00000000000E+00 -0.00000000000E+00 -0.10201743126E+03  0.10201743126E+03  0.00000000000E+00 0. -1.
      99926    2    1    2    0    0  0.71054273576E-14  0.00000000000E+00  0.39780269965E+03  0.60183756218E+03  0.45162092887E+03 0.  0.
      99925    2    3    3    0    0  0.56563265784E+02 -0.78005452029E+02  0.18005850858E+03  0.33286861521E+03  0.26286155082E+03 0.  0.
         25    1    4    4    0    0  0.15760726465E+02  0.15644984581E+01  0.85800558197E+02  0.15251259634E+03  0.12509000000E+03 0.  0.
         25    1    3    3    0    0 -0.56563265784E+02  0.78005452029E+02  0.21774419108E+03  0.26896894696E+03  0.12509000000E+03 0.  0.
         25    1    4    4    0    0  0.40802539319E+02 -0.79569950487E+02  0.94257950378E+02  0.18035601888E+03  0.12509000000E+03 0.  0.
<mgrwt>
<rscale>  2 0.45162093E+03</rscale>
<asrwt>0</asrwt>
<pdfrwt beam="1">  1       21 0.73502959E-01 0.45162093E+03</pdfrwt>
<pdfrwt beam="2">  1       21 0.15002564E-01 0.45162093E+03</pdfrwt>
<totfact> 0.60155257E+04</totfact>
</mgrwt>
</event>
<event>
 7    0  0.4748297E-002  0.4578919E+03  0.7546771E-02  0.1025394E+00
         21   -1    0    0  502  501  0.00000000000E+00  0.00000000000E+00  0.19144550778E+03  0.19144550778E+03  0.00000000000E+00 0. -1.
         21   -1    0    0  501  502 -0.00000000000E+00 -0.00000000000E+00 -0.27379194563E+03  0.27379194563E+03  0.00000000000E+00 0. -1.
      99926    2    1    2    0    0  0.00000000000E+00  0.00000000000E+00 -0.82346437851E+02  0.46523745341E+03  0.45789185647E+03 0.  0.
      99925    2    3    3    0    0 -0.62861268187E+02  0.39150336341E+02 -0.14071127914E+03  0.30859055534E+03  0.26446961810E+03 0.  0.
         25    1    3    3    0    0  0.62861268187E+02 -0.39150336341E+02  0.58364841285E+02  0.15664689806E+03  0.12509000000E+03 0.  0.
         25    1    4    4    0    0  0.44893286318E+01 -0.30842983799E+01 -0.78964331706E+02  0.14802885107E+03  0.12509000000E+03 0.  0.
         25    1    4    4    0    0 -0.67350596819E+02  0.42234634721E+02 -0.61746947430E+02  0.16056170427E+03  0.12509000000E+03 0.  0.
<mgrwt>
<rscale>  2 0.45789186E+03</rscale>
<asrwt>0</asrwt>
<pdfrwt beam="1">  1       21 0.28153751E-01 0.45789186E+03</pdfrwt>
<pdfrwt beam="2">  1       21 0.40263521E-01 0.45789186E+03</pdfrwt>
<totfact> 0.66256237E+04</totfact>
</mgrwt>
</event>
<event>
 7    0  0.4748297E-002  0.4556707E+03  0.7546771E-02  0.1026044E+00
         21   -1    0    0  502  501  0.00000000000E+00  0.00000000000E+00  0.60974722404E+03  0.60974722404E+03  0.00000000000E+00 0. -1.
         21   -1    0    0  501  502 -0.00000000000E+00 -0.00000000000E+00 -0.85131913018E+02  0.85131913018E+02  0.00000000000E+00 0. -1.
      99926    2    1    2    0    0  0.00000000000E+00  0.71054273576E-14  0.52461531102E+03  0.69487913706E+03  0.45567070408E+03 0.  0.
      99925    2    3    3    0    0 -0.83908121966E+02 -0.41651769024E+02  0.23046780212E+03  0.36179400096E+03  0.26268621685E+03 0.  0.
         25    1    3    3    0    0  0.83908121966E+02  0.41651769024E+02  0.29414750890E+03  0.33308513609E+03  0.12509000000E+03 0.  0.
         25    1    4    4    0    0 -0.49716238553E+02 -0.54587427066E+02  0.14908841242E+03  0.20814983639E+03  0.12509000000E+03 0.  0.
         25    1    4    4    0    0 -0.34191883414E+02  0.12935658042E+02  0.81379389699E+02  0.15364416458E+03  0.12509000000E+03 0.  0.
<mgrwt>
<rscale>  2 0.45567070E+03</rscale>
<asrwt>0</asrwt>
<pdfrwt beam="1">  1       21 0.89668707E-01 0.45567070E+03</pdfrwt>
<pdfrwt beam="2">  1       21 0.12519399E-01 0.45567070E+03</pdfrwt>
<totfact> 0.52902076E+04</totfact>
</mgrwt>
</event>
<event>
 7    0  0.4748297E-002  0.4547854E+03  0.7546771E-02  0.1026305E+00
         21   -1    0    0  502  501  0.00000000000E+00  0.00000000000E+00  0.47906418320E+03  0.47906418320E+03  0.00000000000E+00 0. -1.
         21   -1    0    0  501  502 -0.00000000000E+00 -0.00000000000E+00 -0.10793425753E+03  0.10793425753E+03  0.00000000000E+00 0. -1.
      99926    2    1    2    0    0 -0.71054273576E-14 -0.71054273576E-14  0.37112992567E+03  0.58699844074E+03  0.45478538641E+03 0.  0.
      99925    2    3    3    0    0  0.53011504240E+02  0.42530030858E+02  0.35005167403E+03  0.44308588430E+03  0.26300171724E+03 0.  0.
         25    1    4    4    0    0  0.18513541584E+02  0.33096720282E+02  0.11347998536E+03  0.17309927583E+03  0.12509000000E+03 0.  0.
         25    1    4    4    0    0  0.34497962656E+02  0.94333105760E+01  0.23657168867E+03  0.26998660847E+03  0.12509000000E+03 0.  0.
         25    1    3    3    0    0 -0.53011504240E+02 -0.42530030858E+02  0.21078251648E+02  0.14391255643E+03  0.12509000000E+03 0.  0.
<mgrwt>
<rscale>  2 0.45478539E+03</rscale>
<asrwt>0</asrwt>
<pdfrwt beam="1">  1       21 0.70450614E-01 0.45478539E+03</pdfrwt>
<pdfrwt beam="2">  1       21 0.15872685E-01 0.45478539E+03</pdfrwt>
<totfact> 0.59586783E+04</totfact>
</mgrwt>
</event>
<event>
 7    0  0.4748297E-002  0.4554894E+03  0.7546771E-02  0.1026098E+00
         21   -1    0    0  502  501  0.00000000000E+00  0.00000000000E+00  0.55963883363E+03  0.55963883363E+03  0.00000000000E+00 0. -1.
         21   -1    0    0  501  502 -0.00000000000E+00 -0.00000000000E+00 -0.92680579653E+02  0.92680579653E+02  0.00000000000E+00 0. -1.
      99926    2    1    2    0    0  0.00000000000E+00  0.00000000000E+00  0.46695825398E+03  0.65231941328E+03  0.45548941369E+03 0.  0.
      99925    2    3    3    0    0  0.22751809531E+02  0.10165758319E+03  0.23027509746E+03  0.36505936779E+03  0.26341946102E+03 0.  0.
         25    1    4    4    0    0  0.98184472153E+01  0.81953846016E+02  0.86527030662E+02  0.17305279517E+03  0.12509000000E+03 0.  0.
         25    1    4    4    0    0  0.12933362316E+02  0.19703737176E+02  0.14374806680E+03  0.19200657262E+03  0.12509000000E+03 0.  0.
         25    1    3    3    0    0 -0.22751809531E+02 -0.10165758319E+03  0.23668315652E+03  0.28726004549E+03  0.12509000000E+03 0.  0.
<mgrwt>
<rscale>  2 0.45548941E+03</rscale>
<asrwt>0</asrwt>
<pdfrwt beam="1">  1       21 0.82299827E-01 0.45548941E+03</pdfrwt>
<pdfrwt beam="2">  1       21 0.13629497E-01 0.45548941E+03</pdfrwt>
<totfact> 0.55354055E+04</totfact>
</mgrwt>
</event>
<event>
 7    0  0.4748297E-002  0.4564030E+03  0.7546771E-02  0.1025830E+00
         21   -1    0    0  502  501  0.00000000000E+00  0.00000000000E+00  0.13974151259E+04  0.13974151259E+04  0.00000000000E+00 0.  1.
         21   -1    0    0  501  502 -0.00000000000E+00 -0.00000000000E+00 -0.37265894907E+02  0.37265894907E+02  0.00000000000E+00 0.  1.
      99926    2    1    2    0    0  0.00000000000E+00  0.00000000000E+00  0.13601492310E+04  0.14346810208E+04  0.45640300272E+03 0.  0.
      99925    2    3    3    0    0 -0.41663221509E+02  0.10579500140E+03  0.81032313893E+03  0.85945528602E+03  0.26289045786E+03 0.  0.
         25    1    4    4    0    0 -0.46474017513E+02  0.37489093971E+02  0.48119617624E+03  0.50076195402E+03  0.12509000000E+03 0.  0.
         25    1    3    3    0    0  0.41663221509E+02 -0.10579500140E+03  0.54982609205E+03  0.57522573478E+03  0.12509000000E+03 0.  0.
         25    1    4    4    0    0  0.48107960050E+01  0.68305907429E+02  0.32912696269E+03  0.35869333200E+03  0.12509000000E+03 0.  0.
<mgrwt>
<rscale>  2 0.45640300E+03</rscale>
<asrwt>0</asrwt>
<pdfrwt beam="1">  1       21 0.20550219E+00 0.45640300E+03</pdfrwt>
<pdfrwt beam="2">  1       21 0.54802796E-02 0.45640300E+03</pdfrwt>
<totfact> 0.25147064E+04</totfact>
</mgrwt>
</event>
<event>
 7    0  0.4748297E-002  0.4551654E+03  0.7546771E-02  0.1026193E+00
         21   -1    0    0  502  501  0.00000000000E+00  0.00000000000E+00  0.13239478653E+03  0.13239478653E+03  0.00000000000E+00 0. -1.
         21   -1    0    0  501  502 -0.00000000000E+00 -0.00000000000E+00 -0.39120783173E+03  0.39120783173E+03  0.00000000000E+00 0. -1.
      99926    2    1    2    0    0 -0.17763568394E-14  0.00000000000E+00 -0.25881304520E+03  0.52360261826E+03  0.45516536498E+03 0.  0.
      99925    2    3    3    0    0 -0.14933578057E+02 -0.91106722555E+02 -0.23891736370E+03  0.36686464299E+03  0.26264941072E+03 0.  0.
         25    1    4    4    0    0  0.32268541603E+02 -0.49636466742E+02 -0.11622979655E+03  0.18072606706E+03  0.12509000000E+03 0.  0.
         25    1    3    3    0    0  0.14933578057E+02  0.91106722555E+02 -0.19895681501E+02  0.15673797527E+03  0.12509000000E+03 0.  0.
         25    1    4    4    0    0 -0.47202119660E+02 -0.41470255813E+02 -0.12268756714E+03  0.18613857593E+03  0.12509000000E+03 0.  0.
<mgrwt>
<rscale>  2 0.45516536E+03</rscale>
<asrwt>0</asrwt>
<pdfrwt beam="1">  1       21 0.19469822E-01 0.45516536E+03</pdfrwt>
<pdfrwt beam="2">  1       21 0.57530562E-01 0.45516536E+03</pdfrwt>
<totfact> 0.63558270E+04</totfact>
</mgrwt>
</event>
<event>
 7    0  0.4748297E-002  0.4553428E+03  0.7546771E-02  0.1026141E+00
         21   -1    0    0  502  501  0.00000000000E+00  0.00000000000E+00  0.65880728560E+03  0.65880728560E+03  0.00000000000E+00 0. -1.
         21   -1    0    0  501  502 -0.00000000000E+00 -0.00000000000E+00 -0.78678951702E+02  0.78678951702E+02  0.00000000000E+00 0. -1.
      99926    2    1    2    0    0 -0.14210854715E-13  0.00000000000E+00  0.58012833390E+03  0.73748623730E+03  0.45534280100E+03 0.  0.
      99925    2    3    3    0    0 -0.87312837100E+02 -0.33907983232E+02  0.26258020367E+03  0.38356872437E+03  0.26344509885E+03 0.  0.
         25    1    4    4    0    0 -0.14008663922E+02 -0.31286528197E+02  0.15988152947E+03  0.20587545040E+03  0.12509000000E+03 0.  0.
         25    1    3    3    0    0  0.87312837100E+02  0.33907983232E+02  0.31754813023E+03  0.35391751293E+03  0.12509000000E+03 0.  0.
         25    1    4    4    0    0 -0.73304173179E+02 -0.26214550350E+01  0.10269867420E+03  0.17769327397E+03  0.12509000000E+03 0.  0.
<mgrwt>
<rscale>  2 0.45534280E+03</rscale>
<asrwt>0</asrwt>
<pdfrwt beam="1">  1       21 0.96883421E-01 0.45534280E+03</pdfrwt>
<pdfrwt beam="2">  1       21 0.11570434E-01 0.45534280E+03</pdfrwt>
<totfact> 0.50777527E+04</totfact>
</mgrwt>
</event>
<event>
 7    0  0.4748297E-002  0.4477655E+03  0.7546771E-02  0.1028391E+00
         21   -1    0    0  502  501  0.00000000000E+00  0.00000000000E+00  0.50495240639E+02  0.50495240639E+02  0.00000000000E+00 0. -1.
         21   -1    0    0  501  502 -0.00000000000E+00 -0.00000000000E+00 -0.99263765633E+03  0.99263765633E+03  0.00000000000E+00 0. -1.
      99926    2    1    2    0    0  0.13322676296E-14  0.14210854715E-13 -0.94214241569E+03  0.10431328970E+04  0.44776546238E+03 0.  0.
      99925    2    3    3    0    0 -0.15164087902E+01  0.91510189274E+02 -0.47135511310E+03  0.54748725075E+03  0.26304036354E+03 0.  0.
         25    1    4    4    0    0  0.17234593594E+02  0.95509553490E+01 -0.24019928500E+03  0.27153536893E+03  0.12509000000E+03 0.  0.
         25    1    3    3    0    0  0.15164087902E+01 -0.91510189274E+02 -0.47078730259E+03  0.49564564622E+03  0.12509000000E+03 0.  0.
         25    1    4    4    0    0 -0.18751002384E+02  0.81959233925E+02 -0.23115582811E+03  0.27595188183E+03  0.12509000000E+03 0.  0.
<mgrwt>
<rscale>  2 0.44776546E+03</rscale>
<asrwt>0</asrwt>
<pdfrwt beam="1">  1       21 0.74257710E-02 0.44776546E+03</pdfrwt>
<pdfrwt beam="2">  1       21 0.14597612E+00 0.44776546E+03</pdfrwt>
<totfact> 0.39726825E+04</totfact>
</mgrwt>
</event>
<event>
 7    0  0.4748297E-002  0.4508106E+03  0.7546771E-02  0.1027481E+00
         21   -1    0    0  502  501  0.00000000000E+00  0.00000000000E+00  0.98890169424E+02  0.98890169424E+02  0.00000000000E+00 0. -1.
         21   -1    0    0  501  502 -0.00000000000E+00 -0.00000000000E+00 -0.51377759955E+03  0.51377759955E+03  0.00000000000E+00 0. -1.
      99926    2    1    2    0    0  0.00000000000E+00 -0.88817841970E-15 -0.41488743012E+03  0.61266776897E+03  0.45081062040E+03 0.  0.
      99925    2    3    3    0    0  0.90686303816E+02  0.68058080881E+01 -0.34368526980E+03  0.44241037424E+03  0.26331929257E+03 0.  0.
         25    1    4    4    0    0  0.15237169350E+02 -0.14305731418E+02 -0.12125320993E+03  0.17546131853E+03  0.12509000000E+03 0.  0.
         25    1    4    4    0    0  0.75449134466E+02  0.21111539506E+02 -0.22243205987E+03  0.26694905572E+03  0.12509000000E+03 0.  0.
         25    1    3    3    0    0 -0.90686303816E+02 -0.68058080881E+01 -0.71202160327E+02  0.17025739473E+03  0.12509000000E+03 0.  0.
<mgrwt>
<rscale>  2 0.45081062E+03</rscale>
<asrwt>0</asrwt>
<pdfrwt beam="1">  1       21 0.14542672E-01 0.45081062E+03</pdfrwt>
<pdfrwt beam="2">  1       21 0.75555528E-01 0.45081062E+03</pdfrwt>
<totfact> 0.59861486E+04</totfact>
</mgrwt>
</event>
<event>
 7    0  0.4748297E-002  0.4494576E+03  0.7546771E-02  0.1027884E+00
         21   -1    0    0  502  501  0.00000000000E+00  0.00000000000E+00  0.14425915432E+03  0.14425915432E+03  0.00000000000E+00 0.  1.
         21   -1    0    0  501  502 -0.00000000000E+00 -0.00000000000E+00 -0.35008554582E+03  0.35008554582E+03  0.00000000000E+00 0.  1.
      99926    2    1    2    0    0 -0.35527136788E-14  0.00000000000E+00 -0.20582639150E+03  0.49434470014E+03  0.44945764997E+03 0.  0.
      99925    2    3    3    0    0  0.27705970895E+02 -0.67528719369E+02 -0.21771425781E+03  0.34902925626E+03  0.26285770849E+03 0.  0.
         25    1    3    3    0    0 -0.27705970895E+02  0.67528719369E+02  0.11887866312E+02  0.14531544387E+03  0.12509000000E+03 0.  0.
         25    1    4    4    0    0 -0.20681188555E+02 -0.52084121362E+02 -0.96955578009E+02  0.16789389347E+03  0.12509000000E+03 0.  0.
         25    1    4    4    0    0  0.48387159450E+02 -0.15444598007E+02 -0.12075867980E+03  0.18113536279E+03  0.12509000000E+03 0.  0.
<mgrwt>
<rscale>  2 0.44945765E+03</rscale>
<asrwt>0</asrwt>
<pdfrwt beam="1">  1       21 0.21214582E-01 0.44945765E+03</pdfrwt>
<pdfrwt beam="2">  1       21 0.51483168E-01 0.44945765E+03</pdfrwt>
<totfact> 0.68640436E+04</totfact>
</mgrwt>
</event>
<event>
 7    0  0.4748297E-002  0.4149737E+03  0.7546771E-02  0.1038715E+00
         21   -1    0    0  502  501  0.00000000000E+00  0.00000000000E+00  0.12391408081E+03  0.12391408081E+03  0.00000000000E+00 0.  1.
         21   -1    0    0  501  502 -0.00000000000E+00 -0.00000000000E+00 -0.34742449990E+03  0.34742449990E+03  0.00000000000E+00 0.  1.
      99926    2    1    2    0    0  0.35527136788E-14  0.00000000000E+00 -0.22351041909E+03  0.47133858072E+03  0.41497367414E+03 0.  0.
      99925    2    3    3    0    0 -0.29825358663E+02 -0.50702387790E+02 -0.10492168633E+03  0.28920928658E+03  0.26300792199E+03 0.  0.
         25    1    4    4    0    0  0.25195441840E+02 -0.17043294387E+02 -0.47946070320E+02  0.13737400748E+03  0.12509000000E+03 0.  0.
         25    1    4    4    0    0 -0.55020800503E+02 -0.33659093403E+02 -0.56975616014E+02  0.15183527909E+03  0.12509000000E+03 0.  0.
         25    1    3    3    0    0  0.29825358663E+02  0.50702387790E+02 -0.11858873276E+03  0.18212929414E+03  0.12509000000E+03 0.  0.
<mgrwt>
<rscale>  2 0.41497367E+03</rscale>
<asrwt>0</asrwt>
<pdfrwt beam="1">  1       21 0.18222659E-01 0.41497367E+03</pdfrwt>
<pdfrwt beam="2">  1       21 0.51091837E-01 0.41497367E+03</pdfrwt>
<totfact> 0.93767270E+04</totfact>
</mgrwt>
</event>
<event>
 7    0  0.4748297E-002  0.4534943E+03  0.7546771E-02  0.1026685E+00
         21   -1    0    0  502  501  0.00000000000E+00  0.00000000000E+00  0.12425356803E+03  0.12425356803E+03  0.00000000000E+00 0. -1.
         21   -1    0    0  501  502 -0.00000000000E+00 -0.00000000000E+00 -0.41378506030E+03  0.41378506030E+03  0.00000000000E+00 0. -1.
      99926    2    1    2    0    0  0.00000000000E+00 -0.71054273576E-14 -0.28953149226E+03  0.53803862833E+03  0.45349430047E+03 0.  0.
      99925    2    3    3    0    0 -0.92752493925E+02 -0.61721658668E+02 -0.17161868879E+03  0.33318862076E+03  0.26296215390E+03 0.  0.
         25    1    4    4    0    0 -0.63692340384E+02 -0.69937411499E+02 -0.98111597534E+02  0.18499013331E+03  0.12509000000E+03 0.  0.
         25    1    4    4    0    0 -0.29060153541E+02  0.82157528305E+01 -0.73507091259E+02  0.14819848745E+03  0.12509000000E+03 0.  0.
         25    1    3    3    0    0  0.92752493925E+02  0.61721658668E+02 -0.11791280347E+03  0.20485000757E+03  0.12509000000E+03 0.  0.
<mgrwt>
<rscale>  2 0.45349430E+03</rscale>
<asrwt>0</asrwt>
<pdfrwt beam="1">  1       21 0.18272584E-01 0.45349430E+03</pdfrwt>
<pdfrwt beam="2">  1       21 0.60850744E-01 0.45349430E+03</pdfrwt>
<totfact> 0.63416248E+04</totfact>
</mgrwt>
</event>
<event>
 7    0  0.4748297E-002  0.4558207E+03  0.7546771E-02  0.1026000E+00
         21   -1    0    0  502  501  0.00000000000E+00  0.00000000000E+00  0.79925243741E+03  0.79925243741E+03  0.00000000000E+00 0. -1.
         21   -1    0    0  501  502 -0.00000000000E+00 -0.00000000000E+00 -0.64989643748E+02  0.64989643748E+02  0.00000000000E+00 0. -1.
      99926    2    1    2    0    0 -0.17763568394E-14  0.14210854715E-13  0.73426279367E+03  0.86424208116E+03  0.45582071551E+03 0.  0.
      99925    2    3    3    0    0 -0.10146097314E+02 -0.10222180211E+03  0.36818693231E+03  0.46397806269E+03  0.26298628370E+03 0.  0.
         25    1    3    3    0    0  0.10146097314E+02  0.10222180211E+03  0.36607586135E+03  0.40026401847E+03  0.12509000000E+03 0.  0.
         25    1    4    4    0    0  0.34468157754E+02 -0.58638823290E+02  0.19392283504E+03  0.24058291616E+03  0.12509000000E+03 0.  0.
         25    1    4    4    0    0 -0.44614255067E+02 -0.43582978818E+02  0.17426409727E+03  0.22339514653E+03  0.12509000000E+03 0.  0.
<mgrwt>
<rscale>  2 0.45582072E+03</rscale>
<asrwt>0</asrwt>
<pdfrwt beam="1">  1       21 0.11753712E+00 0.45582072E+03</pdfrwt>
<pdfrwt beam="2">  1       21 0.95573010E-02 0.45582072E+03</pdfrwt>
<totfact> 0.44521501E+04</totfact>
</mgrwt>
</event>
<event>
 7    0  0.4748297E-002  0.4525639E+03  0.7546771E-02  0.1026960E+00
         21   -1    0    0  502  501  0.00000000000E+00  0.00000000000E+00  0.38311779071E+03  0.38311779071E+03  0.00000000000E+00 0.  1.
         21   -1    0    0  501  502 -0.00000000000E+00 -0.00000000000E+00 -0.13364958024E+03  0.13364958024E+03  0.00000000000E+00 0.  1.
      99926    2    1    2    0    0  0.35527136788E-14  0.00000000000E+00  0.24946821047E+03  0.51676737095E+03  0.45256394868E+03 0.  0.
      99925    2    3    3    0    0  0.17936876774E+02 -0.55980693474E+02  0.26445854443E+03  0.37774295654E+03  0.26324104905E+03 0.  0.
         25    1    4    4    0    0 -0.28614875801E+02 -0.26022494795E+02  0.15232780103E+03  0.20086624509E+03  0.12509000000E+03 0.  0.
         25    1    3    3    0    0 -0.17936876774E+02  0.55980693474E+02 -0.14990333957E+02  0.13902441441E+03  0.12509000000E+03 0.  0.
         25    1    4    4    0    0  0.46551752575E+02 -0.29958198679E+02  0.11213074340E+03  0.17687671144E+03  0.12509000000E+03 0.  0.
<mgrwt>
<rscale>  2 0.45256395E+03</rscale>
<asrwt>0</asrwt>
<pdfrwt beam="1">  1       21 0.56340852E-01 0.45256395E+03</pdfrwt>
<pdfrwt beam="2">  1       21 0.19654350E-01 0.45256395E+03</pdfrwt>
<totfact> 0.65362280E+04</totfact>
</mgrwt>
</event>
<event>
 7    0  0.4748297E-002  0.4580794E+03  0.7546771E-02  0.1025340E+00
         21   -1    0    0  502  501  0.00000000000E+00  0.00000000000E+00  0.43739371955E+03  0.43739371955E+03  0.00000000000E+00 0. -1.
         21   -1    0    0  501  502 -0.00000000000E+00 -0.00000000000E+00 -0.11993585021E+03  0.11993585021E+03  0.00000000000E+00 0. -1.
      99926    2    1    2    0    0  0.14210854715E-13  0.88817841970E-15  0.31745786934E+03  0.55732956976E+03  0.45807941508E+03 0.  0.
      99925    2    3    3    0    0  0.11282386972E+03  0.14681151662E+01  0.23337594410E+03  0.36905142659E+03  0.26268468407E+03 0.  0.
         25    1    4    4    0    0  0.20489827969E+02  0.20502404968E+02  0.11935214717E+03  0.17530722972E+03  0.12509000000E+03 0.  0.
         25    1    3    3    0    0 -0.11282386972E+03 -0.14681151662E+01  0.84081925244E+02  0.18827814317E+03  0.12509000000E+03 0.  0.
         25    1    4    4    0    0  0.92334041752E+02 -0.19034289801E+02  0.11402379693E+03  0.19374419687E+03  0.12509000000E+03 0.  0.
<mgrwt>
<rscale>  2 0.45807942E+03</rscale>
<asrwt>0</asrwt>
<pdfrwt beam="1">  1       21 0.64322605E-01 0.45807942E+03</pdfrwt>
<pdfrwt beam="2">  1       21 0.17637625E-01 0.45807942E+03</pdfrwt>
<totfact> 0.59911925E+04</totfact>
</mgrwt>
</event>
<event>
 7    0  0.4748297E-002  0.4418164E+03  0.7546771E-02  0.1030191E+00
         21   -1    0    0  502  501  0.00000000000E+00  0.00000000000E+00  0.19843034929E+03  0.19843034929E+03  0.00000000000E+00 0. -1.
         21   -1    0    0  501  502 -0.00000000000E+00 -0.00000000000E+00 -0.24593231294E+03  0.24593231294E+03  0.00000000000E+00 0. -1.
      99926    2    1    2    0    0  0.00000000000E+00  0.00000000000E+00 -0.47501963648E+02  0.44436266223E+03  0.44181640874E+03 0.  0.
      99925    2    3    3    0    0 -0.76918736426E+02  0.41604035344E+02  0.19200246447E+02  0.27779711746E+03  0.26297376530E+03 0.  0.
         25    1    3    3    0    0  0.76918736426E+02 -0.41604035344E+02 -0.66702210094E+02  0.16656554476E+03  0.12509000000E+03 0.  0.
         25    1    4    4    0    0 -0.23833700614E+02  0.26965331575E+02 -0.28112808414E+02  0.13316535769E+03  0.12509000000E+03 0.  0.
         25    1    4    4    0    0 -0.53085035812E+02  0.14638703768E+02  0.47313054860E+02  0.14463175977E+03  0.12509000000E+03 0.  0.
<mgrwt>
<rscale>  2 0.44181641E+03</rscale>
<asrwt>0</asrwt>
<pdfrwt beam="1">  1       21 0.29180934E-01 0.44181641E+03</pdfrwt>
<pdfrwt beam="2">  1       21 0.36166516E-01 0.44181641E+03</pdfrwt>
<totfact> 0.77131532E+04</totfact>
</mgrwt>
</event>
<event>
 7    0  0.4748297E-002  0.4607586E+03  0.7546771E-02  0.1024561E+00
         21   -1    0    0  502  501  0.00000000000E+00  0.00000000000E+00  0.88714100725E+03  0.88714100725E+03  0.00000000000E+00 0.  1.
         21   -1    0    0  501  502 -0.00000000000E+00 -0.00000000000E+00 -0.59826580898E+02  0.59826580898E+02  0.00000000000E+00 0.  1.
      99926    2    1    2    0    0  0.00000000000E+00  0.00000000000E+00  0.82731442635E+03  0.94696758815E+03  0.46075856254E+03 0.  0.
      99925    2    3    3    0    0  0.82252582864E+02 -0.63928962381E+02  0.40168538558E+03  0.49127033331E+03  0.26295055007E+03 0.  0.
         25    1    4    4    0    0  0.28709184243E+02 -0.19973894393E+01  0.23184814610E+03  0.26500807115E+03  0.12509000000E+03 0.  0.
         25    1    3    3    0    0 -0.82252582864E+02  0.63928962381E+02  0.42562904077E+03  0.45569725484E+03  0.12509000000E+03 0.  0.
         25    1    4    4    0    0  0.53543398621E+02 -0.61931572941E+02  0.16983723948E+03  0.22626226216E+03  0.12509000000E+03 0.  0.
<mgrwt>
<rscale>  2 0.46075856E+03</rscale>
<asrwt>0</asrwt>
<pdfrwt beam="1">  1       21 0.13046190E+00 0.46075856E+03</pdfrwt>
<pdfrwt beam="2">  1       21 0.87980271E-02 0.46075856E+03</pdfrwt>
<totfact> 0.39456791E+04</totfact>
</mgrwt>
</event>
<event>
 7    0  0.4748297E-002  0.4336688E+03  0.7546771E-02  0.1032707E+00
         21   -1    0    0  502  501  0.00000000000E+00  0.00000000000E+00  0.44094798014E+03  0.44094798014E+03  0.00000000000E+00 0. -1.
         21   -1    0    0  501  502 -0.00000000000E+00 -0.00000000000E+00 -0.10662745210E+03  0.10662745210E+03  0.00000000000E+00 0. -1.
      99926    2    1    2    0    0  0.00000000000E+00  0.35527136788E-14  0.33432052804E+03  0.54757543224E+03  0.43366881203E+03 0.  0.
      99925    2    3    3    0    0  0.11120063928E+02  0.81231490867E+01  0.10038301368E+03  0.28193674889E+03  0.26310062631E+03 0.  0.
         25    1    3    3    0    0 -0.11120063928E+02 -0.81231490867E+01  0.23393751435E+03  0.26563868335E+03  0.12509000000E+03 0.  0.
         25    1    4    4    0    0  0.26821428147E+02  0.38831170267E+02  0.49935927033E+02  0.14271774137E+03  0.12509000000E+03 0.  0.
         25    1    4    4    0    0 -0.15701364219E+02 -0.30708021181E+02  0.50447086650E+02  0.13921900752E+03  0.12509000000E+03 0.  0.
<mgrwt>
<rscale>  2 0.43366881E+03</rscale>
<asrwt>0</asrwt>
<pdfrwt beam="1">  1       21 0.64845291E-01 0.43366881E+03</pdfrwt>
<pdfrwt beam="2">  1       21 0.15680508E-01 0.43366881E+03</pdfrwt>
<totfact> 0.73700369E+04</totfact>
</mgrwt>
</event>
<event>
 7    0  0.4748297E-002  0.4544468E+03  0.7546771E-02  0.1026404E+00
         21   -1    0    0  502  501  0.00000000000E+00  0.00000000000E+00  0.10279860145E+03  0.10279860145E+03  0.00000000000E+00 0. -1.
         21   -1    0    0  501  502 -0.00000000000E+00 -0.00000000000E+00 -0.50224879644E+03  0.50224879644E+03  0.00000000000E+00 0. -1.
      99926    2    1    2    0    0  0.00000000000E+00  0.00000000000E+00 -0.39945019499E+03  0.60504739788E+03  0.45444680152E+03 0.  0.
      99925    2    3    3    0    0  0.66680571353E+01  0.29124520575E+02 -0.39607215319E+03  0.47639429862E+03  0.26303170253E+03 0.  0.
         25    1    3    3    0    0 -0.66680571353E+01 -0.29124520575E+02 -0.33780417944E+01  0.12865309927E+03  0.12509000000E+03 0.  0.
         25    1    4    4    0    0  0.16613150023E+02 -0.23302255055E+02 -0.17913673669E+03  0.22035532755E+03  0.12509000000E+03 0.  0.
         25    1    4    4    0    0 -0.99450928879E+01  0.52426775630E+02 -0.21693541650E+03  0.25603897107E+03  0.12509000000E+03 0.  0.
<mgrwt>
<rscale>  2 0.45444680E+03</rscale>
<asrwt>0</asrwt>
<pdfrwt beam="1">  1       21 0.15117441E-01 0.45444680E+03</pdfrwt>
<pdfrwt beam="2">  1       21 0.73860117E-01 0.45444680E+03</pdfrwt>
<totfact> 0.58624446E+04</totfact>
</mgrwt>
</event>
<event>
 7    0  0.4748297E-002  0.4536672E+03  0.7546771E-02  0.1026634E+00
         21   -1    0    0  502  501  0.00000000000E+00  0.00000000000E+00  0.50038890036E+02  0.50038890036E+02  0.00000000000E+00 0. -1.
         21   -1    0    0  501  502 -0.00000000000E+00 -0.00000000000E+00 -0.10282696546E+04  0.10282696546E+04  0.00000000000E+00 0. -1.
      99926    2    1    2    0    0  0.00000000000E+00  0.33306690739E-15 -0.97823076457E+03  0.10783085446E+04  0.45366715629E+03 0.  0.
      99925    2    3    3    0    0 -0.36305374101E+02 -0.90601022095E+00 -0.36367984912E+03  0.45010536348E+03  0.26270307294E+03 0.  0.
         25    1    4    4    0    0 -0.57405351923E+01 -0.23785143204E+01 -0.11487241527E+03  0.16994643558E+03  0.12509000000E+03 0.  0.
         25    1    3    3    0    0  0.36305374101E+02  0.90601022095E+00 -0.61455091545E+03  0.62820318116E+03  0.12509000000E+03 0.  0.
         25    1    4    4    0    0 -0.30564838908E+02  0.14725040995E+01 -0.24880743385E+03  0.28015892790E+03  0.12509000000E+03 0.  0.
<mgrwt>
<rscale>  2 0.45366716E+03</rscale>
<asrwt>0</asrwt>
<pdfrwt beam="1">  1       21 0.73586608E-02 0.45366716E+03</pdfrwt>
<pdfrwt beam="2">  1       21 0.15121612E+00 0.45366716E+03</pdfrwt>
<totfact> 0.36635027E+04</totfact>
</mgrwt>
</event>
<event>
 7    0  0.4748297E-002  0.4588506E+03  0.7546771E-02  0.1025115E+00
         21   -1    0    0  502  501  0.00000000000E+00  0.00000000000E+00  0.16750970416E+03  0.16750970416E+03  0.00000000000E+00 0. -1.
         21   -1    0    0  501  502 -0.00000000000E+00 -0.00000000000E+00 -0.31422644143E+03  0.31422644143E+03  0.00000000000E+00 0. -1.
      99926    2    1    2    0    0  0.14210854715E-13  0.71054273576E-14 -0.14671673728E+03  0.48173614559E+03  0.45885064343E+03 0.  0.
      99925    2    3    3    0    0 -0.10051588471E+03 -0.58592917731E+02 -0.81809192105E+02  0.29898749140E+03  0.26299088010E+03 0.  0.
         25    1    3    3    0    0  0.10051588471E+03  0.58592917731E+02 -0.64907545172E+02  0.18274865419E+03  0.12509000000E+03 0.  0.
         25    1    4    4    0    0 -0.17234776802E+02 -0.45864023171E+02 -0.57898789983E+02  0.14628849625E+03  0.12509000000E+03 0.  0.
         25    1    4    4    0    0 -0.83281107911E+02 -0.12728894560E+02 -0.23910402123E+02  0.15269899516E+03  0.12509000000E+03 0.  0.
<mgrwt>
<rscale>  2 0.45885064E+03</rscale>
<asrwt>0</asrwt>
<pdfrwt beam="1">  1       21 0.24633780E-01 0.45885064E+03</pdfrwt>
<pdfrwt beam="2">  1       21 0.46209771E-01 0.45885064E+03</pdfrwt>
<totfact> 0.64577520E+04</totfact>
</mgrwt>
</event>
<event>
 7    0  0.4748297E-002  0.4605273E+03  0.7546771E-02  0.1024628E+00
         21   -1    0    0  502  501  0.00000000000E+00  0.00000000000E+00  0.37925883005E+02  0.37925883005E+02  0.00000000000E+00 0.  1.
         21   -1    0    0  501  502 -0.00000000000E+00 -0.00000000000E+00 -0.13980254176E+04  0.13980254176E+04  0.00000000000E+00 0.  1.
      99926    2    1    2    0    0  0.00000000000E+00  0.00000000000E+00 -0.13600995346E+04  0.14359513006E+04  0.46052729963E+03 0.  0.
      99925    2    3    3    0    0 -0.21801214395E+02 -0.82146510921E+02 -0.59589764497E+03  0.65692923519E+03  0.26313242779E+03 0.  0.
         25    1    4    4    0    0 -0.25453414527E+02 -0.67037645323E+01 -0.23389301708E+03  0.26654505868E+03  0.12509000000E+03 0.  0.
         25    1    3    3    0    0  0.21801214395E+02  0.82146510921E+02 -0.76420188962E+03  0.77902206541E+03  0.12509000000E+03 0.  0.
         25    1    4    4    0    0  0.36522001320E+01 -0.75442746389E+02 -0.36200462789E+03  0.39038417650E+03  0.12509000000E+03 0.  0.
<mgrwt>
<rscale>  2 0.46052730E+03</rscale>
<asrwt>0</asrwt>
<pdfrwt beam="1">  1       21 0.55773361E-02 0.46052730E+03</pdfrwt>
<pdfrwt beam="2">  1       21 0.20559196E+00 0.46052730E+03</pdfrwt>
<totfact> 0.24327842E+04</totfact>
</mgrwt>
</event>
<event>
 7    0  0.4748297E-002  0.4528607E+03  0.7546771E-02  0.1026872E+00
         21   -1    0    0  502  501  0.00000000000E+00  0.00000000000E+00  0.49004983843E+03  0.49004983843E+03  0.00000000000E+00 0. -1.
         21   -1    0    0  501  502 -0.00000000000E+00 -0.00000000000E+00 -0.10462344897E+03  0.10462344897E+03  0.00000000000E+00 0. -1.
      99926    2    1    2    0    0  0.00000000000E+00  0.14210854715E-13  0.38542638946E+03  0.59467328740E+03  0.45286070381E+03 0.  0.
      99925    2    3    3    0    0  0.45286383941E+02  0.85718994770E+02  0.31295480936E+03  0.42060938920E+03  0.26376683443E+03 0.  0.
         25    1    4    4    0    0  0.47875539811E+02  0.64356049688E+02  0.20956479565E+03  0.25690208274E+03  0.12509000000E+03 0.  0.
         25    1    3    3    0    0 -0.45286383941E+02 -0.85718994770E+02  0.72471580096E+02  0.17406389820E+03  0.12509000000E+03 0.  0.
         25    1    4    4    0    0 -0.25891558700E+01  0.21362945081E+02  0.10339001371E+03  0.16370730645E+03  0.12509000000E+03 0.  0.
<mgrwt>
<rscale>  2 0.45286070E+03</rscale>
<asrwt>0</asrwt>
<pdfrwt beam="1">  1       21 0.72066152E-01 0.45286070E+03</pdfrwt>
<pdfrwt beam="2">  1       21 0.15385802E-01 0.45286070E+03</pdfrwt>
<totfact> 0.60015522E+04</totfact>
</mgrwt>
</event>
<event>
 7    0  0.4748297E-002  0.4556793E+03  0.7546771E-02  0.1026042E+00
         21   -1    0    0  502  501  0.00000000000E+00  0.00000000000E+00  0.47722536535E+03  0.47722536535E+03  0.00000000000E+00 0. -1.
         21   -1    0    0  501  502 -0.00000000000E+00 -0.00000000000E+00 -0.10877650579E+03  0.10877650579E+03  0.00000000000E+00 0. -1.
      99926    2    1    2    0    0  0.00000000000E+00  0.00000000000E+00  0.36844885956E+03  0.58600187115E+03  0.45567930705E+03 0.  0.
      99925    2    3    3    0    0  0.76290960574E+02 -0.50144412350E+02  0.31971610075E+03  0.42365297944E+03  0.26254273778E+03 0.  0.
         25    1    3    3    0    0 -0.76290960574E+02  0.50144412350E+02  0.48732758813E+02  0.16234889170E+03  0.12509000000E+03 0.  0.
         25    1    4    4    0    0  0.10551366091E+02 -0.30896377807E+00  0.17472513168E+03  0.21514601211E+03  0.12509000000E+03 0.  0.
         25    1    4    4    0    0  0.65739594483E+02 -0.49835448572E+02  0.14499096907E+03  0.20850696734E+03  0.12509000000E+03 0.  0.
<mgrwt>
<rscale>  2 0.45567931E+03</rscale>
<asrwt>0</asrwt>
<pdfrwt beam="1">  1       21 0.70180200E-01 0.45567931E+03</pdfrwt>
<pdfrwt beam="2">  1       21 0.15996545E-01 0.45567931E+03</pdfrwt>
<totfact> 0.59229591E+04</totfact>
</mgrwt>
</event>
<event>
 7    0  0.4748297E-002  0.4604892E+03  0.7546771E-02  0.1024639E+00
         21   -1    0    0  502  501  0.00000000000E+00  0.00000000000E+00  0.64232403298E+03  0.64232403298E+03  0.00000000000E+00 0. -1.
         21   -1    0    0  501  502 -0.00000000000E+00 -0.00000000000E+00 -0.82532464470E+02  0.82532464470E+02  0.00000000000E+00 0. -1.
      99926    2    1    2    0    0  0.14210854715E-13 -0.35527136788E-14  0.55979156851E+03  0.72485649745E+03  0.46048924170E+03 0.  0.
      99925    2    3    3    0    0  0.10122812139E+03 -0.30845716463E+02  0.43355295876E+03  0.51801770642E+03  0.26301251934E+03 0.  0.
         25    1    4    4    0    0  0.21104954758E+02  0.98971720335E+01  0.16421902290E+03  0.20774688617E+03  0.12509000000E+03 0.  0.
         25    1    3    3    0    0 -0.10122812139E+03  0.30845716463E+02  0.12623860975E+03  0.20683879103E+03  0.12509000000E+03 0.  0.
         25    1    4    4    0    0  0.80123166630E+02 -0.40742888497E+02  0.26933393585E+03  0.31027082025E+03  0.12509000000E+03 0.  0.
<mgrwt>
<rscale>  2 0.46048924E+03</rscale>
<asrwt>0</asrwt>
<pdfrwt beam="1">  1       21 0.94459414E-01 0.46048924E+03</pdfrwt>
<pdfrwt beam="2">  1       21 0.12137127E-01 0.46048924E+03</pdfrwt>
<totfact> 0.49406418E+04</totfact>
</mgrwt>
</event>
<event>
 7    0  0.4748297E-002  0.4519027E+03  0.7546771E-02  0.1027156E+00
         21   -1    0    0  502  501  0.00000000000E+00  0.00000000000E+00  0.26987257589E+03  0.26987257589E+03  0.00000000000E+00 0. -1.
         21   -1    0    0  501  502 -0.00000000000E+00 -0.00000000000E+00 -0.18917823780E+03  0.18917823780E+03  0.00000000000E+00 0. -1.
      99926    2    1    2    0    0 -0.88817841970E-15  0.00000000000E+00  0.80694338092E+02  0.45905081370E+03  0.45190272554E+03 0.  0.
      99925    2    3    3    0    0  0.41880929370E+01 -0.20897333117E+02  0.16083280952E+03  0.30897109702E+03  0.26294810805E+03 0.  0.
         25    1    4    4    0    0 -0.37051651183E+02 -0.20805522129E+01  0.86772586806E+02  0.15669761796E+03  0.12509000000E+03 0.  0.
         25    1    4    4    0    0  0.41239744120E+02 -0.18816780904E+02  0.74060222711E+02  0.15227347907E+03  0.12509000000E+03 0.  0.
         25    1    3    3    0    0 -0.41880929370E+01  0.20897333117E+02 -0.80138471425E+02  0.15007971667E+03  0.12509000000E+03 0.  0.
<mgrwt>
<rscale>  2 0.45190273E+03</rscale>
<asrwt>0</asrwt>
<pdfrwt beam="1">  1       21 0.39687144E-01 0.45190273E+03</pdfrwt>
<pdfrwt beam="2">  1       21 0.27820329E-01 0.45190273E+03</pdfrwt>
<totfact> 0.69960748E+04</totfact>
</mgrwt>
</event>
<event>
 7    0  0.4748297E-002  0.4517587E+03  0.7546771E-02  0.1027199E+00
         21   -1    0    0  502  501  0.00000000000E+00  0.00000000000E+00  0.35464637690E+02  0.35464637690E+02  0.00000000000E+00 0.  1.
         21   -1    0    0  501  502 -0.00000000000E+00 -0.00000000000E+00 -0.14386579155E+04  0.14386579155E+04  0.00000000000E+00 0.  1.
      99926    2    1    2    0    0  0.00000000000E+00 -0.22204460493E-15 -0.14031932778E+04  0.14741225532E+04  0.45175870432E+03 0.  0.
      99925    2    3    3    0    0  0.86448229157E+01  0.14291250839E+01 -0.52834947622E+03  0.59033753372E+03  0.26318901826E+03 0.  0.
         25    1    3    3    0    0 -0.86448229157E+01 -0.14291250839E+01 -0.87484380157E+03  0.88378501945E+03  0.12509000000E+03 0.  0.
         25    1    4    4    0    0 -0.21114191654E+02  0.81304163160E+01 -0.19282437700E+03  0.23095597248E+03  0.12509000000E+03 0.  0.
         25    1    4    4    0    0  0.29759014570E+02 -0.67012912321E+01 -0.33552509922E+03  0.35938156124E+03  0.12509000000E+03 0.  0.
<mgrwt>
<rscale>  2 0.45175870E+03</rscale>
<asrwt>0</asrwt>
<pdfrwt beam="1">  1       21 0.52153890E-02 0.45175870E+03</pdfrwt>
<pdfrwt beam="2">  1       21 0.21156729E+00 0.45175870E+03</pdfrwt>
<totfact> 0.25045214E+04</totfact>
</mgrwt>
</event>
<event>
 7    0  0.4748297E-002  0.4327833E+03  0.7546771E-02  0.1032984E+00
         21   -1    0    0  502  501  0.00000000000E+00  0.00000000000E+00  0.60803106763E+02  0.60803106763E+02  0.00000000000E+00 0. -1.
         21   -1    0    0  501  502 -0.00000000000E+00 -0.00000000000E+00 -0.77011433898E+03  0.77011433898E+03  0.00000000000E+00 0. -1.
      99926    2    1    2    0    0  0.00000000000E+00  0.00000000000E+00 -0.70931123221E+03  0.83091744574E+03  0.43278329160E+03 0.  0.
      99925    2    3    3    0    0  0.32202079423E+02 -0.63056801912E+02 -0.56547384709E+03  0.62757085579E+03  0.26281433200E+03 0.  0.
         25    1    4    4    0    0 -0.22676772476E+02 -0.22714903516E+02 -0.28995554244E+03  0.31741444130E+03  0.12509000000E+03 0.  0.
         25    1    3    3    0    0 -0.32202079423E+02  0.63056801912E+02 -0.14383738512E+03  0.20334658995E+03  0.12509000000E+03 0.  0.
         25    1    4    4    0    0  0.54878851899E+02 -0.40341898396E+02 -0.27551830465E+03  0.31015641449E+03  0.12509000000E+03 0.  0.
<mgrwt>
<rscale>  2 0.43278329E+03</rscale>
<asrwt>0</asrwt>
<pdfrwt beam="1">  1       21 0.89416337E-02 0.43278329E+03</pdfrwt>
<pdfrwt beam="2">  1       21 0.11325210E+00 0.43278329E+03</pdfrwt>
<totfact> 0.55339191E+04</totfact>
</mgrwt>
</event>
<event>
 7    0  0.4748297E-002  0.4537964E+03  0.7546771E-02  0.1026596E+00
         21   -1    0    0  502  501  0.00000000000E+00  0.00000000000E+00  0.10053761372E+04  0.10053761372E+04  0.00000000000E+00 0.  1.
         21   -1    0    0  501  502 -0.00000000000E+00 -0.00000000000E+00 -0.51207500527E+02  0.51207500527E+02  0.00000000000E+00 0.  1.
      99926    2    1    2    0    0  0.00000000000E+00  0.00000000000E+00  0.95416863669E+03  0.10565836377E+04  0.45379642606E+03 0.  0.
      99925    2    3    3    0    0 -0.32166768353E+02 -0.47049924712E+02  0.37658894417E+03  0.46287141308E+03  0.26302531394E+03 0.  0.
         25    1    3    3    0    0  0.32166768353E+02  0.47049924712E+02  0.57757969252E+03  0.59371222466E+03  0.12509000000E+03 0.  0.
         25    1    4    4    0    0  0.12400892420E+01 -0.60323060772E+02  0.20057634578E+03  0.24396472710E+03  0.12509000000E+03 0.  0.
         25    1    4    4    0    0 -0.33406857595E+02  0.13273136060E+02  0.17601259839E+03  0.21890668598E+03  0.12509000000E+03 0.  0.
<mgrwt>
<rscale>  2 0.45379643E+03</rscale>
<asrwt>0</asrwt>
<pdfrwt beam="1">  1       21 0.14784942E+00 0.45379643E+03</pdfrwt>
<pdfrwt beam="2">  1       21 0.75305154E-02 0.45379643E+03</pdfrwt>
<totfact> 0.37386699E+04</totfact>
</mgrwt>
</event>
<event>
 7    0  0.4748297E-002  0.4543671E+03  0.7546771E-02  0.1026428E+00
         21   -1    0    0  502  501  0.00000000000E+00  0.00000000000E+00  0.46424192113E+03  0.46424192113E+03  0.00000000000E+00 0. -1.
         21   -1    0    0  501  502 -0.00000000000E+00 -0.00000000000E+00 -0.11117560352E+03  0.11117560352E+03  0.00000000000E+00 0. -1.
      99926    2    1    2    0    0  0.00000000000E+00  0.00000000000E+00  0.35306631761E+03  0.57541752466E+03  0.45436714565E+03 0.  0.
      99925    2    3    3    0    0 -0.59255502873E+02 -0.59112072756E+02  0.31772793422E+03  0.42081558027E+03  0.26292443905E+03 0.  0.
         25    1    3    3    0    0  0.59255502873E+02  0.59112072756E+02  0.35338383389E+02  0.15460194438E+03  0.12509000000E+03 0.  0.
         25    1    4    4    0    0  0.11713884094E+02 -0.25235604497E+02  0.14487924844E+03  0.19342066990E+03  0.12509000000E+03 0.  0.
         25    1    4    4    0    0 -0.70969386966E+02 -0.33876468259E+02  0.17284868578E+03  0.22739491037E+03  0.12509000000E+03 0.  0.
<mgrwt>
<rscale>  2 0.45436715E+03</rscale>
<asrwt>0</asrwt>
<pdfrwt beam="1">  1       21 0.68270870E-01 0.45436715E+03</pdfrwt>
<pdfrwt beam="2">  1       21 0.16349354E-01 0.45436715E+03</pdfrwt>
<totfact> 0.60519744E+04</totfact>
</mgrwt>
</event>
<event>
 7    0  0.4748297E-002  0.4623948E+03  0.7546771E-02  0.1024089E+00
         21   -1    0    0  502  501  0.00000000000E+00  0.00000000000E+00  0.12435278228E+04  0.12435278228E+04  0.00000000000E+00 0. -1.
         21   -1    0    0  501  502 -0.00000000000E+00 -0.00000000000E+00 -0.42984343464E+02  0.42984343464E+02  0.00000000000E+00 0. -1.
      99926    2    1    2    0    0  0.00000000000E+00  0.00000000000E+00  0.12005434793E+04  0.12865121663E+04  0.46239475361E+03 0.  0.
      99925    2    3    3    0    0 -0.70796432078E+02 -0.80678100400E+01  0.48255915051E+03  0.55423747130E+03  0.26313231746E+03 0.  0.
         25    1    4    4    0    0 -0.34551575049E+02  0.51482372963E+00  0.32300735888E+03  0.34810248257E+03  0.12509000000E+03 0.  0.
         25    1    3    3    0    0  0.70796432078E+02  0.80678100400E+01  0.71798432882E+03  0.73227469496E+03  0.12509000000E+03 0.  0.
         25    1    4    4    0    0 -0.36244857029E+02 -0.85826337697E+01  0.15955179164E+03  0.20613498873E+03  0.12509000000E+03 0.  0.
<mgrwt>
<rscale>  2 0.46239475E+03</rscale>
<asrwt>0</asrwt>
<pdfrwt beam="1">  1       21 0.18287171E+00 0.46239475E+03</pdfrwt>
<pdfrwt beam="2">  1       21 0.63212278E-02 0.46239475E+03</pdfrwt>
<totfact> 0.27870408E+04</totfact>
</mgrwt>
</event>
<event>
 7    0  0.4748297E-002  0.4594265E+03  0.7546771E-02  0.1024948E+00
         21   -1    0    0  502  501  0.00000000000E+00  0.00000000000E+00  0.42053813604E+03  0.42053813604E+03  0.00000000000E+00 0.  1.
         21   -1    0    0  501  502 -0.00000000000E+00 -0.00000000000E+00 -0.12547776785E+03  0.12547776785E+03  0.00000000000E+00 0.  1.
      99926    2    1    2    0    0  0.00000000000E+00  0.00000000000E+00  0.29506036819E+03  0.54601590389E+03  0.45942654083E+03 0.  0.
      99925    2    3    3    0    0 -0.11220218970E+03  0.22827210552E+02  0.21524460020E+03  0.35858997762E+03  0.26295650063E+03 0.  0.
         25    1    4    4    0    0 -0.59805041228E+02 -0.25663058056E+02  0.12637755291E+03  0.18935160280E+03  0.12509000000E+03 0.  0.
         25    1    4    4    0    0 -0.52397148475E+02  0.48490268608E+02  0.88867047289E+02  0.16923837482E+03  0.12509000000E+03 0.  0.
         25    1    3    3    0    0  0.11220218970E+03 -0.22827210552E+02  0.79815767993E+02  0.18742592626E+03  0.12509000000E+03 0.  0.
<mgrwt>
<rscale>  2 0.45942654E+03</rscale>
<asrwt>0</asrwt>
<pdfrwt beam="1">  1       21 0.61843843E-01 0.45942654E+03</pdfrwt>
<pdfrwt beam="2">  1       21 0.18452613E-01 0.45942654E+03</pdfrwt>
<totfact> 0.60001155E+04</totfact>
</mgrwt>
</event>
<event>
 7    0  0.4748297E-002  0.4542276E+03  0.7546771E-02  0.1026469E+00
         21   -1    0    0  502  501  0.00000000000E+00  0.00000000000E+00  0.11782729994E+03  0.11782729994E+03  0.00000000000E+00 0.  1.
         21   -1    0    0  501  502 -0.00000000000E+00 -0.00000000000E+00 -0.43776505903E+03  0.43776505903E+03  0.00000000000E+00 0.  1.
      99926    2    1    2    0    0  0.00000000000E+00  0.00000000000E+00 -0.31993775909E+03  0.55559235897E+03  0.45422758575E+03 0.  0.
      99925    2    3    3    0    0  0.99608453969E+01  0.22183699028E+02 -0.33522622282E+03  0.42724680912E+03  0.26376482043E+03 0.  0.
         25    1    4    4    0    0  0.42470050101E+02  0.98439766921E+00 -0.19321722137E+03  0.23406212195E+03  0.12509000000E+03 0.  0.
         25    1    3    3    0    0 -0.99608453969E+01 -0.22183699028E+02  0.15288463723E+02  0.12834554985E+03  0.12509000000E+03 0.  0.
         25    1    4    4    0    0 -0.32509204704E+02  0.21199301359E+02 -0.14200900144E+03  0.19318468717E+03  0.12509000000E+03 0.  0.
<mgrwt>
<rscale>  2 0.45422759E+03</rscale>
<asrwt>0</asrwt>
<pdfrwt beam="1">  1       21 0.17327545E-01 0.45422759E+03</pdfrwt>
<pdfrwt beam="2">  1       21 0.64377212E-01 0.45422759E+03</pdfrwt>
<totfact> 0.61875689E+04</totfact>
</mgrwt>
</event>
<event>
 7    0  0.4748297E-002  0.4570621E+03  0.7546771E-02  0.1025637E+00
         21   -1    0    0  502  501  0.00000000000E+00  0.00000000000E+00  0.53865548784E+02  0.53865548784E+02  0.00000000000E+00 0.  1.
         21   -1    0    0  501  502 -0.00000000000E+00 -0.00000000000E+00 -0.96957024074E+03  0.96957024074E+03  0.00000000000E+00 0.  1.
      99926    2    1    2    0    0  0.00000000000E+00  0.00000000000E+00 -0.91570469196E+03  0.10234357895E+04  0.45706206626E+03 0.  0.
      99925    2    3    3    0    0  0.24283389170E+02  0.11242083107E+03 -0.56482397817E+03  0.63357310901E+03  0.26298409058E+03 0.  0.
         25    1    4    4    0    0  0.14597621351E+02  0.73842502698E+02 -0.37829885269E+03  0.40549147439E+03  0.12509000000E+03 0.  0.
         25    1    4    4    0    0  0.96857678190E+01  0.38578328375E+02 -0.18652512548E+03  0.22808163462E+03  0.12509000000E+03 0.  0.
         25    1    3    3    0    0 -0.24283389170E+02 -0.11242083107E+03 -0.35088071378E+03  0.38986268051E+03  0.12509000000E+03 0.  0.
<mgrwt>
<rscale>  2 0.45706207E+03</rscale>
<asrwt>0</asrwt>
<pdfrwt beam="1">  1       21 0.79214051E-02 0.45706207E+03</pdfrwt>
<pdfrwt beam="2">  1       21 0.14258384E+00 0.45706207E+03</pdfrwt>
<totfact> 0.37657524E+04</totfact>
</mgrwt>
</event>
<event>
 7    0  0.4748297E-002  0.4502847E+03  0.7546771E-02  0.1027637E+00
         21   -1    0    0  502  501  0.00000000000E+00  0.00000000000E+00  0.56805137477E+03  0.56805137477E+03  0.00000000000E+00 0. -1.
         21   -1    0    0  501  502 -0.00000000000E+00 -0.00000000000E+00 -0.89233261938E+02  0.89233261938E+02  0.00000000000E+00 0. -1.
      99926    2    1    2    0    0  0.00000000000E+00  0.00000000000E+00  0.47881811284E+03  0.65728463671E+03  0.45028469714E+03 0.  0.
      99925    2    3    3    0    0 -0.87892783861E+02  0.39505101873E+02  0.22918973645E+03  0.36190754057E+03  0.26298923571E+03 0.  0.
         25    1    3    3    0    0  0.87892783861E+02 -0.39505101873E+02  0.24962837638E+03  0.29537709614E+03  0.12509000000E+03 0.  0.
         25    1    4    4    0    0 -0.71704284722E+02  0.22878503602E+02  0.16184212055E+03  0.21795712987E+03  0.12509000000E+03 0.  0.
         25    1    4    4    0    0 -0.16188499139E+02  0.16626598271E+02  0.67347615899E+02  0.14395041070E+03  0.12509000000E+03 0.  0.
<mgrwt>
<rscale>  2 0.45028470E+03</rscale>
<asrwt>0</asrwt>
<pdfrwt beam="1">  1       21 0.83536965E-01 0.45028470E+03</pdfrwt>
<pdfrwt beam="2">  1       21 0.13122539E-01 0.45028470E+03</pdfrwt>
<totfact> 0.57388000E+04</totfact>
</mgrwt>
</event>
<event>
 7    0  0.4748297E-002  0.4540934E+03  0.7546771E-02  0.1026508E+00
         21   -1    0    0  502  501  0.00000000000E+00  0.00000000000E+00  0.99139183285E+02  0.99139183285E+02  0.00000000000E+00 0.  1.
         21   -1    0    0  501  502 -0.00000000000E+00 -0.00000000000E+00 -0.51997820908E+03  0.51997820908E+03  0.00000000000E+00 0.  1.
      99926    2    1    2    0    0 -0.71054273576E-14 -0.71054273576E-14 -0.42083902580E+03  0.61911739237E+03  0.45409344842E+03 0.  0.
      99925    2    3    3    0    0  0.39879538941E+02  0.44746833975E+02 -0.39472919910E+03  0.47797247419E+03  0.26278106607E+03 0.  0.
         25    1    4    4    0    0  0.56002256984E+02  0.34146643040E+02 -0.23493570370E+03  0.27412504262E+03  0.12509000000E+03 0.  0.
         25    1    4    4    0    0 -0.16122718042E+02  0.10600190935E+02 -0.15979349540E+03  0.20384743157E+03  0.12509000000E+03 0.  0.
         25    1    3    3    0    0 -0.39879538941E+02 -0.44746833975E+02 -0.26109826692E+02  0.14114491818E+03  0.12509000000E+03 0.  0.
<mgrwt>
<rscale>  2 0.45409345E+03</rscale>
<asrwt>0</asrwt>
<pdfrwt beam="1">  1       21 0.14579292E-01 0.45409345E+03</pdfrwt>
<pdfrwt beam="2">  1       21 0.76467382E-01 0.45409345E+03</pdfrwt>
<totfact> 0.57930306E+04</totfact>
</mgrwt>
</event>
<event>
 7    0  0.4748297E-002  0.4518962E+03  0.7546771E-02  0.1027158E+00
         21   -1    0    0  502  501  0.00000000000E+00  0.00000000000E+00  0.30926529602E+03  0.30926529602E+03  0.00000000000E+00 0. -1.
         21   -1    0    0  501  502 -0.00000000000E+00 -0.00000000000E+00 -0.16507684016E+03  0.16507684016E+03  0.00000000000E+00 0. -1.
      99926    2    1    2    0    0  0.00000000000E+00  0.00000000000E+00  0.14418845586E+03  0.47434213618E+03  0.45189617320E+03 0.  0.
      99925    2    3    3    0    0  0.63601837434E+02 -0.10651983746E+02 -0.27196231569E+01  0.27090135791E+03  0.26309977363E+03 0.  0.
         25    1    3    3    0    0 -0.63601837434E+02  0.10651983746E+02  0.14690807902E+03  0.20344077827E+03  0.12509000000E+03 0.  0.
         25    1    4    4    0    0  0.10577710200E+02 -0.38397159223E+02  0.99604241156E+01  0.13165465407E+03  0.12509000000E+03 0.  0.
         25    1    4    4    0    0  0.53024127234E+02  0.27745175478E+02 -0.12680047273E+02  0.13924670384E+03  0.12509000000E+03 0.  0.
<mgrwt>
<rscale>  2 0.45189617E+03</rscale>
<asrwt>0</asrwt>
<pdfrwt beam="1">  1       21 0.45480191E-01 0.45189617E+03</pdfrwt>
<pdfrwt beam="2">  1       21 0.24276006E-01 0.45189617E+03</pdfrwt>
<totfact> 0.68793330E+04</totfact>
</mgrwt>
</event>
<event>
 7    0  0.4748297E-002  0.4564471E+03  0.7546771E-02  0.1025817E+00
         21   -1    0    0  502  501  0.00000000000E+00  0.00000000000E+00  0.39384340640E+03  0.39384340640E+03  0.00000000000E+00 0.  1.
         21   -1    0    0  501  502 -0.00000000000E+00 -0.00000000000E+00 -0.13225049417E+03  0.13225049417E+03  0.00000000000E+00 0.  1.
      99926    2    1    2    0    0 -0.35527136788E-14  0.14210854715E-13  0.26159291223E+03  0.52609390057E+03  0.45644708400E+03 0.  0.
      99925    2    3    3    0    0 -0.28247941305E+02  0.10556563564E+03  0.12540779985E+03  0.31130111077E+03  0.26313345604E+03 0.  0.
         25    1    4    4    0    0 -0.51490010341E+02  0.40208236947E+02  0.50883998549E+02  0.15001537552E+03  0.12509000000E+03 0.  0.
         25    1    4    4    0    0  0.23242069035E+02  0.65357398692E+02  0.74523801298E+02  0.16128573525E+03  0.12509000000E+03 0.  0.
         25    1    3    3    0    0  0.28247941305E+02 -0.10556563564E+03  0.13618511238E+03  0.21479278980E+03  0.12509000000E+03 0.  0.
<mgrwt>
<rscale>  2 0.45644708E+03</rscale>
<asrwt>0</asrwt>
<pdfrwt beam="1">  1       21 0.57918148E-01 0.45644708E+03</pdfrwt>
<pdfrwt beam="2">  1       21 0.19448602E-01 0.45644708E+03</pdfrwt>
<totfact> 0.62748810E+04</totfact>
</mgrwt>
</event>
<event>
 7    0  0.4748297E-002  0.4468280E+03  0.7546771E-02  0.1028672E+00
         21   -1    0    0  502  501  0.00000000000E+00  0.00000000000E+00  0.23963044434E+03  0.23963044434E+03  0.00000000000E+00 0. -1.
         21   -1    0    0  501  502 -0.00000000000E+00 -0.00000000000E+00 -0.20829500022E+03  0.20829500022E+03  0.00000000000E+00 0. -1.
      99926    2    1    2    0    0  0.00000000000E+00  0.71054273576E-14  0.31335444120E+02  0.44792544457E+03  0.44682803608E+03 0.  0.
      99925    2    3    3    0    0 -0.35281593041E+02 -0.48201296441E+02  0.10750911753E+03  0.28975435869E+03  0.26235705106E+03 0.  0.
         25    1    4    4    0    0  0.20506141077E+02 -0.17454783360E+02  0.40550022320E+02  0.13422735822E+03  0.12509000000E+03 0.  0.
         25    1    4    4    0    0 -0.55787734118E+02 -0.30746513081E+02  0.66959095209E+02  0.15552700047E+03  0.12509000000E+03 0.  0.
         25    1    3    3    0    0  0.35281593041E+02  0.48201296441E+02 -0.76173673410E+02  0.15817108587E+03  0.12509000000E+03 0.  0.
<mgrwt>
<rscale>  2 0.44682804E+03</rscale>
<asrwt>0</asrwt>
<pdfrwt beam="1">  1       21 0.35239771E-01 0.44682804E+03</pdfrwt>
<pdfrwt beam="2">  1       21 0.30631618E-01 0.44682804E+03</pdfrwt>
<totfact> 0.73760536E+04</totfact>
</mgrwt>
</event>
<event>
 7    0  0.4748297E-002  0.4507880E+03  0.7546771E-02  0.1027487E+00
         21   -1    0    0  502  501  0.00000000000E+00  0.00000000000E+00  0.60813141681E+03  0.60813141681E+03  0.00000000000E+00 0. -1.
         21   -1    0    0  501  502 -0.00000000000E+00 -0.00000000000E+00 -0.83538602881E+02  0.83538602881E+02  0.00000000000E+00 0. -1.
      99926    2    1    2    0    0  0.14210854715E-13 -0.17763568394E-14  0.52459281393E+03  0.69167001969E+03  0.45078797202E+03 0.  0.
      99925    2    3    3    0    0 -0.10162552166E+03 -0.11416609473E+02  0.27265729806E+03  0.39237568650E+03  0.26298021132E+03 0.  0.
         25    1    4    4    0    0 -0.13223160230E+02  0.11708718223E+02  0.13833966446E+03  0.18734277918E+03  0.12509000000E+03 0.  0.
         25    1    4    4    0    0 -0.88402361429E+02 -0.23125327697E+02  0.13431763360E+03  0.20503290732E+03  0.12509000000E+03 0.  0.
         25    1    3    3    0    0  0.10162552166E+03  0.11416609473E+02  0.25193551587E+03  0.29929433319E+03  0.12509000000E+03 0.  0.
<mgrwt>
<rscale>  2 0.45078797E+03</rscale>
<asrwt>0</asrwt>
<pdfrwt beam="1">  1       21 0.89431089E-01 0.45078797E+03</pdfrwt>
<pdfrwt beam="2">  1       21 0.12285089E-01 0.45078797E+03</pdfrwt>
<totfact> 0.55163968E+04</totfact>
</mgrwt>
</event>
<event>
 6    0  0.4748297E-002  0.4337433E+03  0.7546771E-02  0.1032684E+00
         21   -1    0    0  502  501  0.00000000000E+00  0.00000000000E+00  0.32074474401E+02  0.32074474401E+02  0.00000000000E+00 0.  1.
         21   -1    0    0  501  502 -0.00000000000E+00 -0.00000000000E+00 -0.14663783907E+04  0.14663783907E+04  0.00000000000E+00 0.  1.
      99926    2    1    2    0    0  0.00000000000E+00 -0.14210854715E-13 -0.14343039163E+04  0.14984528651E+04  0.43374331652E+03 0.  0.
         25    1    3    3    0    0 -0.23923295550E+02 -0.71008185063E+02 -0.56203630605E+03  0.58064343950E+03  0.12509000000E+03 0.  0.
         25    1    3    3    0    0  0.33603825742E+02 -0.34027190856E+01 -0.53279214035E+03  0.54832086274E+03  0.12509000000E+03 0.  0.
         25    1    3    3    0    0 -0.96805301927E+01  0.74410904149E+02 -0.33947546994E+03  0.36948856289E+03  0.12509000000E+03 0.  0.
<mgrwt>
<rscale>  2 0.43374332E+03</rscale>
<asrwt>0</asrwt>
<pdfrwt beam="1">  1       21 0.47168338E-02 0.43374332E+03</pdfrwt>
<pdfrwt beam="2">  1       21 0.21564391E+00 0.43374332E+03</pdfrwt>
<totfact> 0.28192688E+04</totfact>
</mgrwt>
</event>
<event>
 7    0  0.4748297E-002  0.4458180E+03  0.7546771E-02  0.1028977E+00
         21   -1    0    0  502  501  0.00000000000E+00  0.00000000000E+00  0.10881946997E+03  0.10881946997E+03  0.00000000000E+00 0. -1.
         21   -1    0    0  501  502 -0.00000000000E+00 -0.00000000000E+00 -0.45661344361E+03  0.45661344361E+03  0.00000000000E+00 0. -1.
      99926    2    1    2    0    0  0.00000000000E+00 -0.71054273576E-14 -0.34779397365E+03  0.56543291358E+03  0.44581804770E+03 0.  0.
      99925    2    3    3    0    0  0.59944245354E+02  0.61889560630E+02 -0.29547658871E+03  0.40478345939E+03  0.26290607496E+03 0.  0.
         25    1    4    4    0    0  0.16761690690E+02  0.59563659142E+02 -0.11417804328E+03  0.18031338673E+03  0.12509000000E+03 0.  0.
         25    1    3    3    0    0 -0.59944245354E+02 -0.61889560630E+02 -0.52317384939E+02  0.16064945419E+03  0.12509000000E+03 0.  0.
         25    1    4    4    0    0  0.43182554665E+02  0.23259014882E+01 -0.18129854543E+03  0.22447007266E+03  0.12509000000E+03 0.  0.
<mgrwt>
<rscale>  2 0.44581805E+03</rscale>
<asrwt>0</asrwt>
<pdfrwt beam="1">  1       21 0.16002863E-01 0.44581805E+03</pdfrwt>
<pdfrwt beam="2">  1       21 0.67149036E-01 0.44581805E+03</pdfrwt>
<totfact> 0.65485404E+04</totfact>
</mgrwt>
</event>
<event>
 7    0  0.4748297E-002  0.4625527E+03  0.7546771E-02  0.1024043E+00
         21   -1    0    0  502  501  0.00000000000E+00  0.00000000000E+00  0.14090091436E+03  0.14090091436E+03  0.00000000000E+00 0. -1.
         21   -1    0    0  501  502 -0.00000000000E+00 -0.00000000000E+00 -0.37961968093E+03  0.37961968093E+03  0.00000000000E+00 0. -1.
      99926    2    1    2    0    0  0.00000000000E+00  0.17763568394E-14 -0.23871876657E+03  0.52052059529E+03  0.46255274359E+03 0.  0.
      99925    2    3    3    0    0  0.11904760961E+03  0.75908668407E+01 -0.13254900526E+03  0.31766724696E+03  0.26289405923E+03 0.  0.
         25    1    4    4    0    0  0.29386989628E+02  0.32689141433E+02 -0.55540725206E+02  0.14375136654E+03  0.12509000000E+03 0.  0.
         25    1    3    3    0    0 -0.11904760961E+03 -0.75908668407E+01 -0.10616976131E+03  0.20285334833E+03  0.12509000000E+03 0.  0.
         25    1    4    4    0    0  0.89660619980E+02 -0.25098274592E+02 -0.77008280057E+02  0.17391588041E+03  0.12509000000E+03 0.  0.
<mgrwt>
<rscale>  2 0.46255274E+03</rscale>
<asrwt>0</asrwt>
<pdfrwt beam="1">  1       21 0.20720723E-01 0.46255274E+03</pdfrwt>
<pdfrwt beam="2">  1       21 0.55826423E-01 0.46255274E+03</pdfrwt>
<totfact> 0.60164522E+04</totfact>
</mgrwt>
</event>
<event>
 7    0  0.4748297E-002  0.4523875E+03  0.7546771E-02  0.1027012E+00
         21   -1    0    0  502  501  0.00000000000E+00  0.00000000000E+00  0.17862998145E+04  0.17862998145E+04  0.00000000000E+00 0. -1.
         21   -1    0    0  501  502 -0.00000000000E+00 -0.00000000000E+00 -0.28642233875E+02  0.28642233875E+02  0.00000000000E+00 0. -1.
      99926    2    1    2    0    0  0.00000000000E+00 -0.14210854715E-13  0.17576575806E+04  0.18149420484E+04  0.45238751998E+03 0.  0.
      99925    2    3    3    0    0  0.17122250945E+02  0.10886190789E+03  0.10635605342E+04  0.11011057195E+04  0.26292339025E+03 0.  0.
         25    1    3    3    0    0 -0.17122250945E+02 -0.10886190789E+03  0.69409704643E+03  0.71383632888E+03  0.12509000000E+03 0.  0.
         25    1    4    4    0    0  0.24936381266E+02  0.38041157859E+02  0.38251040314E+03  0.40500699921E+03  0.12509000000E+03 0.  0.
         25    1    4    4    0    0 -0.78141303215E+01  0.70820750027E+02  0.68105013105E+03  0.69609872027E+03  0.12509000000E+03 0.  0.
<mgrwt>
<rscale>  2 0.45238752E+03</rscale>
<asrwt>0</asrwt>
<pdfrwt beam="1">  1       21 0.26269107E+00 0.45238752E+03</pdfrwt>
<pdfrwt beam="2">  1       21 0.42120944E-02 0.45238752E+03</pdfrwt>
<totfact> 0.17322772E+04</totfact>
</mgrwt>
</event>
<event>
 7    0  0.4748297E-002  0.4432598E+03  0.7546771E-02  0.1029751E+00
         21   -1    0    0  502  501  0.00000000000E+00  0.00000000000E+00  0.34567081152E+03  0.34567081152E+03  0.00000000000E+00 0.  1.
         21   -1    0    0  501  502 -0.00000000000E+00 -0.00000000000E+00 -0.14209995027E+03  0.14209995027E+03  0.00000000000E+00 0.  1.
      99926    2    1    2    0    0 -0.15543122345E-14  0.00000000000E+00  0.20357086125E+03  0.48777076179E+03  0.44325976640E+03 0.  0.
      99925    2    3    3    0    0  0.16117769338E+01  0.10066446877E+03  0.11346660015E+03  0.30364520934E+03  0.26303956111E+03 0.  0.
         25    1    4    4    0    0 -0.21371743749E+02  0.70876470633E+02  0.89905969393E+02  0.17091172269E+03  0.12509000000E+03 0.  0.
         25    1    3    3    0    0 -0.16117769338E+01 -0.10066446877E+03  0.90104261102E+02  0.18412555245E+03  0.12509000000E+03 0.  0.
         25    1    4    4    0    0  0.22983520683E+02  0.29787998134E+02  0.23560630756E+02  0.13273348665E+03  0.12509000000E+03 0.  0.
<mgrwt>
<rscale>  2 0.44325977E+03</rscale>
<asrwt>0</asrwt>
<pdfrwt beam="1">  1       21 0.50833943E-01 0.44325977E+03</pdfrwt>
<pdfrwt beam="2">  1       21 0.20897052E-01 0.44325977E+03</pdfrwt>
<totfact> 0.72679868E+04</totfact>
</mgrwt>
</event>
<event>
 7    0  0.4748297E-002  0.4560610E+03  0.7546771E-02  0.1025930E+00
         21   -1    0    0  502  501  0.00000000000E+00  0.00000000000E+00  0.10421328263E+03  0.10421328263E+03  0.00000000000E+00 0.  1.
         21   -1    0    0  501  502 -0.00000000000E+00 -0.00000000000E+00 -0.49895659780E+03  0.49895659780E+03  0.00000000000E+00 0.  1.
      99926    2    1    2    0    0  0.35527136788E-14 -0.14210854715E-13 -0.39474331517E+03  0.60316988042E+03  0.45606098252E+03 0.  0.
      99925    2    3    3    0    0  0.17525264787E+02 -0.11278529555E+03 -0.25210993327E+03  0.38176652108E+03  0.26298022809E+03 0.  0.
         25    1    3    3    0    0 -0.17525264787E+02  0.11278529555E+03 -0.14263338190E+03  0.22140335935E+03  0.12509000000E+03 0.  0.
         25    1    4    4    0    0  0.14023294561E+02 -0.80801486357E+02 -0.90272558038E+02  0.17470596962E+03  0.12509000000E+03 0.  0.
         25    1    4    4    0    0  0.35019702264E+01 -0.31983809193E+02 -0.16183737523E+03  0.20706055145E+03  0.12509000000E+03 0.  0.
<mgrwt>
<rscale>  2 0.45606098E+03</rscale>
<asrwt>0</asrwt>
<pdfrwt beam="1">  1       21 0.15325483E-01 0.45606098E+03</pdfrwt>
<pdfrwt beam="2">  1       21 0.73375971E-01 0.45606098E+03</pdfrwt>
<totfact> 0.57995903E+04</totfact>
</mgrwt>
</event>
<event>
 7    0  0.4748297E-002  0.4304148E+03  0.7546771E-02  0.1033729E+00
         21   -1    0    0  502  501  0.00000000000E+00  0.00000000000E+00  0.51683509814E+03  0.51683509814E+03  0.00000000000E+00 0. -1.
         21   -1    0    0  501  502 -0.00000000000E+00 -0.00000000000E+00 -0.89611237419E+02  0.89611237419E+02  0.00000000000E+00 0. -1.
      99926    2    1    2    0    0  0.00000000000E+00  0.00000000000E+00  0.42722386072E+03  0.60644633556E+03  0.43041483564E+03 0.  0.
      99925    2    3    3    0    0  0.73253620116E+02  0.35475709588E+02  0.32311512730E+03  0.42448272572E+03  0.26297828829E+03 0.  0.
         25    1    4    4    0    0  0.31383030814E+02  0.55267598743E+01  0.98870360474E+02  0.16259857311E+03  0.12509000000E+03 0.  0.
         25    1    3    3    0    0 -0.73253620116E+02 -0.35475709588E+02  0.10410873342E+03  0.18196360984E+03  0.12509000000E+03 0.  0.
         25    1    4    4    0    0  0.41870589303E+02  0.29948949714E+02  0.22424476683E+03  0.26188415261E+03  0.12509000000E+03 0.  0.
<mgrwt>
<rscale>  2 0.43041484E+03</rscale>
<asrwt>0</asrwt>
<pdfrwt beam="1">  1       21 0.76005160E-01 0.43041484E+03</pdfrwt>
<pdfrwt beam="2">  1       21 0.13178123E-01 0.43041484E+03</pdfrwt>
<totfact> 0.71120252E+04</totfact>
</mgrwt>
</event>
<event>
 7    0  0.4748297E-002  0.4604643E+03  0.7546771E-02  0.1024647E+00
         21   -1    0    0  502  501  0.00000000000E+00  0.00000000000E+00  0.51463905956E+02  0.51463905956E+02  0.00000000000E+00 0. -1.
         21   -1    0    0  501  502 -0.00000000000E+00 -0.00000000000E+00 -0.10299808097E+04  0.10299808097E+04  0.00000000000E+00 0. -1.
      99926    2    1    2    0    0 -0.35527136788E-14  0.00000000000E+00 -0.97851690371E+03  0.10814447156E+04  0.46046426799E+03 0.  0.
      99925    2    3    3    0    0  0.26820224937E+02  0.81055768872E+02 -0.80480003576E+03  0.85097905561E+03  0.26300740179E+03 0.  0.
         25    1    4    4    0    0 -0.12051496478E+02  0.28594077657E+02 -0.29318897474E+03  0.32026573787E+03  0.12509000000E+03 0.  0.
         25    1    3    3    0    0 -0.26820224937E+02 -0.81055768872E+02 -0.17371686795E+03  0.23046566001E+03  0.12509000000E+03 0.  0.
         25    1    4    4    0    0  0.38871721415E+02  0.52461691215E+02 -0.51161106102E+03  0.53071331774E+03  0.12509000000E+03 0.  0.
<mgrwt>
<rscale>  2 0.46046427E+03</rscale>
<asrwt>0</asrwt>
<pdfrwt beam="1">  1       21 0.75682221E-02 0.46046427E+03</pdfrwt>
<pdfrwt beam="2">  1       21 0.15146775E+00 0.46046427E+03</pdfrwt>
<totfact> 0.34643510E+04</totfact>
</mgrwt>
</event>
<event>
 7    0  0.4748297E-002  0.4546844E+03  0.7546771E-02  0.1026334E+00
         21   -1    0    0  502  501  0.00000000000E+00  0.00000000000E+00  0.11466350810E+04  0.11466350810E+04  0.00000000000E+00 0.  1.
         21   -1    0    0  501  502 -0.00000000000E+00 -0.00000000000E+00 -0.45074912687E+02  0.45074912687E+02  0.00000000000E+00 0.  1.
      99926    2    1    2    0    0  0.00000000000E+00  0.00000000000E+00  0.11015601683E+04  0.11917099937E+04  0.45468440114E+03 0.  0.
      99925    2    3    3    0    0 -0.25537027507E+02  0.44575949730E+02  0.42987521494E+03  0.50654772112E+03  0.26298049030E+03 0.  0.
         25    1    4    4    0    0 -0.12805621196E+02  0.44083779674E+02  0.15581335758E+03  0.20501871637E+03  0.12509000000E+03 0.  0.
         25    1    3    3    0    0  0.25537027507E+02 -0.44575949730E+02  0.67168495337E+03  0.68516227257E+03  0.12509000000E+03 0.  0.
         25    1    4    4    0    0 -0.12731406311E+02  0.49217005611E+00  0.27406185737E+03  0.30152900474E+03  0.12509000000E+03 0.  0.
<mgrwt>
<rscale>  2 0.45468440E+03</rscale>
<asrwt>0</asrwt>
<pdfrwt beam="1">  1       21 0.16862279E+00 0.45468440E+03</pdfrwt>
<pdfrwt beam="2">  1       21 0.66286644E-02 0.45468440E+03</pdfrwt>
<totfact> 0.32499634E+04</totfact>
</mgrwt>
</event>
<event>
 7    0  0.4748297E-002  0.4511112E+03  0.7546771E-02  0.1027391E+00
         21   -1    0    0  502  501  0.00000000000E+00  0.00000000000E+00  0.29934888282E+02  0.29934888282E+02  0.00000000000E+00 0. -1.
         21   -1    0    0  501  502 -0.00000000000E+00 -0.00000000000E+00 -0.16995325703E+04  0.16995325703E+04  0.00000000000E+00 0. -1.
      99926    2    1    2    0    0  0.00000000000E+00  0.00000000000E+00 -0.16695976820E+04  0.17294674586E+04  0.45111115093E+03 0.  0.
      99925    2    3    3    0    0  0.48365661397E+02 -0.29173032461E+02 -0.14145615746E+04  0.14398448987E+04  0.26263773690E+03 0.  0.
         25    1    4    4    0    0  0.50166060297E+02 -0.89993733446E+01 -0.56727025513E+03  0.58313006507E+03  0.12509000000E+03 0.  0.
         25    1    3    3    0    0 -0.48365661397E+02  0.29173032461E+02 -0.25503610739E+03  0.28962255989E+03  0.12509000000E+03 0.  0.
         25    1    4    4    0    0 -0.18003989000E+01 -0.20173659117E+02 -0.84729131951E+03  0.85671483364E+03  0.12509000000E+03 0.  0.
<mgrwt>
<rscale>  2 0.45111115E+03</rscale>
<asrwt>0</asrwt>
<pdfrwt beam="1">  1       21 0.44021886E-02 0.45111115E+03</pdfrwt>
<pdfrwt beam="2">  1       21 0.24993131E+00 0.45111115E+03</pdfrwt>
<totfact> 0.19228964E+04</totfact>
</mgrwt>
</event>
<event>
 7    0  0.4748297E-002  0.4679881E+03  0.7546771E-02  0.1022490E+00
         21   -1    0    0  502  501  0.00000000000E+00  0.00000000000E+00  0.56344865153E+02  0.56344865153E+02  0.00000000000E+00 0. -1.
         21   -1    0    0  501  502 -0.00000000000E+00 -0.00000000000E+00 -0.97175171135E+03  0.97175171135E+03  0.00000000000E+00 0. -1.
      99926    2    1    2    0    0  0.00000000000E+00  0.00000000000E+00 -0.91540684620E+03  0.10280965765E+04  0.46798811583E+03 0.  0.
      99925    2    3    3    0    0 -0.93456330784E+02 -0.77977511894E+02 -0.63492883672E+03  0.69774827542E+03  0.26249466668E+03 0.  0.
         25    1    4    4    0    0 -0.34544308720E+02 -0.50995356627E+02 -0.40241614166E+03  0.42588742037E+03  0.12509000000E+03 0.  0.
         25    1    3    3    0    0  0.93456330784E+02  0.77977511894E+02 -0.28047800948E+03  0.33034830108E+03  0.12509000000E+03 0.  0.
         25    1    4    4    0    0 -0.58912022064E+02 -0.26982155266E+02 -0.23251269506E+03  0.27186085505E+03  0.12509000000E+03 0.  0.
<mgrwt>
<rscale>  2 0.46798812E+03</rscale>
<asrwt>0</asrwt>
<pdfrwt beam="1">  1       21 0.82860095E-02 0.46798812E+03</pdfrwt>
<pdfrwt beam="2">  1       21 0.14290466E+00 0.46798812E+03</pdfrwt>
<totfact> 0.34462100E+04</totfact>
</mgrwt>
</event>
<event>
 7    0  0.4748297E-002  0.4999302E+03  0.7546771E-02  0.1013797E+00
         21   -1    0    0  502  501  0.00000000000E+00  0.00000000000E+00  0.67235000873E+02  0.67235000873E+02  0.00000000000E+00 0. -1.
         21   -1    0    0  501  502 -0.00000000000E+00 -0.00000000000E+00 -0.92931590177E+03  0.92931590177E+03  0.00000000000E+00 0. -1.
      99926    2    1    2    0    0  0.00000000000E+00 -0.71054273576E-14 -0.86208090090E+03  0.99655090264E+03  0.49993021700E+03 0.  0.
      99925    2    3    3    0    0  0.13134853453E+03  0.63345076229E+02 -0.60414703034E+03  0.67492623648E+03  0.26318577889E+03 0.  0.
         25    1    4    4    0    0  0.24539898311E+02  0.20581274223E+02 -0.22475277367E+03  0.25920477008E+03  0.12509000000E+03 0.  0.
         25    1    4    4    0    0  0.10680863622E+03  0.42763802006E+02 -0.37939425667E+03  0.41572146640E+03  0.12509000000E+03 0.  0.
         25    1    3    3    0    0 -0.13134853453E+03 -0.63345076229E+02 -0.25793387056E+03  0.32162466617E+03  0.12509000000E+03 0.  0.
<mgrwt>
<rscale>  2 0.49993022E+03</rscale>
<asrwt>0</asrwt>
<pdfrwt beam="1">  1       21 0.98875004E-02 0.49993022E+03</pdfrwt>
<pdfrwt beam="2">  1       21 0.13666410E+00 0.49993022E+03</pdfrwt>
<totfact> 0.28072670E+04</totfact>
</mgrwt>
</event>
<event>
 7    0  0.4748297E-002  0.4559423E+03  0.7546771E-02  0.1025965E+00
         21   -1    0    0  502  501  0.00000000000E+00  0.00000000000E+00  0.37275930208E+02  0.37275930208E+02  0.00000000000E+00 0.  1.
         21   -1    0    0  501  502 -0.00000000000E+00 -0.00000000000E+00 -0.13942201498E+04  0.13942201498E+04  0.00000000000E+00 0.  1.
      99926    2    1    2    0    0  0.00000000000E+00 -0.71054273576E-14 -0.13569442196E+04  0.14314960800E+04  0.45594233407E+03 0.  0.
      99925    2    3    3    0    0  0.93396110456E+02  0.44690206142E+02 -0.70484433582E+03  0.75948282531E+03  0.26322723307E+03 0.  0.
         25    1    4    4    0    0  0.79365319844E+02  0.14917104112E+01 -0.33048085007E+03  0.36216871698E+03  0.12509000000E+03 0.  0.
         25    1    3    3    0    0 -0.93396110456E+02 -0.44690206142E+02 -0.65209988380E+03  0.67201325472E+03  0.12509000000E+03 0.  0.
         25    1    4    4    0    0  0.14030790612E+02  0.43198495731E+02 -0.37436348574E+03  0.39731410833E+03  0.12509000000E+03 0.  0.
<mgrwt>
<rscale>  2 0.45594233E+03</rscale>
<asrwt>0</asrwt>
<pdfrwt beam="1">  1       21 0.54817549E-02 0.45594233E+03</pdfrwt>
<pdfrwt beam="2">  1       21 0.20503236E+00 0.45594233E+03</pdfrwt>
<totfact> 0.25318774E+04</totfact>
</mgrwt>
</event>
<event>
 7    0  0.4748297E-002  0.4576187E+03  0.7546771E-02  0.1025474E+00
         21   -1    0    0  502  501  0.00000000000E+00  0.00000000000E+00  0.28340583310E+03  0.28340583310E+03  0.00000000000E+00 0.  1.
         21   -1    0    0  501  502 -0.00000000000E+00 -0.00000000000E+00 -0.18473058612E+03  0.18473058612E+03  0.00000000000E+00 0.  1.
      99926    2    1    2    0    0  0.00000000000E+00  0.00000000000E+00  0.98675246982E+02  0.46813641922E+03  0.45761873064E+03 0.  0.
      99925    2    3    3    0    0 -0.17137743003E+02 -0.86120709908E+02 -0.14931462174E+02  0.27770409167E+03  0.26303257414E+03 0.  0.
         25    1    4    4    0    0  0.30973497371E+02 -0.40705476779E+02  0.22038428363E+01  0.13516160107E+03  0.12509000000E+03 0.  0.
         25    1    4    4    0    0 -0.48111240374E+02 -0.45415233129E+02 -0.17135305010E+02  0.14254249061E+03  0.12509000000E+03 0.  0.
         25    1    3    3    0    0  0.17137743003E+02  0.86120709908E+02  0.11360670916E+03  0.19043232755E+03  0.12509000000E+03 0.  0.
<mgrwt>
<rscale>  2 0.45761873E+03</rscale>
<asrwt>0</asrwt>
<pdfrwt beam="1">  1       21 0.41677329E-01 0.45761873E+03</pdfrwt>
<pdfrwt beam="2">  1       21 0.27166262E-01 0.45761873E+03</pdfrwt>
<totfact> 0.66189480E+04</totfact>
</mgrwt>
</event>
<event>
 6    0  0.4748297E-002  0.4478438E+03  0.7546771E-02  0.1028367E+00
         21   -1    0    0  502  501  0.00000000000E+00  0.00000000000E+00  0.17375817825E+03  0.17375817825E+03  0.00000000000E+00 0.  1.
         21   -1    0    0  501  502 -0.00000000000E+00 -0.00000000000E+00 -0.28856784901E+03  0.28856784901E+03  0.00000000000E+00 0.  1.
      99926    2    1    2    0    0 -0.71054273576E-14  0.00000000000E+00 -0.11480967076E+03  0.46232602726E+03  0.44784382879E+03 0.  0.
         25    1    3    3    0    0 -0.12695532045E+02 -0.30198557253E+02 -0.70712053478E+02  0.14737989008E+03  0.12509000000E+03 0.  0.
         25    1    3    3    0    0 -0.34585413232E+02  0.35661695778E+02  0.58052156695E+02  0.14657922210E+03  0.12509000000E+03 0.  0.
         25    1    3    3    0    0  0.47280945277E+02 -0.54631385245E+01 -0.10214977398E+03  0.16836691508E+03  0.12509000000E+03 0.  0.
<mgrwt>
<rscale>  2 0.44784383E+03</rscale>
<asrwt>0</asrwt>
<pdfrwt beam="1">  1       21 0.25552673E-01 0.44784383E+03</pdfrwt>
<pdfrwt beam="2">  1       21 0.42436448E-01 0.44784383E+03</pdfrwt>
<totfact> 0.72012673E+04</totfact>
</mgrwt>
</event>
<event>
 7    0  0.4748297E-002  0.4520122E+03  0.7546771E-02  0.1027124E+00
         21   -1    0    0  502  501  0.00000000000E+00  0.00000000000E+00  0.69473118539E+03  0.69473118539E+03  0.00000000000E+00 0. -1.
         21   -1    0    0  501  502 -0.00000000000E+00 -0.00000000000E+00 -0.73523060217E+02  0.73523060217E+02  0.00000000000E+00 0. -1.
      99926    2    1    2    0    0  0.00000000000E+00  0.14210854715E-13  0.62120812517E+03  0.76825424561E+03  0.45201222452E+03 0.  0.
      99925    2    3    3    0    0  0.83801103071E+02 -0.71108552169E+02  0.40784967970E+03  0.49760985638E+03  0.26304972318E+03 0.  0.
         25    1    3    3    0    0 -0.83801103071E+02  0.71108552169E+02  0.21335844547E+03  0.27064438923E+03  0.12509000000E+03 0.  0.
         25    1    4    4    0    0  0.20306426286E+02 -0.28253367468E+01  0.21460108663E+03  0.24924178614E+03  0.12509000000E+03 0.  0.
         25    1    4    4    0    0  0.63494676785E+02 -0.68283215423E+02  0.19324859307E+03  0.24836807023E+03  0.12509000000E+03 0.  0.
<mgrwt>
<rscale>  2 0.45201222E+03</rscale>
<asrwt>0</asrwt>
<pdfrwt beam="1">  1       21 0.10216635E+00 0.45201222E+03</pdfrwt>
<pdfrwt beam="2">  1       21 0.10812215E-01 0.45201222E+03</pdfrwt>
<totfact> 0.50512957E+04</totfact>
</mgrwt>
</event>
<event>
 7    0  0.4748297E-002  0.4434671E+03  0.7546771E-02  0.1029688E+00
         21   -1    0    0  502  501  0.00000000000E+00  0.00000000000E+00  0.12455393085E+03  0.12455393085E+03  0.00000000000E+00 0.  1.
         21   -1    0    0  501  502 -0.00000000000E+00 -0.00000000000E+00 -0.39473472372E+03  0.39473472372E+03  0.00000000000E+00 0.  1.
      99926    2    1    2    0    0 -0.71054273576E-14  0.00000000000E+00 -0.27018079287E+03  0.51928865457E+03  0.44346707423E+03 0.  0.
      99925    2    3    3    0    0  0.54072897076E+02  0.64404724995E+02 -0.23936685394E+03  0.36544180302E+03  0.26301972136E+03 0.  0.
         25    1    3    3    0    0 -0.54072897076E+02 -0.64404724995E+02 -0.30813938922E+02  0.15384685155E+03  0.12509000000E+03 0.  0.
         25    1    4    4    0    0  0.79667408133E+00  0.30813007160E+02 -0.73377415783E+02  0.14826270383E+03  0.12509000000E+03 0.  0.
         25    1    4    4    0    0  0.53276222994E+02  0.33591717834E+02 -0.16598943816E+03  0.21717909919E+03  0.12509000000E+03 0.  0.
<mgrwt>
<rscale>  2 0.44346707E+03</rscale>
<asrwt>0</asrwt>
<pdfrwt beam="1">  1       21 0.18316755E-01 0.44346707E+03</pdfrwt>
<pdfrwt beam="2">  1       21 0.58049222E-01 0.44346707E+03</pdfrwt>
<totfact> 0.70130787E+04</totfact>
</mgrwt>
</event>
<event>
 7    0  0.4748297E-002  0.4425643E+03  0.7546771E-02  0.1029963E+00
         21   -1    0    0  502  501  0.00000000000E+00  0.00000000000E+00  0.24987317995E+03  0.24987317995E+03  0.00000000000E+00 0. -1.
         21   -1    0    0  501  502 -0.00000000000E+00 -0.00000000000E+00 -0.19596256992E+03  0.19596256992E+03  0.00000000000E+00 0. -1.
      99926    2    1    2    0    0 -0.71054273576E-14  0.14210854715E-13  0.53910610035E+02  0.44583574987E+03  0.44256430266E+03 0.  0.
      99925    2    3    3    0    0  0.55323979939E+02 -0.77342424919E+02  0.68765065554E+02  0.28800433222E+03  0.26301191549E+03 0.  0.
         25    1    4    4    0    0 -0.13559750853E+02 -0.38445431909E+02  0.36289044947E+02  0.13647828018E+03  0.12509000000E+03 0.  0.
         25    1    3    3    0    0 -0.55323979939E+02  0.77342424919E+02 -0.14854455520E+02  0.15783141765E+03  0.12509000000E+03 0.  0.
         25    1    4    4    0    0  0.68883730792E+02 -0.38896993010E+02  0.32476020607E+02  0.15152605204E+03  0.12509000000E+03 0.  0.
<mgrwt>
<rscale>  2 0.44256430E+03</rscale>
<asrwt>0</asrwt>
<pdfrwt beam="1">  1       21 0.36746056E-01 0.44256430E+03</pdfrwt>
<pdfrwt beam="2">  1       21 0.28818025E-01 0.44256430E+03</pdfrwt>
<totfact> 0.76538965E+04</totfact>
</mgrwt>
</event>
<event>
 7    0  0.4748297E-002  0.4495851E+03  0.7546771E-02  0.1027846E+00
         21   -1    0    0  502  501  0.00000000000E+00  0.00000000000E+00  0.59799338341E+02  0.59799338341E+02  0.00000000000E+00 0.  1.
         21   -1    0    0  501  502 -0.00000000000E+00 -0.00000000000E+00 -0.84502085251E+03  0.84502085251E+03  0.00000000000E+00 0.  1.
      99926    2    1    2    0    0 -0.44408920985E-15  0.14210854715E-13 -0.78522151417E+03  0.90482019085E+03  0.44958508812E+03 0.  0.
      99925    2    3    3    0    0  0.39964204401E+01 -0.10518138751E+03 -0.44677388114E+03  0.52895664639E+03  0.26288616782E+03 0.  0.
         25    1    4    4    0    0 -0.77030407559E+01 -0.86855325904E+02 -0.28585112100E+03  0.32397770903E+03  0.12509000000E+03 0.  0.
         25    1    3    3    0    0 -0.39964204401E+01  0.10518138751E+03 -0.33844763303E+03  0.37586354446E+03  0.12509000000E+03 0.  0.
         25    1    4    4    0    0  0.11699461196E+02 -0.18326061611E+02 -0.16092276015E+03  0.20497893736E+03  0.12509000000E+03 0.  0.
<mgrwt>
<rscale>  2 0.44958509E+03</rscale>
<asrwt>0</asrwt>
<pdfrwt beam="1">  1       21 0.87940215E-02 0.44958509E+03</pdfrwt>
<pdfrwt beam="2">  1       21 0.12426776E+00 0.44958509E+03</pdfrwt>
<totfact> 0.44898739E+04</totfact>
</mgrwt>
</event>
<event>
 7    0  0.4748297E-002  0.4458521E+03  0.7546771E-02  0.1028966E+00
         21   -1    0    0  502  501  0.00000000000E+00  0.00000000000E+00  0.20163051681E+03  0.20163051681E+03  0.00000000000E+00 0.  1.
         21   -1    0    0  501  502 -0.00000000000E+00 -0.00000000000E+00 -0.24647075435E+03  0.24647075435E+03  0.00000000000E+00 0.  1.
      99926    2    1    2    0    0  0.00000000000E+00 -0.44408920985E-14 -0.44840237539E+02  0.44810127116E+03  0.44585210812E+03 0.  0.
      99925    2    3    3    0    0 -0.80640731068E+02  0.61942230987E+01  0.38073480098E+02  0.27762110053E+03  0.26283567046E+03 0.  0.
         25    1    4    4    0    0 -0.41732609835E+02 -0.35021937030E+02  0.58791607258E+01  0.13656580622E+03  0.12509000000E+03 0.  0.
         25    1    3    3    0    0  0.80640731068E+02 -0.61942230987E+01 -0.82913717636E+02  0.17048017063E+03  0.12509000000E+03 0.  0.
         25    1    4    4    0    0 -0.38908121234E+02  0.41216160128E+02  0.32194319372E+02  0.14105529431E+03  0.12509000000E+03 0.  0.
<mgrwt>
<rscale>  2 0.44585211E+03</rscale>
<asrwt>0</asrwt>
<pdfrwt beam="1">  1       21 0.29651547E-01 0.44585211E+03</pdfrwt>
<pdfrwt beam="2">  1       21 0.36245699E-01 0.44585211E+03</pdfrwt>
<totfact> 0.74333147E+04</totfact>
</mgrwt>
</event>
<event>
 7    0  0.4748297E-002  0.4612678E+03  0.7546771E-02  0.1024414E+00
         21   -1    0    0  502  501  0.00000000000E+00  0.00000000000E+00  0.15475371627E+04  0.15475371627E+04  0.00000000000E+00 0. -1.
         21   -1    0    0  501  502 -0.00000000000E+00 -0.00000000000E+00 -0.34372031515E+02  0.34372031515E+02  0.00000000000E+00 0. -1.
      99926    2    1    2    0    0 -0.71054273576E-14  0.00000000000E+00  0.15131651312E+04  0.15819091942E+04  0.46126780129E+03 0.  0.
      99925    2    3    3    0    0 -0.50330966122E+02  0.10773572767E+03  0.94546635251E+03  0.98855465891E+03  0.26304656763E+03 0.  0.
         25    1    3    3    0    0  0.50330966122E+02 -0.10773572767E+03  0.56769877865E+03  0.59335453529E+03  0.12509000000E+03 0.  0.
         25    1    4    4    0    0  0.16065979484E+02  0.47323654530E+02  0.43819642801E+03  0.45843348656E+03  0.12509000000E+03 0.  0.
         25    1    4    4    0    0 -0.66396945606E+02  0.60412073142E+02  0.50726992450E+03  0.53012117235E+03  0.12509000000E+03 0.  0.
<mgrwt>
<rscale>  2 0.46126780E+03</rscale>
<asrwt>0</asrwt>
<pdfrwt beam="1">  1       21 0.22757895E+00 0.46126780E+03</pdfrwt>
<pdfrwt beam="2">  1       21 0.50547116E-02 0.46126780E+03</pdfrwt>
<totfact> 0.20809647E+04</totfact>
</mgrwt>
</event>
<event>
 7    0  0.4748297E-002  0.4592180E+03  0.7546771E-02  0.1025008E+00
         21   -1    0    0  502  501  0.00000000000E+00  0.00000000000E+00  0.76425130198E+02  0.76425130198E+02  0.00000000000E+00 0. -1.
         21   -1    0    0  501  502 -0.00000000000E+00 -0.00000000000E+00 -0.68982925150E+03  0.68982925150E+03  0.00000000000E+00 0. -1.
      99926    2    1    2    0    0 -0.35527136788E-14 -0.14210854715E-13 -0.61340412130E+03  0.76625438170E+03  0.45921798902E+03 0.  0.
      99925    2    3    3    0    0  0.26967312838E+02 -0.11104559573E+03 -0.34565050386E+03  0.44939815556E+03  0.26348827509E+03 0.  0.
         25    1    3    3    0    0 -0.26967312838E+02  0.11104559573E+03 -0.26775361744E+03  0.31685622614E+03  0.12509000000E+03 0.  0.
         25    1    4    4    0    0  0.25678243353E+02 -0.98460194558E+02 -0.18538390327E+03  0.24569998328E+03  0.12509000000E+03 0.  0.
         25    1    4    4    0    0  0.12890694854E+01 -0.12585401167E+02 -0.16026660059E+03  0.20369817228E+03  0.12509000000E+03 0.  0.
<mgrwt>
<rscale>  2 0.45921799E+03</rscale>
<asrwt>0</asrwt>
<pdfrwt beam="1">  1       21 0.11238989E-01 0.45921799E+03</pdfrwt>
<pdfrwt beam="2">  1       21 0.10144548E+00 0.45921799E+03</pdfrwt>
<totfact> 0.47836398E+04</totfact>
</mgrwt>
</event>
<event>
 7    0  0.4748297E-002  0.4659905E+03  0.7546771E-02  0.1023058E+00
         21   -1    0    0  502  501  0.00000000000E+00  0.00000000000E+00  0.60598796838E+02  0.60598796838E+02  0.00000000000E+00 0. -1.
         21   -1    0    0  501  502 -0.00000000000E+00 -0.00000000000E+00 -0.89583927064E+03  0.89583927064E+03  0.00000000000E+00 0. -1.
      99926    2    1    2    0    0  0.00000000000E+00  0.00000000000E+00 -0.83524047380E+03  0.95643806748E+03  0.46599048042E+03 0.  0.
      99925    2    3    3    0    0 -0.17239264944E+02  0.70466923831E+02 -0.31500281607E+03  0.41647741314E+03  0.26260975213E+03 0.  0.
         25    1    4    4    0    0  0.28775423398E+02  0.31420886638E+02 -0.13245613012E+03  0.18710273011E+03  0.12509000000E+03 0.  0.
         25    1    4    4    0    0 -0.46014688342E+02  0.39046037192E+02 -0.18254668596E+03  0.22937468303E+03  0.12509000000E+03 0.  0.
         25    1    3    3    0    0  0.17239264944E+02 -0.70466923831E+02 -0.52023765773E+03  0.53996065434E+03  0.12509000000E+03 0.  0.
<mgrwt>
<rscale>  2 0.46599048E+03</rscale>
<asrwt>0</asrwt>
<pdfrwt beam="1">  1       21 0.89115886E-02 0.46599048E+03</pdfrwt>
<pdfrwt beam="2">  1       21 0.13174106E+00 0.46599048E+03</pdfrwt>
<totfact> 0.37548877E+04</totfact>
</mgrwt>
</event>
<event>
 7    0  0.4748297E-002  0.4580162E+03  0.7546771E-02  0.1025358E+00
         21   -1    0    0  502  501  0.00000000000E+00  0.00000000000E+00  0.18601190411E+03  0.18601190411E+03  0.00000000000E+00 0. -1.
         21   -1    0    0  501  502 -0.00000000000E+00 -0.00000000000E+00 -0.28194281588E+03  0.28194281588E+03  0.00000000000E+00 0. -1.
      99926    2    1    2    0    0  0.00000000000E+00  0.00000000000E+00 -0.95930911776E+02  0.46795471999E+03  0.45801624439E+03 0.  0.
      99925    2    3    3    0    0 -0.79514447993E+02 -0.35748865614E+01 -0.14504471891E+03  0.31176572740E+03  0.26424339357E+03 0.  0.
         25    1    4    4    0    0  0.37556354120E+01 -0.24817503839E+01 -0.75506302862E+02  0.14618130439E+03  0.12509000000E+03 0.  0.
         25    1    3    3    0    0  0.79514447993E+02  0.35748865614E+01  0.49113807137E+02  0.15618899259E+03  0.12509000000E+03 0.  0.
         25    1    4    4    0    0 -0.83270083405E+02 -0.10931361776E+01 -0.69538416051E+02  0.16558442301E+03  0.12509000000E+03 0.  0.
<mgrwt>
<rscale>  2 0.45801624E+03</rscale>
<asrwt>0</asrwt>
<pdfrwt beam="1">  1       21 0.27354692E-01 0.45801624E+03</pdfrwt>
<pdfrwt beam="2">  1       21 0.41462178E-01 0.45801624E+03</pdfrwt>
<totfact> 0.65994956E+04</totfact>
</mgrwt>
</event>
<event>
 7    0  0.4748297E-002  0.4602708E+03  0.7546771E-02  0.1024703E+00
         21   -1    0    0  502  501  0.00000000000E+00  0.00000000000E+00  0.13936262221E+03  0.13936262221E+03  0.00000000000E+00 0. -1.
         21   -1    0    0  501  502 -0.00000000000E+00 -0.00000000000E+00 -0.38003237047E+03  0.38003237047E+03  0.00000000000E+00 0. -1.
      99926    2    1    2    0    0  0.00000000000E+00  0.00000000000E+00 -0.24066974827E+03  0.51939499268E+03  0.46027082320E+03 0.  0.
      99925    2    3    3    0    0 -0.25404538039E+02  0.10060297906E+03 -0.21437553067E+03  0.35475828982E+03  0.26292627503E+03 0.  0.
         25    1    4    4    0    0 -0.42324881762E+02  0.22220915343E+02 -0.10761833927E+03  0.17179749632E+03  0.12509000000E+03 0.  0.
         25    1    4    4    0    0  0.16920343723E+02  0.78382063717E+02 -0.10675719139E+03  0.18296079350E+03  0.12509000000E+03 0.  0.
         25    1    3    3    0    0  0.25404538039E+02 -0.10060297906E+03 -0.26294217604E+02  0.16463670286E+03  0.12509000000E+03 0.  0.
<mgrwt>
<rscale>  2 0.46027082E+03</rscale>
<asrwt>0</asrwt>
<pdfrwt beam="1">  1       21 0.20494504E-01 0.46027082E+03</pdfrwt>
<pdfrwt beam="2">  1       21 0.55887112E-01 0.46027082E+03</pdfrwt>
<totfact> 0.61323390E+04</totfact>
</mgrwt>
</event>
<event>
 7    0  0.4748297E-002  0.4390039E+03  0.7546771E-02  0.1031053E+00
         21   -1    0    0  502  501  0.00000000000E+00  0.00000000000E+00  0.19376918020E+03  0.19376918020E+03  0.00000000000E+00 0. -1.
         21   -1    0    0  501  502 -0.00000000000E+00 -0.00000000000E+00 -0.24865208318E+03  0.24865208318E+03  0.00000000000E+00 0. -1.
      99926    2    1    2    0    0  0.00000000000E+00  0.00000000000E+00 -0.54882902979E+02  0.44242126339E+03  0.43900391941E+03 0.  0.
      99925    2    3    3    0    0  0.47305012283E+02 -0.62244983760E+01  0.50448029282E+02  0.27207273255E+03  0.26306284339E+03 0.  0.
         25    1    3    3    0    0 -0.47305012283E+02  0.62244983760E+01 -0.10533093226E+03  0.17034853084E+03  0.12509000000E+03 0.  0.
         25    1    4    4    0    0  0.15538427556E+02 -0.53918161244E+01 -0.15537221332E+02  0.12711973788E+03  0.12509000000E+03 0.  0.
         25    1    4    4    0    0  0.31766584727E+02 -0.83268225160E+00  0.65985250614E+02  0.14495299467E+03  0.12509000000E+03 0.  0.
<mgrwt>
<rscale>  2 0.43900392E+03</rscale>
<asrwt>0</asrwt>
<pdfrwt beam="1">  1       21 0.28495468E-01 0.43900392E+03</pdfrwt>
<pdfrwt beam="2">  1       21 0.36566483E-01 0.43900392E+03</pdfrwt>
<totfact> 0.79100204E+04</totfact>
</mgrwt>
</event>
<event>
 7    0  0.4748297E-002  0.4420882E+03  0.7546771E-02  0.1030108E+00
         21   -1    0    0  502  501  0.00000000000E+00  0.00000000000E+00  0.71490650627E+02  0.71490650627E+02  0.00000000000E+00 0. -1.
         21   -1    0    0  501  502 -0.00000000000E+00 -0.00000000000E+00 -0.68345289373E+03  0.68345289373E+03  0.00000000000E+00 0. -1.
      99926    2    1    2    0    0  0.71054273576E-14  0.00000000000E+00 -0.61196224310E+03  0.75494354435E+03  0.44208819050E+03 0.  0.
      99925    2    3    3    0    0  0.35089093719E+02 -0.84361987024E+02 -0.31858023066E+03  0.42317750831E+03  0.26313048249E+03 0.  0.
         25    1    3    3    0    0 -0.35089093719E+02  0.84361987024E+02 -0.29338201244E+03  0.33176603605E+03  0.12509000000E+03 0.  0.
         25    1    4    4    0    0 -0.77057177076E+01 -0.22844499922E+02 -0.10784665270E+03  0.16691212617E+03  0.12509000000E+03 0.  0.
         25    1    4    4    0    0  0.42794811427E+02 -0.61517487102E+02 -0.21073357796E+03  0.25626538214E+03  0.12509000000E+03 0.  0.
<mgrwt>
<rscale>  2 0.44208819E+03</rscale>
<asrwt>0</asrwt>
<pdfrwt beam="1">  1       21 0.10513331E-01 0.44208819E+03</pdfrwt>
<pdfrwt beam="2">  1       21 0.10050778E+00 0.44208819E+03</pdfrwt>
<totfact> 0.55430290E+04</totfact>
</mgrwt>
</event>
<event>
 7    0  0.4748297E-002  0.4641496E+03  0.7546771E-02  0.1023585E+00
         21   -1    0    0  502  501  0.00000000000E+00  0.00000000000E+00  0.10680419099E+03  0.10680419099E+03  0.00000000000E+00 0. -1.
         21   -1    0    0  501  502 -0.00000000000E+00 -0.00000000000E+00 -0.50427529116E+03  0.50427529116E+03  0.00000000000E+00 0. -1.
      99926    2    1    2    0    0  0.14210854715E-13  0.00000000000E+00 -0.39747110017E+03  0.61107948216E+03  0.46414960739E+03 0.  0.
      99925    2    3    3    0    0 -0.92052769718E+02  0.68221841894E+02 -0.19419180301E+03  0.34631937777E+03  0.26286635946E+03 0.  0.
         25    1    3    3    0    0  0.92052769718E+02 -0.68221841894E+02 -0.20327929716E+03  0.26476010439E+03  0.12509000000E+03 0.  0.
         25    1    4    4    0    0 -0.82368550641E+02  0.55766173767E+02 -0.12173408264E+03  0.20090081943E+03  0.12509000000E+03 0.  0.
         25    1    4    4    0    0 -0.96842190768E+01  0.12455668127E+02 -0.72457720373E+02  0.14541855834E+03  0.12509000000E+03 0.  0.
<mgrwt>
<rscale>  2 0.46414961E+03</rscale>
<asrwt>0</asrwt>
<pdfrwt beam="1">  1       21 0.15706499E-01 0.46414961E+03</pdfrwt>
<pdfrwt beam="2">  1       21 0.74158131E-01 0.46414961E+03</pdfrwt>
<totfact> 0.53992130E+04</totfact>
</mgrwt>
</event>
<event>
 7    0  0.4748297E-002  0.4498388E+03  0.7546771E-02  0.1027770E+00
         21   -1    0    0  502  501  0.00000000000E+00  0.00000000000E+00  0.73276096931E+02  0.73276096931E+02  0.00000000000E+00 0.  1.
         21   -1    0    0  501  502 -0.00000000000E+00 -0.00000000000E+00 -0.69038536914E+03  0.69038536914E+03  0.00000000000E+00 0.  1.
      99926    2    1    2    0    0 -0.71054273576E-14  0.00000000000E+00 -0.61710927221E+03  0.76366146607E+03  0.44983883882E+03 0.  0.
      99925    2    3    3    0    0  0.36372190224E+02 -0.84541176299E+02 -0.29296809095E+03  0.40423809426E+03  0.26288398169E+03 0.  0.
         25    1    4    4    0    0  0.34360266724E+02 -0.79649491787E+02 -0.17852156422E+03  0.23461058472E+03  0.12509000000E+03 0.  0.
         25    1    4    4    0    0  0.20119235001E+01 -0.48916845125E+01 -0.11444652673E+03  0.16962750954E+03  0.12509000000E+03 0.  0.
         25    1    3    3    0    0 -0.36372190224E+02  0.84541176299E+02 -0.32414118126E+03  0.35942337180E+03  0.12509000000E+03 0.  0.
<mgrwt>
<rscale>  2 0.44983884E+03</rscale>
<asrwt>0</asrwt>
<pdfrwt beam="1">  1       21 0.10775896E-01 0.44983884E+03</pdfrwt>
<pdfrwt beam="2">  1       21 0.10152726E+00 0.44983884E+03</pdfrwt>
<totfact> 0.51633015E+04</totfact>
</mgrwt>
</event>
<event>
 7    0  0.4748297E-002  0.4561638E+03  0.7546771E-02  0.1025900E+00
         21   -1    0    0  502  501  0.00000000000E+00  0.00000000000E+00  0.26909940607E+03  0.26909940607E+03  0.00000000000E+00 0.  1.
         21   -1    0    0  501  502 -0.00000000000E+00 -0.00000000000E+00 -0.19331648279E+03  0.19331648279E+03  0.00000000000E+00 0.  1.
      99926    2    1    2    0    0  0.00000000000E+00  0.00000000000E+00  0.75782923284E+02  0.46241588886E+03  0.45616378946E+03 0.  0.
      99925    2    3    3    0    0 -0.16322014403E+02 -0.25250172193E+02  0.15892450572E+03  0.30923622252E+03  0.26356415434E+03 0.  0.
         25    1    3    3    0    0  0.16322014403E+02  0.25250172193E+02 -0.83141582437E+02  0.15317966634E+03  0.12509000000E+03 0.  0.
         25    1    4    4    0    0  0.11935074603E+02  0.79174661540E+01  0.42513291099E+02  0.13289100909E+03  0.12509000000E+03 0.  0.
         25    1    4    4    0    0 -0.28257089006E+02 -0.33167638347E+02  0.11641121462E+03  0.17634521344E+03  0.12509000000E+03 0.  0.
<mgrwt>
<rscale>  2 0.45616379E+03</rscale>
<asrwt>0</asrwt>
<pdfrwt beam="1">  1       21 0.39573442E-01 0.45616379E+03</pdfrwt>
<pdfrwt beam="2">  1       21 0.28428894E-01 0.45616379E+03</pdfrwt>
<totfact> 0.67376842E+04</totfact>
</mgrwt>
</event>
<event>
 7    0  0.4748297E-002  0.4535647E+03  0.7546771E-02  0.1026664E+00
         21   -1    0    0  502  501  0.00000000000E+00  0.00000000000E+00  0.87093455149E+03  0.87093455149E+03  0.00000000000E+00 0.  1.
         21   -1    0    0  501  502 -0.00000000000E+00 -0.00000000000E+00 -0.59051770384E+02  0.59051770384E+02  0.00000000000E+00 0.  1.
      99926    2    1    2    0    0  0.00000000000E+00  0.00000000000E+00  0.81188278111E+03  0.92998632188E+03  0.45356466862E+03 0.  0.
      99925    2    3    3    0    0 -0.10900543581E+03 -0.20934649472E+02  0.48264323785E+03  0.56070779619E+03  0.26292259904E+03 0.  0.
         25    1    3    3    0    0  0.10900543581E+03  0.20934649472E+02  0.32923954326E+03  0.36927852569E+03  0.12509000000E+03 0.  0.
         25    1    4    4    0    0 -0.43640894304E+02 -0.19222660478E+02  0.16052108128E+03  0.20901809483E+03  0.12509000000E+03 0.  0.
         25    1    4    4    0    0 -0.65364541505E+02 -0.17119889944E+01  0.32212215656E+03  0.35168970136E+03  0.12509000000E+03 0.  0.
<mgrwt>
<rscale>  2 0.45356467E+03</rscale>
<asrwt>0</asrwt>
<pdfrwt beam="1">  1       21 0.12807860E+00 0.45356467E+03</pdfrwt>
<pdfrwt beam="2">  1       21 0.86840844E-02 0.45356467E+03</pdfrwt>
<totfact> 0.42436462E+04</totfact>
</mgrwt>
</event>
<event>
 7    0  0.4748297E-002  0.4534671E+03  0.7546771E-02  0.1026693E+00
         21   -1    0    0  502  501  0.00000000000E+00  0.00000000000E+00  0.20093034598E+03  0.20093034598E+03  0.00000000000E+00 0. -1.
         21   -1    0    0  501  502 -0.00000000000E+00 -0.00000000000E+00 -0.25585035918E+03  0.25585035918E+03  0.00000000000E+00 0. -1.
      99926    2    1    2    0    0  0.71054273576E-14 -0.17763568394E-14 -0.54920013205E+02  0.45678070516E+03  0.45346709336E+03 0.  0.
      99925    2    3    3    0    0  0.63212080318E+02 -0.94220522916E+01 -0.12684173472E+03  0.29896820790E+03  0.26307531526E+03 0.  0.
         25    1    4    4    0    0 -0.36828087152E+01 -0.13273167962E+01 -0.35621883089E+02  0.13012206387E+03  0.12509000000E+03 0.  0.
         25    1    3    3    0    0 -0.63212080318E+02  0.94220522916E+01  0.71921721519E+02  0.15781249727E+03  0.12509000000E+03 0.  0.
         25    1    4    4    0    0  0.66894889034E+02 -0.80947354954E+01 -0.91219851634E+02  0.16884614403E+03  0.12509000000E+03 0.  0.
<mgrwt>
<rscale>  2 0.45346709E+03</rscale>
<asrwt>0</asrwt>
<pdfrwt beam="1">  1       21 0.29548580E-01 0.45346709E+03</pdfrwt>
<pdfrwt beam="2">  1       21 0.37625053E-01 0.45346709E+03</pdfrwt>
<totfact> 0.69258580E+04</totfact>
</mgrwt>
</event>
<event>
 7    0  0.4748297E-002  0.4520818E+03  0.7546771E-02  0.1027103E+00
         21   -1    0    0  502  501  0.00000000000E+00  0.00000000000E+00  0.30935159095E+02  0.30935159095E+02  0.00000000000E+00 0.  1.
         21   -1    0    0  501  502 -0.00000000000E+00 -0.00000000000E+00 -0.16516636740E+04  0.16516636740E+04  0.00000000000E+00 0.  1.
      99926    2    1    2    0    0  0.00000000000E+00  0.00000000000E+00 -0.16207285149E+04  0.16825988331E+04  0.45208175601E+03 0.  0.
      99925    2    3    3    0    0  0.17107433761E+02  0.88006256043E+02 -0.12621483270E+04  0.12923873204E+04  0.26307569474E+03 0.  0.
         25    1    4    4    0    0 -0.15958611951E+02  0.75424033734E+02 -0.72399208896E+03  0.73875267522E+03  0.12509000000E+03 0.  0.
         25    1    3    3    0    0 -0.17107433761E+02 -0.88006256043E+02 -0.35858018795E+03  0.39021151275E+03  0.12509000000E+03 0.  0.
         25    1    4    4    0    0  0.33066045712E+02  0.12582222310E+02 -0.53815623803E+03  0.55363464517E+03  0.12509000000E+03 0.  0.
<mgrwt>
<rscale>  2 0.45208176E+03</rscale>
<asrwt>0</asrwt>
<pdfrwt beam="1">  1       21 0.45492883E-02 0.45208176E+03</pdfrwt>
<pdfrwt beam="2">  1       21 0.24289171E+00 0.45208176E+03</pdfrwt>
<totfact> 0.20077151E+04</totfact>
</mgrwt>
</event>
<event>
 7    0  0.4748297E-002  0.4584858E+03  0.7546771E-02  0.1025221E+00
         21   -1    0    0  502  501  0.00000000000E+00  0.00000000000E+00  0.33117756094E+03  0.33117756094E+03  0.00000000000E+00 0. -1.
         21   -1    0    0  501  502 -0.00000000000E+00 -0.00000000000E+00 -0.15868315257E+03  0.15868315257E+03  0.00000000000E+00 0. -1.
      99926    2    1    2    0    0 -0.17763568394E-14  0.71054273576E-14  0.17249440838E+03  0.48986071351E+03  0.45848576610E+03 0.  0.
      99925    2    3    3    0    0  0.13619820396E+02 -0.63760964736E+02  0.21128173228E+03  0.34356332896E+03  0.26295404632E+03 0.  0.
         25    1    4    4    0    0 -0.12954340959E+02 -0.11580575398E+01  0.74772878744E+02  0.14631352481E+03  0.12509000000E+03 0.  0.
         25    1    3    3    0    0 -0.13619820396E+02  0.63760964736E+02 -0.38787323903E+02  0.14629738455E+03  0.12509000000E+03 0.  0.
         25    1    4    4    0    0  0.26574161355E+02 -0.62602907196E+02  0.13650885354E+03  0.19724980415E+03  0.12509000000E+03 0.  0.
<mgrwt>
<rscale>  2 0.45848577E+03</rscale>
<asrwt>0</asrwt>
<pdfrwt beam="1">  1       21 0.48702583E-01 0.45848577E+03</pdfrwt>
<pdfrwt beam="2">  1       21 0.23335758E-01 0.45848577E+03</pdfrwt>
<totfact> 0.64194155E+04</totfact>
</mgrwt>
</event>
<event>
 7    0  0.4748297E-002  0.4145010E+03  0.7546771E-02  0.1038871E+00
         21   -1    0    0  502  501  0.00000000000E+00  0.00000000000E+00  0.33185915793E+03  0.33185915793E+03  0.00000000000E+00 0. -1.
         21   -1    0    0  501  502 -0.00000000000E+00 -0.00000000000E+00 -0.12943073538E+03  0.12943073538E+03  0.00000000000E+00 0. -1.
      99926    2    1    2    0    0  0.00000000000E+00  0.00000000000E+00  0.20242842255E+03  0.46128989332E+03  0.41450102463E+03 0.  0.
      99925    2    3    3    0    0 -0.37446276642E+02  0.57608149812E+02  0.13338997250E+03  0.30275050312E+03  0.26295258093E+03 0.  0.
         25    1    4    4    0    0 -0.11246478869E+02  0.67141815815E+02  0.84407526265E+02  0.16554952524E+03  0.12509000000E+03 0.  0.
         25    1    4    4    0    0 -0.26199797773E+02 -0.95336660029E+01  0.48982446231E+02  0.13720097787E+03  0.12509000000E+03 0.  0.
         25    1    3    3    0    0  0.37446276642E+02 -0.57608149812E+02  0.69038450050E+02  0.15853939020E+03  0.12509000000E+03 0.  0.
<mgrwt>
<rscale>  2 0.41450102E+03</rscale>
<asrwt>0</asrwt>
<pdfrwt beam="1">  1       21 0.48802817E-01 0.41450102E+03</pdfrwt>
<pdfrwt beam="2">  1       21 0.19033932E-01 0.41450102E+03</pdfrwt>
<totfact> 0.95205180E+04</totfact>
</mgrwt>
</event>
<event>
 7    0  0.4748297E-002  0.4529588E+03  0.7546771E-02  0.1026843E+00
         21   -1    0    0  502  501  0.00000000000E+00  0.00000000000E+00  0.26594466308E+03  0.26594466308E+03  0.00000000000E+00 0. -1.
         21   -1    0    0  501  502 -0.00000000000E+00 -0.00000000000E+00 -0.19287060895E+03  0.19287060895E+03  0.00000000000E+00 0. -1.
      99926    2    1    2    0    0  0.00000000000E+00  0.00000000000E+00  0.73074054129E+02  0.45881527203E+03  0.45295875801E+03 0.  0.
      99925    2    3    3    0    0 -0.54842346032E+02  0.67682295308E+02 -0.23941902740E+02  0.27812719826E+03  0.26304552398E+03 0.  0.
         25    1    3    3    0    0  0.54842346032E+02 -0.67682295308E+02  0.97015956868E+02  0.18068807377E+03  0.12509000000E+03 0.  0.
         25    1    4    4    0    0 -0.30116995869E+02  0.72807610430E+02 -0.27932281966E+02  0.15045166019E+03  0.12509000000E+03 0.  0.
         25    1    4    4    0    0 -0.24725350163E+02 -0.51253151222E+01  0.39903792261E+01  0.12767553807E+03  0.12509000000E+03 0.  0.
<mgrwt>
<rscale>  2 0.45295876E+03</rscale>
<asrwt>0</asrwt>
<pdfrwt beam="1">  1       21 0.39109509E-01 0.45295876E+03</pdfrwt>
<pdfrwt beam="2">  1       21 0.28363325E-01 0.45295876E+03</pdfrwt>
<totfact> 0.69389608E+04</totfact>
</mgrwt>
</event>
<event>
 7    0  0.4748297E-002  0.3994406E+03  0.7546771E-02  0.1043974E+00
         21   -1    0    0  502  501  0.00000000000E+00  0.00000000000E+00  0.48508044469E+02  0.48508044469E+02  0.00000000000E+00 0.  1.
         21   -1    0    0  501  502 -0.00000000000E+00 -0.00000000000E+00 -0.82230080778E+03  0.82230080778E+03  0.00000000000E+00 0.  1.
      99926    2    1    2    0    0  0.00000000000E+00 -0.35527136788E-14 -0.77379276331E+03  0.87080885225E+03  0.39944062963E+03 0.  0.
      99925    2    3    3    0    0  0.25291071582E+02 -0.25632207574E+02 -0.57357091984E+03  0.63199314282E+03  0.26293551323E+03 0.  0.
         25    1    3    3    0    0 -0.25291071582E+02  0.25632207574E+02 -0.20022184347E+03  0.23881570943E+03  0.12509000000E+03 0.  0.
         25    1    4    4    0    0 -0.25264987696E+02 -0.26833038140E+02 -0.27530217539E+03  0.30462620933E+03  0.12509000000E+03 0.  0.
         25    1    4    4    0    0  0.50556059278E+02  0.12008305660E+01 -0.29826874445E+03  0.32736693348E+03  0.12509000000E+03 0.  0.
<mgrwt>
<rscale>  2 0.39944063E+03</rscale>
<asrwt>0</asrwt>
<pdfrwt beam="1">  1       21 0.71335353E-02 0.39944063E+03</pdfrwt>
<pdfrwt beam="2">  1       21 0.12092660E+00 0.39944063E+03</pdfrwt>
<totfact> 0.70572891E+04</totfact>
</mgrwt>
</event>
<event>
 7    0  0.4748297E-002  0.4554747E+03  0.7546771E-02  0.1026102E+00
         21   -1    0    0  502  501  0.00000000000E+00  0.00000000000E+00  0.72416715482E+02  0.72416715482E+02  0.00000000000E+00 0. -1.
         21   -1    0    0  501  502 -0.00000000000E+00 -0.00000000000E+00 -0.71619242344E+03  0.71619242344E+03  0.00000000000E+00 0. -1.
      99926    2    1    2    0    0 -0.35527136788E-14  0.14210854715E-13 -0.64377570796E+03  0.78860913892E+03  0.45547471042E+03 0.  0.
      99925    2    3    3    0    0 -0.29366261925E+02  0.88237415781E+02 -0.51797983892E+03  0.58830854569E+03  0.26297454728E+03 0.  0.
         25    1    4    4    0    0 -0.51738708383E+02  0.60935772001E+02 -0.25840502185E+03  0.29801128447E+03  0.12509000000E+03 0.  0.
         25    1    3    3    0    0  0.29366261925E+02 -0.88237415781E+02 -0.12579586904E+03  0.20030059324E+03  0.12509000000E+03 0.  0.
         25    1    4    4    0    0  0.22372446458E+02  0.27301643779E+02 -0.25957481707E+03  0.29029726122E+03  0.12509000000E+03 0.  0.
<mgrwt>
<rscale>  2 0.45547471E+03</rscale>
<asrwt>0</asrwt>
<pdfrwt beam="1">  1       21 0.10649517E-01 0.45547471E+03</pdfrwt>
<pdfrwt beam="2">  1       21 0.10532241E+00 0.45547471E+03</pdfrwt>
<totfact> 0.48141117E+04</totfact>
</mgrwt>
</event>
<event>
 7    0  0.4748297E-002  0.4586193E+03  0.7546771E-02  0.1025182E+00
         21   -1    0    0  502  501  0.00000000000E+00  0.00000000000E+00  0.11326096545E+03  0.11326096545E+03  0.00000000000E+00 0. -1.
         21   -1    0    0  501  502 -0.00000000000E+00 -0.00000000000E+00 -0.46426334171E+03  0.46426334171E+03  0.00000000000E+00 0. -1.
      99926    2    1    2    0    0 -0.35527136788E-14  0.00000000000E+00 -0.35100237626E+03  0.57752430716E+03  0.45861929442E+03 0.  0.
      99925    2    3    3    0    0  0.19172732425E+02 -0.76628184947E+02 -0.11237987906E+03  0.29676163751E+03  0.26305657164E+03 0.  0.
         25    1    3    3    0    0 -0.19172732425E+02  0.76628184947E+02 -0.23862249720E+03  0.28076266964E+03  0.12509000000E+03 0.  0.
         25    1    4    4    0    0  0.49872165911E+02 -0.44705412500E+02 -0.54739227416E+02  0.15208450926E+03  0.12509000000E+03 0.  0.
         25    1    4    4    0    0 -0.30699433486E+02 -0.31922772446E+02 -0.57640651645E+02  0.14467712825E+03  0.12509000000E+03 0.  0.
<mgrwt>
<rscale>  2 0.45861929E+03</rscale>
<asrwt>0</asrwt>
<pdfrwt beam="1">  1       21 0.16656025E-01 0.45861929E+03</pdfrwt>
<pdfrwt beam="2">  1       21 0.68274020E-01 0.45861929E+03</pdfrwt>
<totfact> 0.58394478E+04</totfact>
</mgrwt>
</event>
<event>
 7    0  0.4748297E-002  0.4779214E+03  0.7546771E-02  0.1019708E+00
         21   -1    0    0  502  501  0.00000000000E+00  0.00000000000E+00  0.63843761606E+03  0.63843761606E+03  0.00000000000E+00 0. -1.
         21   -1    0    0  501  502 -0.00000000000E+00 -0.00000000000E+00 -0.89440548382E+02  0.89440548382E+02  0.00000000000E+00 0. -1.
      99926    2    1    2    0    0  0.00000000000E+00  0.00000000000E+00  0.54899706768E+03  0.72787816444E+03  0.47792137633E+03 0.  0.
      99925    2    3    3    0    0  0.47480220902E+02  0.11641863564E+03  0.27006755039E+03  0.39733791907E+03  0.26293206357E+03 0.  0.
         25    1    4    4    0    0  0.49651364763E+02  0.94224838552E+02  0.14725887372E+03  0.22062697526E+03  0.12509000000E+03 0.  0.
         25    1    4    4    0    0 -0.21711438608E+01  0.22193797085E+02  0.12280867667E+03  0.17671094381E+03  0.12509000000E+03 0.  0.
         25    1    3    3    0    0 -0.47480220902E+02 -0.11641863564E+03  0.27892951729E+03  0.33054024538E+03  0.12509000000E+03 0.  0.
<mgrwt>
<rscale>  2 0.47792138E+03</rscale>
<asrwt>0</asrwt>
<pdfrwt beam="1">  1       21 0.93887882E-01 0.47792138E+03</pdfrwt>
<pdfrwt beam="2">  1       21 0.13153022E-01 0.47792138E+03</pdfrwt>
<totfact> 0.43102589E+04</totfact>
</mgrwt>
</event>
<event>
 7    0  0.4748297E-002  0.4565519E+03  0.7546771E-02  0.1025786E+00
         21   -1    0    0  502  501  0.00000000000E+00  0.00000000000E+00  0.34342411875E+03  0.34342411875E+03  0.00000000000E+00 0.  1.
         21   -1    0    0  501  502 -0.00000000000E+00 -0.00000000000E+00 -0.15173630097E+03  0.15173630097E+03  0.00000000000E+00 0.  1.
      99926    2    1    2    0    0  0.00000000000E+00  0.00000000000E+00  0.19168781779E+03  0.49516041972E+03  0.45655188289E+03 0.  0.
      99925    2    3    3    0    0 -0.11978353627E+02  0.57709946636E+02  0.13805415047E+02  0.26985268306E+03  0.26297521209E+03 0.  0.
         25    1    4    4    0    0  0.51302668158E+00  0.18071270849E+02  0.45416413096E+02  0.13430187156E+03  0.12509000000E+03 0.  0.
         25    1    3    3    0    0  0.11978353627E+02 -0.57709946636E+02  0.17788240274E+03  0.22530773666E+03  0.12509000000E+03 0.  0.
         25    1    4    4    0    0 -0.12491380308E+02  0.39638675787E+02 -0.31610998049E+02  0.13555081150E+03  0.12509000000E+03 0.  0.
<mgrwt>
<rscale>  2 0.45655188E+03</rscale>
<asrwt>0</asrwt>
<pdfrwt beam="1">  1       21 0.50503547E-01 0.45655188E+03</pdfrwt>
<pdfrwt beam="2">  1       21 0.22314162E-01 0.45655188E+03</pdfrwt>
<totfact> 0.64809877E+04</totfact>
</mgrwt>
</event>
<event>
 7    0  0.4748297E-002  0.4583762E+03  0.7546771E-02  0.1025253E+00
         21   -1    0    0  502  501  0.00000000000E+00  0.00000000000E+00  0.35763013209E+03  0.35763013209E+03  0.00000000000E+00 0. -1.
         21   -1    0    0  501  502 -0.00000000000E+00 -0.00000000000E+00 -0.14687572161E+03  0.14687572161E+03  0.00000000000E+00 0. -1.
      99926    2    1    2    0    0 -0.14210854715E-13  0.71054273576E-14  0.21075441048E+03  0.50450585370E+03  0.45837619362E+03 0.  0.
      99925    2    3    3    0    0 -0.77880144706E+02  0.33980715335E+02  0.44830915407E+02  0.28001059702E+03  0.26301353104E+03 0.  0.
         25    1    3    3    0    0  0.77880144706E+02 -0.33980715335E+02  0.16592349507E+03  0.22449525668E+03  0.12509000000E+03 0.  0.
         25    1    4    4    0    0 -0.79523855085E+02  0.10062285894E+02  0.32204194757E+02  0.15201944410E+03  0.12509000000E+03 0.  0.
         25    1    4    4    0    0  0.16437103793E+01  0.23918429441E+02  0.12626720650E+02  0.12799115292E+03  0.12509000000E+03 0.  0.
<mgrwt>
<rscale>  2 0.45837619E+03</rscale>
<asrwt>0</asrwt>
<pdfrwt beam="1">  1       21 0.52592666E-01 0.45837619E+03</pdfrwt>
<pdfrwt beam="2">  1       21 0.21599371E-01 0.45837619E+03</pdfrwt>
<totfact> 0.63243320E+04</totfact>
</mgrwt>
</event>
<event>
 7    0  0.4748297E-002  0.4621016E+03  0.7546771E-02  0.1024173E+00
         21   -1    0    0  502  501  0.00000000000E+00  0.00000000000E+00  0.92124435581E+02  0.92124435581E+02  0.00000000000E+00 0.  1.
         21   -1    0    0  501  502 -0.00000000000E+00 -0.00000000000E+00 -0.57948233997E+03  0.57948233997E+03  0.00000000000E+00 0.  1.
      99926    2    1    2    0    0  0.00000000000E+00  0.00000000000E+00 -0.48735790439E+03  0.67160677556E+03  0.46210164899E+03 0.  0.
      99925    2    3    3    0    0 -0.38235636480E+02  0.74130963403E+02 -0.18000973484E+03  0.32945510004E+03  0.26302052139E+03 0.  0.
         25    1    4    4    0    0 -0.35652276830E+02  0.54251210000E+02 -0.54438879978E+02  0.15108070156E+03  0.12509000000E+03 0.  0.
         25    1    3    3    0    0  0.38235636480E+02 -0.74130963403E+02 -0.30734816955E+03  0.34215167552E+03  0.12509000000E+03 0.  0.
         25    1    4    4    0    0 -0.25833596497E+01  0.19879753404E+02 -0.12557085486E+03  0.17837439848E+03  0.12509000000E+03 0.  0.
<mgrwt>
<rscale>  2 0.46210165E+03</rscale>
<asrwt>0</asrwt>
<pdfrwt beam="1">  1       21 0.13547711E-01 0.46210165E+03</pdfrwt>
<pdfrwt beam="2">  1       21 0.85217992E-01 0.46210165E+03</pdfrwt>
<totfact> 0.51526217E+04</totfact>
</mgrwt>
</event>
<event>
 7    0  0.4748297E-002  0.4484335E+03  0.7546771E-02  0.1028190E+00
         21   -1    0    0  502  501  0.00000000000E+00  0.00000000000E+00  0.13560042849E+03  0.13560042849E+03  0.00000000000E+00 0.  1.
         21   -1    0    0  501  502 -0.00000000000E+00 -0.00000000000E+00 -0.37074475474E+03  0.37074475474E+03  0.00000000000E+00 0.  1.
      99926    2    1    2    0    0 -0.17763568394E-14  0.00000000000E+00 -0.23514432625E+03  0.50634518322E+03  0.44843348493E+03 0.  0.
      99925    2    3    3    0    0  0.11518811281E+02 -0.69556773099E+02 -0.57987977583E+02  0.27830416132E+03  0.26290639583E+03 0.  0.
         25    1    4    4    0    0 -0.10151555069E+02 -0.17079736316E+02  0.59159224734E+01  0.12679620539E+03  0.12509000000E+03 0.  0.
         25    1    4    4    0    0  0.21670366350E+02 -0.52477036783E+02 -0.63903900056E+02  0.15150795593E+03  0.12509000000E+03 0.  0.
         25    1    3    3    0    0 -0.11518811281E+02  0.69556773099E+02 -0.17715634867E+03  0.22804102190E+03  0.12509000000E+03 0.  0.
<mgrwt>
<rscale>  2 0.44843348E+03</rscale>
<asrwt>0</asrwt>
<pdfrwt beam="1">  1       21 0.19941240E-01 0.44843348E+03</pdfrwt>
<pdfrwt beam="2">  1       21 0.54521287E-01 0.44843348E+03</pdfrwt>
<totfact> 0.68318655E+04</totfact>
</mgrwt>
</event>
<event>
 7    0  0.4748297E-002  0.4573481E+03  0.7546771E-02  0.1025553E+00
         21   -1    0    0  502  501  0.00000000000E+00  0.00000000000E+00  0.40806441243E+02  0.40806441243E+02  0.00000000000E+00 0. -1.
         21   -1    0    0  501  502 -0.00000000000E+00 -0.00000000000E+00 -0.12814598560E+04  0.12814598560E+04  0.00000000000E+00 0. -1.
      99926    2    1    2    0    0 -0.17763568394E-14  0.35527136788E-14 -0.12406534148E+04  0.13222662973E+04  0.45734807891E+03 0.  0.
      99925    2    3    3    0    0  0.11272142097E+02  0.16762097257E+02 -0.11073958138E+04  0.11383828413E+04  0.26302466735E+03 0.  0.
         25    1    3    3    0    0 -0.11272142097E+02 -0.16762097257E+02 -0.13325760095E+03  0.18388345604E+03  0.12509000000E+03 0.  0.
         25    1    4    4    0    0  0.33964308445E+02 -0.37747291564E+01 -0.44153303671E+03  0.46018121804E+03  0.12509000000E+03 0.  0.
         25    1    4    4    0    0 -0.22692166348E+02  0.20536826414E+02 -0.66586277713E+03  0.67820162321E+03  0.12509000000E+03 0.  0.
<mgrwt>
<rscale>  2 0.45734808E+03</rscale>
<asrwt>0</asrwt>
<pdfrwt beam="1">  1       21 0.60009470E-02 0.45734808E+03</pdfrwt>
<pdfrwt beam="2">  1       21 0.18844999E+00 0.45734808E+03</pdfrwt>
<totfact> 0.27960833E+04</totfact>
</mgrwt>
</event>
<event>
 7    0  0.4748297E-002  0.4545002E+03  0.7546771E-02  0.1026388E+00
         21   -1    0    0  502  501  0.00000000000E+00  0.00000000000E+00  0.33244792307E+03  0.33244792307E+03  0.00000000000E+00 0.  1.
         21   -1    0    0  501  502 -0.00000000000E+00 -0.00000000000E+00 -0.15534046219E+03  0.15534046219E+03  0.00000000000E+00 0.  1.
      99926    2    1    2    0    0  0.14210854715E-13  0.00000000000E+00  0.17710746087E+03  0.48778838526E+03  0.45450022673E+03 0.  0.
      99925    2    3    3    0    0 -0.77145973831E+02 -0.51557367556E+02  0.42953798843E+02  0.28222969154E+03  0.26305685037E+03 0.  0.
         25    1    4    4    0    0  0.15401127638E+01 -0.27459832300E+02  0.71545515657E+01  0.12827747287E+03  0.12509000000E+03 0.  0.
         25    1    4    4    0    0 -0.78686086595E+02 -0.24097535256E+02  0.35799247277E+02  0.15395221867E+03  0.12509000000E+03 0.  0.
         25    1    3    3    0    0  0.77145973831E+02  0.51557367556E+02  0.13415366203E+03  0.20555869372E+03  0.12509000000E+03 0.  0.
<mgrwt>
<rscale>  2 0.45450023E+03</rscale>
<asrwt>0</asrwt>
<pdfrwt beam="1">  1       21 0.48889400E-01 0.45450023E+03</pdfrwt>
<pdfrwt beam="2">  1       21 0.22844186E-01 0.45450023E+03</pdfrwt>
<totfact> 0.66400439E+04</totfact>
</mgrwt>
</event>
<event>
 7    0  0.4748297E-002  0.4543647E+03  0.7546771E-02  0.1026428E+00
         21   -1    0    0  502  501  0.00000000000E+00  0.00000000000E+00  0.11228866506E+04  0.11228866506E+04  0.00000000000E+00 0. -1.
         21   -1    0    0  501  502 -0.00000000000E+00 -0.00000000000E+00 -0.45963520589E+02  0.45963520589E+02  0.00000000000E+00 0. -1.
      99926    2    1    2    0    0  0.00000000000E+00 -0.35527136788E-14  0.10769231300E+04  0.11688501712E+04  0.45436471555E+03 0.  0.
      99925    2    3    3    0    0  0.38812464042E+02  0.31477616600E+02  0.41858345800E+03  0.49687109447E+03  0.26300480127E+03 0.  0.
         25    1    4    4    0    0  0.40467901171E+02  0.18614829712E+02  0.15016689454E+03  0.20045390299E+03  0.12509000000E+03 0.  0.
         25    1    4    4    0    0 -0.16554371291E+01  0.12862786888E+02  0.26841656347E+03  0.29641719148E+03  0.12509000000E+03 0.  0.
         25    1    3    3    0    0 -0.38812464042E+02 -0.31477616600E+02  0.65833967201E+03  0.67197907672E+03  0.12509000000E+03 0.  0.
<mgrwt>
<rscale>  2 0.45436472E+03</rscale>
<asrwt>0</asrwt>
<pdfrwt beam="1">  1       21 0.16513037E+00 0.45436472E+03</pdfrwt>
<pdfrwt beam="2">  1       21 0.67593420E-02 0.45436472E+03</pdfrwt>
<totfact> 0.33323858E+04</totfact>
</mgrwt>
</event>
<event>
 6    0  0.4748297E-002  0.4590088E+03  0.7546771E-02  0.1025069E+00
         21   -1    0    0  502  501  0.00000000000E+00  0.00000000000E+00  0.50503535827E+02  0.50503535827E+02  0.00000000000E+00 0.  1.
         21   -1    0    0  501  502 -0.00000000000E+00 -0.00000000000E+00 -0.10429421628E+04  0.10429421628E+04  0.00000000000E+00 0.  1.
      99926    2    1    2    0    0  0.00000000000E+00  0.00000000000E+00 -0.99243862701E+03  0.10934456987E+04  0.45900878809E+03 0.  0.
         25    1    3    3    0    0 -0.34096514788E+01 -0.98520319069E+02 -0.44752091989E+03  0.47501616902E+03  0.12509000000E+03 0.  0.
         25    1    3    3    0    0 -0.18301165096E+02 -0.32219107853E+01 -0.28488939351E+03  0.31169662813E+03  0.12509000000E+03 0.  0.
         25    1    3    3    0    0  0.21710816575E+02  0.10174222985E+03 -0.26002831361E+03  0.30673290151E+03  0.12509000000E+03 0.  0.
<mgrwt>
<rscale>  2 0.45900879E+03</rscale>
<asrwt>0</asrwt>
<pdfrwt beam="1">  1       21 0.74269910E-02 0.45900879E+03</pdfrwt>
<pdfrwt beam="2">  1       21 0.15337384E+00 0.45900879E+03</pdfrwt>
<totfact> 0.34626673E+04</totfact>
</mgrwt>
</event>
<event>
 7    0  0.4748297E-002  0.4525209E+03  0.7546771E-02  0.1026973E+00
         21   -1    0    0  502  501  0.00000000000E+00  0.00000000000E+00  0.12811143114E+04  0.12811143114E+04  0.00000000000E+00 0. -1.
         21   -1    0    0  501  502 -0.00000000000E+00 -0.00000000000E+00 -0.39960366015E+02  0.39960366015E+02  0.00000000000E+00 0. -1.
      99926    2    1    2    0    0 -0.14210854715E-13 -0.35527136788E-14  0.12411539454E+04  0.13210746774E+04  0.45252092456E+03 0.  0.
      99925    2    3    3    0    0  0.10262285248E+03  0.31709110154E+02  0.70290869502E+03  0.75814273201E+03  0.26298830972E+03 0.  0.
         25    1    3    3    0    0 -0.10262285248E+03 -0.31709110154E+02  0.53824525039E+03  0.56293194543E+03  0.12509000000E+03 0.  0.
         25    1    4    4    0    0  0.43833539995E+02 -0.23416835842E+02  0.35996869599E+03  0.38431067851E+03  0.12509000000E+03 0.  0.
         25    1    4    4    0    0  0.58789312482E+02  0.55125945996E+02  0.34293999903E+03  0.37383205349E+03  0.12509000000E+03 0.  0.
<mgrwt>
<rscale>  2 0.45252092E+03</rscale>
<asrwt>0</asrwt>
<pdfrwt beam="1">  1       21 0.18839914E+00 0.45252092E+03</pdfrwt>
<pdfrwt beam="2">  1       21 0.58765253E-02 0.45252092E+03</pdfrwt>
<totfact> 0.29065020E+04</totfact>
</mgrwt>
</event>
<event>
 7    0  0.4748297E-002  0.4456944E+03  0.7546771E-02  0.1029014E+00
         21   -1    0    0  502  501  0.00000000000E+00  0.00000000000E+00  0.16716084969E+04  0.16716084969E+04  0.00000000000E+00 0. -1.
         21   -1    0    0  501  502 -0.00000000000E+00 -0.00000000000E+00 -0.29708441424E+02  0.29708441424E+02  0.00000000000E+00 0. -1.
      99926    2    1    2    0    0 -0.88817841970E-15 -0.35527136788E-14  0.16419000555E+04  0.17013169384E+04  0.44569443845E+03 0.  0.
      99925    2    3    3    0    0  0.62104849844E+01  0.30880690157E+02  0.66353832324E+03  0.71448798944E+03  0.26309274696E+03 0.  0.
         25    1    3    3    0    0 -0.62104849844E+01 -0.30880690157E+02  0.97836173227E+03  0.98682894892E+03  0.12509000000E+03 0.  0.
         25    1    4    4    0    0 -0.13722489983E+02  0.36840222791E+02  0.25522914940E+03  0.28694064813E+03  0.12509000000E+03 0.  0.
         25    1    4    4    0    0  0.19932974967E+02 -0.59595326338E+01  0.40830917384E+03  0.42754734131E+03  0.12509000000E+03 0.  0.
<mgrwt>
<rscale>  2 0.44569444E+03</rscale>
<asrwt>0</asrwt>
<pdfrwt beam="1">  1       21 0.24582472E+00 0.44569444E+03</pdfrwt>
<pdfrwt beam="2">  1       21 0.43688896E-02 0.44569444E+03</pdfrwt>
<totfact> 0.20689209E+04</totfact>
</mgrwt>
</event>
<event>
 7    0  0.4748297E-002  0.4532491E+03  0.7546771E-02  0.1026758E+00
         21   -1    0    0  502  501  0.00000000000E+00  0.00000000000E+00  0.53328601047E+03  0.53328601047E+03  0.00000000000E+00 0. -1.
         21   -1    0    0  501  502 -0.00000000000E+00 -0.00000000000E+00 -0.96306072995E+02  0.96306072995E+02  0.00000000000E+00 0. -1.
      99926    2    1    2    0    0  0.14210854715E-13  0.00000000000E+00  0.43697993748E+03  0.62959208347E+03  0.45324907701E+03 0.  0.
      99925    2    3    3    0    0 -0.71075028945E+02 -0.32401399517E+02  0.38600485634E+03  0.47355530118E+03  0.26297027156E+03 0.  0.
         25    1    4    4    0    0 -0.58837109868E+02 -0.41840597737E+02  0.24522574645E+03  0.28459728730E+03  0.12509000000E+03 0.  0.
         25    1    3    3    0    0  0.71075028945E+02  0.32401399517E+02  0.50975081131E+02  0.15603678229E+03  0.12509000000E+03 0.  0.
         25    1    4    4    0    0 -0.12237919077E+02  0.94391982199E+01  0.14077910989E+03  0.18895801388E+03  0.12509000000E+03 0.  0.
<mgrwt>
<rscale>  2 0.45324908E+03</rscale>
<asrwt>0</asrwt>
<pdfrwt beam="1">  1       21 0.78424412E-01 0.45324908E+03</pdfrwt>
<pdfrwt beam="2">  1       21 0.14162658E-01 0.45324908E+03</pdfrwt>
<totfact> 0.57685990E+04</totfact>
</mgrwt>
</event>
<event>
 7    0  0.4748297E-002  0.4541823E+03  0.7546771E-02  0.1026482E+00
         21   -1    0    0  502  501  0.00000000000E+00  0.00000000000E+00  0.20897346232E+03  0.20897346232E+03  0.00000000000E+00 0.  1.
         21   -1    0    0  501  502 -0.00000000000E+00 -0.00000000000E+00 -0.24677966277E+03  0.24677966277E+03  0.00000000000E+00 0.  1.
      99926    2    1    2    0    0  0.00000000000E+00  0.00000000000E+00 -0.37806200454E+02  0.45575312509E+03  0.45418234470E+03 0.  0.
      99925    2    3    3    0    0 -0.64285204131E+02 -0.91309203357E+02 -0.13600423342E+02  0.28633238895E+03  0.26330838832E+03 0.  0.
         25    1    4    4    0    0 -0.66842180603E+02 -0.36921210481E+02 -0.27800725578E+02  0.14916917019E+03  0.12509000000E+03 0.  0.
         25    1    4    4    0    0  0.25569764727E+01 -0.54387992876E+02  0.14200302236E+02  0.13716321876E+03  0.12509000000E+03 0.  0.
         25    1    3    3    0    0  0.64285204131E+02  0.91309203357E+02 -0.24205777112E+02  0.16942073614E+03  0.12509000000E+03 0.  0.
<mgrwt>
<rscale>  2 0.45418234E+03</rscale>
<asrwt>0</asrwt>
<pdfrwt beam="1">  1       21 0.30731392E-01 0.45418234E+03</pdfrwt>
<pdfrwt beam="2">  1       21 0.36291127E-01 0.45418234E+03</pdfrwt>
<totfact> 0.68939334E+04</totfact>
</mgrwt>
</event>
<event>
 7    0  0.4748297E-002  0.4623571E+03  0.7546771E-02  0.1024100E+00
         21   -1    0    0  502  501  0.00000000000E+00  0.00000000000E+00  0.43793140637E+03  0.43793140637E+03  0.00000000000E+00 0. -1.
         21   -1    0    0  501  502 -0.00000000000E+00 -0.00000000000E+00 -0.12203626060E+03  0.12203626060E+03  0.00000000000E+00 0. -1.
      99926    2    1    2    0    0  0.00000000000E+00  0.00000000000E+00  0.31589514577E+03  0.55996766697E+03  0.46235705352E+03 0.  0.
      99925    2    3    3    0    0 -0.98227119593E+02 -0.65529571803E+02  0.22310551083E+03  0.36451916671E+03  0.26297426135E+03 0.  0.
         25    1    4    4    0    0 -0.90979862908E+02 -0.27413315906E+02  0.11470106450E+03  0.19450621492E+03  0.12509000000E+03 0.  0.
         25    1    3    3    0    0  0.98227119593E+02  0.65529571803E+02  0.92789634932E+02  0.19544850026E+03  0.12509000000E+03 0.  0.
         25    1    4    4    0    0 -0.72472566845E+01 -0.38116255897E+02  0.10840444633E+03  0.17001295179E+03  0.12509000000E+03 0.  0.
<mgrwt>
<rscale>  2 0.46235705E+03</rscale>
<asrwt>0</asrwt>
<pdfrwt beam="1">  1       21 0.64401677E-01 0.46235705E+03</pdfrwt>
<pdfrwt beam="2">  1       21 0.17946509E-01 0.46235705E+03</pdfrwt>
<totfact> 0.57776214E+04</totfact>
</mgrwt>
</event>
<event>
 7    0  0.4748297E-002  0.4556654E+03  0.7546771E-02  0.1026046E+00
         21   -1    0    0  502  501  0.00000000000E+00  0.00000000000E+00  0.13594630634E+03  0.13594630634E+03  0.00000000000E+00 0. -1.
         21   -1    0    0  501  502 -0.00000000000E+00 -0.00000000000E+00 -0.38182522301E+03  0.38182522301E+03  0.00000000000E+00 0. -1.
      99926    2    1    2    0    0 -0.71054273576E-14  0.00000000000E+00 -0.24587891667E+03  0.51777152935E+03  0.45566535412E+03 0.  0.
      99925    2    3    3    0    0  0.43253372674E+02  0.18417127926E+02 -0.36819760811E+02  0.26965203476E+03  0.26295718324E+03 0.  0.
         25    1    3    3    0    0 -0.43253372674E+02 -0.18417127926E+02 -0.20905915586E+03  0.24811949459E+03  0.12509000000E+03 0.  0.
         25    1    4    4    0    0 -0.18392353551E+02  0.12221030732E+02 -0.25860591560E+02  0.12962989839E+03  0.12509000000E+03 0.  0.
         25    1    4    4    0    0  0.61645726226E+02  0.61960971937E+01 -0.10959169251E+02  0.14002213637E+03  0.12509000000E+03 0.  0.
<mgrwt>
<rscale>  2 0.45566535E+03</rscale>
<asrwt>0</asrwt>
<pdfrwt beam="1">  1       21 0.19992104E-01 0.45566535E+03</pdfrwt>
<pdfrwt beam="2">  1       21 0.56150767E-01 0.45566535E+03</pdfrwt>
<totfact> 0.63702392E+04</totfact>
</mgrwt>
</event>
<event>
 7    0  0.4748297E-002  0.4563240E+03  0.7546771E-02  0.1025853E+00
         21   -1    0    0  502  501  0.00000000000E+00  0.00000000000E+00  0.73720518487E+03  0.73720518487E+03  0.00000000000E+00 0.  1.
         21   -1    0    0  501  502 -0.00000000000E+00 -0.00000000000E+00 -0.70615201891E+02  0.70615201891E+02  0.00000000000E+00 0.  1.
      99926    2    1    2    0    0  0.00000000000E+00  0.00000000000E+00  0.66658998298E+03  0.80782038676E+03  0.45632397686E+03 0.  0.
      99925    2    3    3    0    0  0.68175055086E+02  0.84938690497E+02  0.48101865195E+03  0.55892955471E+03  0.26298457050E+03 0.  0.
         25    1    4    4    0    0  0.38449381476E+01  0.42312203702E+02  0.28307283962E+03  0.31238253274E+03  0.12509000000E+03 0.  0.
         25    1    4    4    0    0  0.64330116939E+02  0.42626486795E+02  0.19794581233E+03  0.24654702197E+03  0.12509000000E+03 0.  0.
         25    1    3    3    0    0 -0.68175055086E+02 -0.84938690497E+02  0.18557133102E+03  0.24889083205E+03  0.12509000000E+03 0.  0.
<mgrwt>
<rscale>  2 0.45632398E+03</rscale>
<asrwt>0</asrwt>
<pdfrwt beam="1">  1       21 0.10841252E+00 0.45632398E+03</pdfrwt>
<pdfrwt beam="2">  1       21 0.10384589E-01 0.45632398E+03</pdfrwt>
<totfact> 0.46899695E+04</totfact>
</mgrwt>
</event>
<event>
 7    0  0.4748297E-002  0.4535752E+03  0.7546771E-02  0.1026661E+00
         21   -1    0    0  502  501  0.00000000000E+00  0.00000000000E+00  0.39947508235E+02  0.39947508235E+02  0.00000000000E+00 0. -1.
         21   -1    0    0  501  502 -0.00000000000E+00 -0.00000000000E+00 -0.12875047175E+04  0.12875047175E+04  0.00000000000E+00 0. -1.
      99926    2    1    2    0    0  0.00000000000E+00  0.00000000000E+00 -0.12475572092E+04  0.13274522257E+04  0.45357515498E+03 0.  0.
      99925    2    3    3    0    0  0.24169393653E+02  0.10720869271E+03 -0.84737459298E+03  0.89401076733E+03  0.26293285816E+03 0.  0.
         25    1    4    4    0    0 -0.14072491560E+02  0.39999492712E+02 -0.49173055626E+03  0.50916052724E+03  0.12509000000E+03 0.  0.
         25    1    3    3    0    0 -0.24169393653E+02 -0.10720869271E+03 -0.40018261626E+03  0.43344145837E+03  0.12509000000E+03 0.  0.
         25    1    4    4    0    0  0.38241885213E+02  0.67209199996E+02 -0.35564403671E+03  0.38485024009E+03  0.12509000000E+03 0.  0.
<mgrwt>
<rscale>  2 0.45357515E+03</rscale>
<asrwt>0</asrwt>
<pdfrwt beam="1">  1       21 0.58746351E-02 0.45357515E+03</pdfrwt>
<pdfrwt beam="2">  1       21 0.18933888E+00 0.45357515E+03</pdfrwt>
<totfact> 0.28643813E+04</totfact>
</mgrwt>
</event>
<event>
 7    0  0.4748297E-002  0.4564715E+03  0.7546771E-02  0.1025810E+00
         21   -1    0    0  502  501  0.00000000000E+00  0.00000000000E+00  0.18940365696E+03  0.18940365696E+03  0.00000000000E+00 0.  1.
         21   -1    0    0  501  502 -0.00000000000E+00 -0.00000000000E+00 -0.27502937238E+03  0.27502937238E+03  0.00000000000E+00 0.  1.
      99926    2    1    2    0    0  0.00000000000E+00  0.00000000000E+00 -0.85625715416E+02  0.46443302934E+03  0.45647154961E+03 0.  0.
      99925    2    3    3    0    0 -0.57622077233E+02 -0.97556477122E+02 -0.37104882807E+02  0.28882167062E+03  0.26306579991E+03 0.  0.
         25    1    4    4    0    0 -0.69966325659E+02 -0.58078445284E+02 -0.17974165798E+02  0.15568869988E+03  0.12509000000E+03 0.  0.
         25    1    3    3    0    0  0.57622077233E+02  0.97556477122E+02 -0.48520832609E+02  0.17561135872E+03  0.12509000000E+03 0.  0.
         25    1    4    4    0    0  0.12344248426E+02 -0.39478031838E+02 -0.19130717009E+02  0.13313297075E+03  0.12509000000E+03 0.  0.
<mgrwt>
<rscale>  2 0.45647155E+03</rscale>
<asrwt>0</asrwt>
<pdfrwt beam="1">  1       21 0.27853479E-01 0.45647155E+03</pdfrwt>
<pdfrwt beam="2">  1       21 0.40445496E-01 0.45647155E+03</pdfrwt>
<totfact> 0.67064326E+04</totfact>
</mgrwt>
</event>
<event>
 7    0  0.4748297E-002  0.4473152E+03  0.7546771E-02  0.1028526E+00
         21   -1    0    0  502  501  0.00000000000E+00  0.00000000000E+00  0.23522969378E+03  0.23522969378E+03  0.00000000000E+00 0. -1.
         21   -1    0    0  501  502 -0.00000000000E+00 -0.00000000000E+00 -0.21265482224E+03  0.21265482224E+03  0.00000000000E+00 0. -1.
      99926    2    1    2    0    0  0.35527136788E-14 -0.71054273576E-14  0.22574871538E+02  0.44788451602E+03  0.44731522986E+03 0.  0.
      99925    2    3    3    0    0  0.26899809696E+02 -0.58430142310E+02 -0.69776268583E+02  0.27961710243E+03  0.26301960958E+03 0.  0.
         25    1    4    4    0    0 -0.15229921184E+02 -0.34305731946E+01 -0.17033991117E+02  0.12720607016E+03  0.12509000000E+03 0.  0.
         25    1    3    3    0    0 -0.26899809696E+02  0.58430142310E+02  0.92351140121E+02  0.16826741358E+03  0.12509000000E+03 0.  0.
         25    1    4    4    0    0  0.42129730879E+02 -0.54999569115E+02 -0.52742277466E+02  0.15241103227E+03  0.12509000000E+03 0.  0.
<mgrwt>
<rscale>  2 0.44731523E+03</rscale>
<asrwt>0</asrwt>
<pdfrwt beam="1">  1       21 0.34592602E-01 0.44731523E+03</pdfrwt>
<pdfrwt beam="2">  1       21 0.31272768E-01 0.44731523E+03</pdfrwt>
<totfact> 0.73473024E+04</totfact>
</mgrwt>
</event>
<event>
 7    0  0.4748297E-002  0.4513984E+03  0.7546771E-02  0.1027306E+00
         21   -1    0    0  502  501  0.00000000000E+00  0.00000000000E+00  0.10429260317E+03  0.10429260317E+03  0.00000000000E+00 0. -1.
         21   -1    0    0  501  502 -0.00000000000E+00 -0.00000000000E+00 -0.48843478093E+03  0.48843478093E+03  0.00000000000E+00 0. -1.
      99926    2    1    2    0    0 -0.71054273576E-14  0.00000000000E+00 -0.38414217776E+03  0.59272738410E+03  0.45139842615E+03 0.  0.
      99925    2    3    3    0    0  0.56310286544E+02  0.93749422033E+02 -0.25397765856E+03  0.38165840803E+03  0.26305643286E+03 0.  0.
         25    1    3    3    0    0 -0.56310286544E+02 -0.93749422033E+02 -0.13016451920E+03  0.21106897608E+03  0.12509000000E+03 0.  0.
         25    1    4    4    0    0  0.44205291699E+02  0.74073332045E+02 -0.99862578856E+02  0.18182686570E+03  0.12509000000E+03 0.  0.
         25    1    4    4    0    0  0.12104994844E+02  0.19676089987E+02 -0.15411507970E+03  0.19983154233E+03  0.12509000000E+03 0.  0.
<mgrwt>
<rscale>  2 0.45139843E+03</rscale>
<asrwt>0</asrwt>
<pdfrwt beam="1">  1       21 0.15337148E-01 0.45139843E+03</pdfrwt>
<pdfrwt beam="2">  1       21 0.71828643E-01 0.45139843E+03</pdfrwt>
<totfact> 0.60841457E+04</totfact>
</mgrwt>
</event>
<event>
 7    0  0.4748297E-002  0.4467441E+03  0.7546771E-02  0.1028697E+00
         21   -1    0    0  502  501  0.00000000000E+00  0.00000000000E+00  0.33160888481E+03  0.33160888481E+03  0.00000000000E+00 0.  1.
         21   -1    0    0  501  502 -0.00000000000E+00 -0.00000000000E+00 -0.15046363052E+03  0.15046363052E+03  0.00000000000E+00 0.  1.
      99926    2    1    2    0    0  0.00000000000E+00  0.00000000000E+00  0.18114525429E+03  0.48207251533E+03  0.44674411790E+03 0.  0.
      99925    2    3    3    0    0  0.81294337687E+02 -0.26376699612E+02  0.48670219661E+02  0.28082231651E+03  0.26303589783E+03 0.  0.
         25    1    4    4    0    0  0.76067568620E+02 -0.36026642989E+02  0.32272998785E+02  0.15418575988E+03  0.12509000000E+03 0.  0.
         25    1    4    4    0    0  0.52267690674E+01  0.96499433769E+01  0.16397220877E+02  0.12663655663E+03  0.12509000000E+03 0.  0.
         25    1    3    3    0    0 -0.81294337687E+02  0.26376699612E+02  0.13247503463E+03  0.20125019882E+03  0.12509000000E+03 0.  0.
<mgrwt>
<rscale>  2 0.44674412E+03</rscale>
<asrwt>0</asrwt>
<pdfrwt beam="1">  1       21 0.48766013E-01 0.44674412E+03</pdfrwt>
<pdfrwt beam="2">  1       21 0.22127004E-01 0.44674412E+03</pdfrwt>
<totfact> 0.71096124E+04</totfact>
</mgrwt>
</event>
<event>
 7    0  0.4748297E-002  0.4495965E+03  0.7546771E-02  0.1027842E+00
         21   -1    0    0  502  501  0.00000000000E+00  0.00000000000E+00  0.53080042656E+02  0.53080042656E+02  0.00000000000E+00 0. -1.
         21   -1    0    0  501  502 -0.00000000000E+00 -0.00000000000E+00 -0.95203863314E+03  0.95203863314E+03  0.00000000000E+00 0. -1.
      99926    2    1    2    0    0  0.00000000000E+00 -0.71054273576E-14 -0.89895859048E+03  0.10051186758E+04  0.44959649134E+03 0.  0.
      99925    2    3    3    0    0 -0.92034684756E+02  0.56373735075E+02 -0.55895122503E+03  0.62709632478E+03  0.26301130657E+03 0.  0.
         25    1    4    4    0    0 -0.40355938248E+02 -0.21740084783E+00 -0.32960170641E+03  0.35484284124E+03  0.12509000000E+03 0.  0.
         25    1    4    4    0    0 -0.51678746508E+02  0.56591135923E+02 -0.22934951863E+03  0.27225348354E+03  0.12509000000E+03 0.  0.
         25    1    3    3    0    0  0.92034684756E+02 -0.56373735075E+02 -0.34000736545E+03  0.37802235101E+03  0.12509000000E+03 0.  0.
<mgrwt>
<rscale>  2 0.44959649E+03</rscale>
<asrwt>0</asrwt>
<pdfrwt beam="1">  1       21 0.78058890E-02 0.44959649E+03</pdfrwt>
<pdfrwt beam="2">  1       21 0.14000567E+00 0.44959649E+03</pdfrwt>
<totfact> 0.40656991E+04</totfact>
</mgrwt>
</event>
<event>
 7    0  0.4748297E-002  0.4633552E+03  0.7546771E-02  0.1023813E+00
         21   -1    0    0  502  501  0.00000000000E+00  0.00000000000E+00  0.15237706463E+03  0.15237706463E+03  0.00000000000E+00 0.  1.
         21   -1    0    0  501  502 -0.00000000000E+00 -0.00000000000E+00 -0.35224802082E+03  0.35224802082E+03  0.00000000000E+00 0.  1.
      99926    2    1    2    0    0  0.00000000000E+00 -0.71054273576E-14 -0.19987095619E+03  0.50462508544E+03  0.46335523924E+03 0.  0.
      99925    2    3    3    0    0 -0.82940518632E+02  0.51625119541E+02 -0.47772762823E+02  0.28479412511E+03  0.26321317260E+03 0.  0.
         25    1    3    3    0    0  0.82940518632E+02 -0.51625119541E+02 -0.15209819336E+03  0.21983096034E+03  0.12509000000E+03 0.  0.
         25    1    4    4    0    0 -0.50905174357E+02 -0.12109215872E+02 -0.36133823328E+02  0.14032509103E+03  0.12509000000E+03 0.  0.
         25    1    4    4    0    0 -0.32035344275E+02  0.63734335413E+02 -0.11638939495E+02  0.14446903407E+03  0.12509000000E+03 0.  0.
<mgrwt>
<rscale>  2 0.46335524E+03</rscale>
<asrwt>0</asrwt>
<pdfrwt beam="1">  1       21 0.22408392E-01 0.46335524E+03</pdfrwt>
<pdfrwt beam="2">  1       21 0.51801180E-01 0.46335524E+03</pdfrwt>
<totfact> 0.60812412E+04</totfact>
</mgrwt>
</event>
<event>
 7    0  0.4748297E-002  0.4179004E+03  0.7546771E-02  0.1037752E+00
         21   -1    0    0  502  501  0.00000000000E+00  0.00000000000E+00  0.41560364035E+02  0.41560364035E+02  0.00000000000E+00 0. -1.
         21   -1    0    0  501  502 -0.00000000000E+00 -0.00000000000E+00 -0.10505247989E+04  0.10505247989E+04  0.00000000000E+00 0. -1.
      99926    2    1    2    0    0 -0.71054273576E-14 -0.71054273576E-14 -0.10089644348E+04  0.10920851629E+04  0.41790043344E+03 0.  0.
      99925    2    3    3    0    0 -0.34912111700E+02 -0.36054490602E+02 -0.79677548633E+03  0.84070807603E+03  0.26347696608E+03 0.  0.
         25    1    4    4    0    0 -0.25290975725E+02 -0.45889606182E+02 -0.50618646662E+03  0.52403982339E+03  0.12509000000E+03 0.  0.
         25    1    4    4    0    0 -0.96211359759E+01  0.98351155804E+01 -0.29058901971E+03  0.31666825264E+03  0.12509000000E+03 0.  0.
         25    1    3    3    0    0  0.34912111700E+02  0.36054490602E+02 -0.21218894849E+03  0.25137708686E+03  0.12509000000E+03 0.  0.
<mgrwt>
<rscale>  2 0.41790043E+03</rscale>
<asrwt>0</asrwt>
<pdfrwt beam="1">  1       21 0.61118180E-02 0.41790043E+03</pdfrwt>
<pdfrwt beam="2">  1       21 0.15448895E+00 0.41790043E+03</pdfrwt>
<totfact> 0.48309500E+04</totfact>
</mgrwt>
</event>
<event>
 7    0  0.4748297E-002  0.4557342E+03  0.7546771E-02  0.1026026E+00
         21   -1    0    0  502  501  0.00000000000E+00  0.00000000000E+00  0.24837059667E+03  0.24837059667E+03  0.00000000000E+00 0. -1.
         21   -1    0    0  501  502 -0.00000000000E+00 -0.00000000000E+00 -0.20905622573E+03  0.20905622573E+03  0.00000000000E+00 0. -1.
      99926    2    1    2    0    0 -0.14210854715E-13  0.14210854715E-13  0.39314370949E+02  0.45742682240E+03  0.45573421869E+03 0.  0.
      99925    2    3    3    0    0  0.73419257895E+02 -0.86279975445E+02  0.13434049963E+02  0.28668748684E+03  0.26301068385E+03 0.  0.
         25    1    4    4    0    0  0.50370624284E+02 -0.40453459244E+02  0.45089537950E+02  0.14783185275E+03  0.12509000000E+03 0.  0.
         25    1    4    4    0    0  0.23048633611E+02 -0.45826516202E+02 -0.31655487987E+02  0.13885563409E+03  0.12509000000E+03 0.  0.
         25    1    3    3    0    0 -0.73419257895E+02  0.86279975445E+02  0.25880320986E+02  0.17073933556E+03  0.12509000000E+03 0.  0.
<mgrwt>
<rscale>  2 0.45573422E+03</rscale>
<asrwt>0</asrwt>
<pdfrwt beam="1">  1       21 0.36525088E-01 0.45573422E+03</pdfrwt>
<pdfrwt beam="2">  1       21 0.30743563E-01 0.45573422E+03</pdfrwt>
<totfact> 0.67969351E+04</totfact>
</mgrwt>
</event>
<event>
 7    0  0.4748297E-002  0.4554059E+03  0.7546771E-02  0.1026122E+00
         21   -1    0    0  502  501  0.00000000000E+00  0.00000000000E+00  0.15282705041E+03  0.15282705041E+03  0.00000000000E+00 0.  1.
         21   -1    0    0  501  502 -0.00000000000E+00 -0.00000000000E+00 -0.33926349043E+03  0.33926349043E+03  0.00000000000E+00 0.  1.
      99926    2    1    2    0    0  0.00000000000E+00  0.00000000000E+00 -0.18643644002E+03  0.49209054085E+03  0.45540592247E+03 0.  0.
      99925    2    3    3    0    0  0.19908889532E+02 -0.10037891549E+03 -0.17042422702E+03  0.32968306066E+03  0.26300991002E+03 0.  0.
         25    1    4    4    0    0 -0.89856560263E+01 -0.47774079755E+02 -0.41989284678E+02  0.14061903441E+03  0.12509000000E+03 0.  0.
         25    1    4    4    0    0  0.28894545558E+02 -0.52604835733E+02 -0.12843494234E+03  0.18906402625E+03  0.12509000000E+03 0.  0.
         25    1    3    3    0    0 -0.19908889532E+02  0.10037891549E+03 -0.16012213000E+02  0.16240748019E+03  0.12509000000E+03 0.  0.
<mgrwt>
<rscale>  2 0.45540592E+03</rscale>
<asrwt>0</asrwt>
<pdfrwt beam="1">  1       21 0.22474566E-01 0.45540592E+03</pdfrwt>
<pdfrwt beam="2">  1       21 0.49891689E-01 0.45540592E+03</pdfrwt>
<totfact> 0.65618261E+04</totfact>
</mgrwt>
</event>
<event>
 7    0  0.4748297E-002  0.4609526E+03  0.7546771E-02  0.1024505E+00
         21   -1    0    0  502  501  0.00000000000E+00  0.00000000000E+00  0.24064004279E+02  0.24064004279E+02  0.00000000000E+00 0. -1.
         21   -1    0    0  501  502 -0.00000000000E+00 -0.00000000000E+00 -0.22074187302E+04  0.22074187302E+04  0.00000000000E+00 0. -1.
      99926    2    1    2    0    0  0.35527136788E-14  0.71054273576E-14 -0.21833547259E+04  0.22314827344E+04  0.46095263864E+03 0.  0.
      99925    2    3    3    0    0 -0.31949990463E+02 -0.56702436459E+02 -0.88518797933E+03  0.92568015436E+03  0.26284980737E+03 0.  0.
         25    1    3    3    0    0  0.31949990463E+02  0.56702436459E+02 -0.12981667466E+04  0.13058025801E+04  0.12509000000E+03 0.  0.
         25    1    4    4    0    0  0.23278889712E+02 -0.32700134540E+02 -0.40003480927E+03  0.42105410843E+03  0.12509000000E+03 0.  0.
         25    1    4    4    0    0 -0.55228880175E+02 -0.24002301919E+02 -0.48515317006E+03  0.50462604592E+03  0.12509000000E+03 0.  0.
<mgrwt>
<rscale>  2 0.46095264E+03</rscale>
<asrwt>0</asrwt>
<pdfrwt beam="1">  1       21 0.35388241E-02 0.46095264E+03</pdfrwt>
<pdfrwt beam="2">  1       21 0.32462041E+00 0.46095264E+03</pdfrwt>
<totfact> 0.98231581E+03</totfact>
</mgrwt>
</event>
<event>
 7    0  0.4748297E-002  0.4569873E+03  0.7546771E-02  0.1025659E+00
         21   -1    0    0  502  501  0.00000000000E+00  0.00000000000E+00  0.34012986984E+03  0.34012986984E+03  0.00000000000E+00 0.  1.
         21   -1    0    0  501  502 -0.00000000000E+00 -0.00000000000E+00 -0.15349825641E+03  0.15349825641E+03  0.00000000000E+00 0.  1.
      99926    2    1    2    0    0  0.00000000000E+00 -0.35527136788E-14  0.18663161343E+03  0.49362812624E+03  0.45698727322E+03 0.  0.
      99925    2    3    3    0    0  0.10644310032E+03  0.25044756113E+02  0.15604701359E+03  0.32468938214E+03  0.26289760556E+03 0.  0.
         25    1    4    4    0    0  0.53506104645E+02  0.52656300191E+02  0.73397534527E+02  0.16331042636E+03  0.12509000000E+03 0.  0.
         25    1    3    3    0    0 -0.10644310032E+03 -0.25044756113E+02  0.30584599835E+02  0.16893874411E+03  0.12509000000E+03 0.  0.
         25    1    4    4    0    0  0.52936995672E+02 -0.27611544078E+02  0.82649479065E+02  0.16137895577E+03  0.12509000000E+03 0.  0.
<mgrwt>
<rscale>  2 0.45698727E+03</rscale>
<asrwt>0</asrwt>
<pdfrwt beam="1">  1       21 0.50019099E-01 0.45698727E+03</pdfrwt>
<pdfrwt beam="2">  1       21 0.22573273E-01 0.45698727E+03</pdfrwt>
<totfact> 0.64693988E+04</totfact>
</mgrwt>
</event>
<event>
 7    0  0.4748297E-002  0.4545099E+03  0.7546771E-02  0.1026386E+00
         21   -1    0    0  502  501  0.00000000000E+00  0.00000000000E+00  0.79550183219E+02  0.79550183219E+02  0.00000000000E+00 0. -1.
         21   -1    0    0  501  502 -0.00000000000E+00 -0.00000000000E+00 -0.64921042393E+03  0.64921042393E+03  0.00000000000E+00 0. -1.
      99926    2    1    2    0    0 -0.14210854715E-13  0.00000000000E+00 -0.56966024071E+03  0.72876060715E+03  0.45450988183E+03 0.  0.
      99925    2    3    3    0    0  0.91842723915E+02 -0.65087414353E+02 -0.34987826316E+03  0.45195185874E+03  0.26300993544E+03 0.  0.
         25    1    3    3    0    0 -0.91842723915E+02  0.65087414353E+02 -0.21978197755E+03  0.27680874841E+03  0.12509000000E+03 0.  0.
         25    1    4    4    0    0  0.51844296852E+02 -0.13071314728E+02 -0.22743540441E+03  0.26501521025E+03  0.12509000000E+03 0.  0.
         25    1    4    4    0    0  0.39998427063E+02 -0.52016099625E+02 -0.12244285875E+03  0.18693664849E+03  0.12509000000E+03 0.  0.
<mgrwt>
<rscale>  2 0.45450988E+03</rscale>
<asrwt>0</asrwt>
<pdfrwt beam="1">  1       21 0.11698556E-01 0.45450988E+03</pdfrwt>
<pdfrwt beam="2">  1       21 0.95472125E-01 0.45450988E+03</pdfrwt>
<totfact> 0.51567606E+04</totfact>
</mgrwt>
</event>
<event>
 7    0  0.4748297E-002  0.4568902E+03  0.7546771E-02  0.1025687E+00
         21   -1    0    0  502  501  0.00000000000E+00  0.00000000000E+00  0.25860287461E+03  0.25860287461E+03  0.00000000000E+00 0.  1.
         21   -1    0    0  501  502 -0.00000000000E+00 -0.00000000000E+00 -0.20180425321E+03  0.20180425321E+03  0.00000000000E+00 0.  1.
      99926    2    1    2    0    0  0.00000000000E+00  0.00000000000E+00  0.56798621392E+02  0.46040712782E+03  0.45689018369E+03 0.  0.
      99925    2    3    3    0    0  0.50060503351E+02 -0.74125714425E+02 -0.36943774599E+02  0.28030765408E+03  0.26307197289E+03 0.  0.
         25    1    3    3    0    0 -0.50060503351E+02  0.74125714425E+02  0.93742395991E+02  0.18009947374E+03  0.12509000000E+03 0.  0.
         25    1    4    4    0    0  0.28629007704E+02 -0.51959686133E+02 -0.57377146264E+02  0.14986351817E+03  0.12509000000E+03 0.  0.
         25    1    4    4    0    0  0.21431495647E+02 -0.22166028292E+02  0.20433371665E+02  0.13044413591E+03  0.12509000000E+03 0.  0.
<mgrwt>
<rscale>  2 0.45689018E+03</rscale>
<asrwt>0</asrwt>
<pdfrwt beam="1">  1       21 0.38029834E-01 0.45689018E+03</pdfrwt>
<pdfrwt beam="2">  1       21 0.29677096E-01 0.45689018E+03</pdfrwt>
<totfact> 0.67133184E+04</totfact>
</mgrwt>
</event>
<event>
 7    0  0.4748297E-002  0.4383886E+03  0.7546771E-02  0.1031242E+00
         21   -1    0    0  502  501  0.00000000000E+00  0.00000000000E+00  0.10559838119E+03  0.10559838119E+03  0.00000000000E+00 0. -1.
         21   -1    0    0  501  502 -0.00000000000E+00 -0.00000000000E+00 -0.45498937713E+03  0.45498937713E+03  0.00000000000E+00 0. -1.
      99926    2    1    2    0    0  0.00000000000E+00  0.00000000000E+00 -0.34939099594E+03  0.56058775831E+03  0.43838860242E+03 0.  0.
      99925    2    3    3    0    0  0.88450877597E+02  0.39093361620E+02 -0.22258558579E+03  0.35790828522E+03  0.26306301328E+03 0.  0.
         25    1    4    4    0    0  0.99392557413E+01 -0.17507413222E+01 -0.11902539821E+03  0.17296360143E+03  0.12509000000E+03 0.  0.
         25    1    3    3    0    0 -0.88450877597E+02 -0.39093361620E+02 -0.12680541015E+03  0.20267947309E+03  0.12509000000E+03 0.  0.
         25    1    4    4    0    0  0.78511621855E+02  0.40844102942E+02 -0.10356018758E+03  0.18494468379E+03  0.12509000000E+03 0.  0.
<mgrwt>
<rscale>  2 0.43838860E+03</rscale>
<asrwt>0</asrwt>
<pdfrwt beam="1">  1       21 0.15529174E-01 0.43838860E+03</pdfrwt>
<pdfrwt beam="2">  1       21 0.66910203E-01 0.43838860E+03</pdfrwt>
<totfact> 0.69915395E+04</totfact>
</mgrwt>
</event>
<event>
 7    0  0.4748297E-002  0.4574742E+03  0.7546771E-02  0.1025516E+00
         21   -1    0    0  502  501  0.00000000000E+00  0.00000000000E+00  0.98115411613E+02  0.98115411613E+02  0.00000000000E+00 0.  1.
         21   -1    0    0  501  502 -0.00000000000E+00 -0.00000000000E+00 -0.53325641024E+03  0.53325641024E+03  0.00000000000E+00 0.  1.
      99926    2    1    2    0    0  0.26645352591E-14  0.00000000000E+00 -0.43514099863E+03  0.63137182185E+03  0.45747424927E+03 0.  0.
      99925    2    3    3    0    0  0.67568945039E+01  0.91545367510E+02 -0.37003102104E+03  0.46310706851E+03  0.26290490760E+03 0.  0.
         25    1    4    4    0    0 -0.11731255653E+02  0.11671652731E+02 -0.20184018819E+03  0.23803533247E+03  0.12509000000E+03 0.  0.
         25    1    4    4    0    0  0.18488150157E+02  0.79873714779E+02 -0.16819083284E+03  0.22507173603E+03  0.12509000000E+03 0.  0.
         25    1    3    3    0    0 -0.67568945039E+01 -0.91545367510E+02 -0.65109977591E+02  0.16826475334E+03  0.12509000000E+03 0.  0.
<mgrwt>
<rscale>  2 0.45747425E+03</rscale>
<asrwt>0</asrwt>
<pdfrwt beam="1">  1       21 0.14428737E-01 0.45747425E+03</pdfrwt>
<pdfrwt beam="2">  1       21 0.78420062E-01 0.45747425E+03</pdfrwt>
<totfact> 0.55691893E+04</totfact>
</mgrwt>
</event>
<event>
 7    0  0.4748297E-002  0.4573880E+03  0.7546771E-02  0.1025542E+00
         21   -1    0    0  502  501  0.00000000000E+00  0.00000000000E+00  0.58639902044E+02  0.58639902044E+02  0.00000000000E+00 0. -1.
         21   -1    0    0  501  502 -0.00000000000E+00 -0.00000000000E+00 -0.89190022709E+03  0.89190022709E+03  0.00000000000E+00 0. -1.
      99926    2    1    2    0    0  0.00000000000E+00  0.00000000000E+00 -0.83326032504E+03  0.95054012913E+03  0.45738798388E+03 0.  0.
      99925    2    3    3    0    0 -0.97717512746E+02 -0.31240351444E+02 -0.63299110901E+03  0.69309122382E+03  0.26300765881E+03 0.  0.
         25    1    4    4    0    0 -0.75729876617E+02 -0.39501869597E+01 -0.26280756579E+03  0.30077556903E+03  0.12509000000E+03 0.  0.
         25    1    3    3    0    0  0.97717512746E+02  0.31240351444E+02 -0.20026921603E+03  0.25744890531E+03  0.12509000000E+03 0.  0.
         25    1    4    4    0    0 -0.21987636129E+02 -0.27290164484E+02 -0.37018354323E+03  0.39231565480E+03  0.12509000000E+03 0.  0.
<mgrwt>
<rscale>  2 0.45738798E+03</rscale>
<asrwt>0</asrwt>
<pdfrwt beam="1">  1       21 0.86235152E-02 0.45738798E+03</pdfrwt>
<pdfrwt beam="2">  1       21 0.13116180E+00 0.45738798E+03</pdfrwt>
<totfact> 0.40359996E+04</totfact>
</mgrwt>
</event>
<event>
 7    0  0.4748297E-002  0.4486721E+03  0.7546771E-02  0.1028119E+00
         21   -1    0    0  502  501  0.00000000000E+00  0.00000000000E+00  0.12077440386E+04  0.12077440386E+04  0.00000000000E+00 0. -1.
         21   -1    0    0  501  502 -0.00000000000E+00 -0.00000000000E+00 -0.41669977395E+02  0.41669977395E+02  0.00000000000E+00 0. -1.
      99926    2    1    2    0    0  0.00000000000E+00  0.00000000000E+00  0.11660740612E+04  0.12494140160E+04  0.44867211541E+03 0.  0.
      99925    2    3    3    0    0  0.96317389701E+02  0.12130048186E+02  0.61203025317E+03  0.67318816883E+03  0.26301540301E+03 0.  0.
         25    1    4    4    0    0  0.60241108102E+02 -0.27967366143E+02  0.35676808779E+03  0.38385171778E+03  0.12509000000E+03 0.  0.
         25    1    3    3    0    0 -0.96317389701E+02 -0.12130048186E+02  0.55404380804E+03  0.57622584717E+03  0.12509000000E+03 0.  0.
         25    1    4    4    0    0  0.36076281599E+02  0.40097414330E+02  0.25526216538E+03  0.28933645105E+03  0.12509000000E+03 0.  0.
<mgrwt>
<rscale>  2 0.44867212E+03</rscale>
<asrwt>0</asrwt>
<pdfrwt beam="1">  1       21 0.17760940E+00 0.44867212E+03</pdfrwt>
<pdfrwt beam="2">  1       21 0.61279386E-02 0.44867212E+03</pdfrwt>
<totfact> 0.32175846E+04</totfact>
</mgrwt>
</event>
<event>
 7    0  0.4748297E-002  0.4704221E+03  0.7546771E-02  0.1021801E+00
         21   -1    0    0  502  501  0.00000000000E+00  0.00000000000E+00  0.39581392888E+02  0.39581392888E+02  0.00000000000E+00 0.  1.
         21   -1    0    0  501  502 -0.00000000000E+00 -0.00000000000E+00 -0.13977335340E+04  0.13977335340E+04  0.00000000000E+00 0.  1.
      99926    2    1    2    0    0  0.00000000000E+00  0.00000000000E+00 -0.13581521411E+04  0.14373149269E+04  0.47042210901E+03 0.  0.
      99925    2    3    3    0    0  0.60737458983E+02  0.22045429241E+02 -0.50862178074E+03  0.57619682746E+03  0.26292894145E+03 0.  0.
         25    1    3    3    0    0 -0.60737458983E+02 -0.22045429241E+02 -0.84953036038E+03  0.86111809944E+03  0.12509000000E+03 0.  0.
         25    1    4    4    0    0  0.28729118493E+02  0.20061321856E+02 -0.17118663965E+03  0.21489577143E+03  0.12509000000E+03 0.  0.
         25    1    4    4    0    0  0.32008340490E+02  0.19841073855E+01 -0.33743514109E+03  0.36130105603E+03  0.12509000000E+03 0.  0.
<mgrwt>
<rscale>  2 0.47042211E+03</rscale>
<asrwt>0</asrwt>
<pdfrwt beam="1">  1       21 0.58207930E-02 0.47042211E+03</pdfrwt>
<pdfrwt beam="2">  1       21 0.20554905E+00 0.47042211E+03</pdfrwt>
<totfact> 0.22531164E+04</totfact>
</mgrwt>
</event>
<event>
 7    0  0.4748297E-002  0.4577968E+03  0.7546771E-02  0.1025422E+00
         21   -1    0    0  502  501  0.00000000000E+00  0.00000000000E+00  0.55169162350E+03  0.55169162350E+03  0.00000000000E+00 0.  1.
         21   -1    0    0  501  502 -0.00000000000E+00 -0.00000000000E+00 -0.94970590067E+02  0.94970590067E+02  0.00000000000E+00 0.  1.
      99926    2    1    2    0    0 -0.14210854715E-13  0.00000000000E+00  0.45672103344E+03  0.64666221357E+03  0.45779680654E+03 0.  0.
      99925    2    3    3    0    0 -0.10149599642E+03 -0.56152439857E+02  0.27907926837E+03  0.40037246838E+03  0.26259920336E+03 0.  0.
         25    1    4    4    0    0 -0.50255078509E+02  0.12334642402E+02  0.13852714893E+03  0.19368788142E+03  0.12509000000E+03 0.  0.
         25    1    4    4    0    0 -0.51240917915E+02 -0.68487082260E+02  0.14055211945E+03  0.20668458696E+03  0.12509000000E+03 0.  0.
         25    1    3    3    0    0  0.10149599642E+03  0.56152439857E+02  0.17764176506E+03  0.24628974519E+03  0.12509000000E+03 0.  0.
<mgrwt>
<rscale>  2 0.45779681E+03</rscale>
<asrwt>0</asrwt>
<pdfrwt beam="1">  1       21 0.81131119E-01 0.45779681E+03</pdfrwt>
<pdfrwt beam="2">  1       21 0.13966264E-01 0.45779681E+03</pdfrwt>
<totfact> 0.54677601E+04</totfact>
</mgrwt>
</event>
<event>
 7    0  0.4748297E-002  0.4538117E+03  0.7546771E-02  0.1026591E+00
         21   -1    0    0  502  501  0.00000000000E+00  0.00000000000E+00  0.25330279891E+03  0.25330279891E+03  0.00000000000E+00 0.  1.
         21   -1    0    0  501  502 -0.00000000000E+00 -0.00000000000E+00 -0.20325976160E+03  0.20325976160E+03  0.00000000000E+00 0.  1.
      99926    2    1    2    0    0  0.00000000000E+00  0.00000000000E+00  0.50043037308E+02  0.45656256051E+03  0.45381170774E+03 0.  0.
      99925    2    3    3    0    0 -0.87839785760E+02  0.69636255100E+02  0.29719310536E+02  0.28737155024E+03  0.26293370739E+03 0.  0.
         25    1    3    3    0    0  0.87839785760E+02 -0.69636255100E+02  0.20323726772E+02  0.16919101027E+03  0.12509000000E+03 0.  0.
         25    1    4    4    0    0 -0.28155184366E+02  0.92187320464E+01 -0.15690016356E+02  0.12950437885E+03  0.12509000000E+03 0.  0.
         25    1    4    4    0    0 -0.59684601394E+02  0.60417523053E+02  0.45409326892E+02  0.15786717140E+03  0.12509000000E+03 0.  0.
<mgrwt>
<rscale>  2 0.45381171E+03</rscale>
<asrwt>0</asrwt>
<pdfrwt beam="1">  1       21 0.37250412E-01 0.45381171E+03</pdfrwt>
<pdfrwt beam="2">  1       21 0.29891141E-01 0.45381171E+03</pdfrwt>
<totfact> 0.69084067E+04</totfact>
</mgrwt>
</event>
<event>
 7    0  0.4748297E-002  0.4549108E+03  0.7546771E-02  0.1026268E+00
         21   -1    0    0  502  501  0.00000000000E+00  0.00000000000E+00  0.66610639347E+03  0.66610639347E+03  0.00000000000E+00 0. -1.
         21   -1    0    0  501  502 -0.00000000000E+00 -0.00000000000E+00 -0.77669223523E+02  0.77669223523E+02  0.00000000000E+00 0. -1.
      99926    2    1    2    0    0  0.00000000000E+00  0.00000000000E+00  0.58843716994E+03  0.74377561699E+03  0.45491083242E+03 0.  0.
      99925    2    3    3    0    0 -0.91027832889E+02  0.67419727017E+02  0.37523844084E+03  0.47186994926E+03  0.26272775944E+03 0.  0.
         25    1    4    4    0    0 -0.26140774390E+02  0.42974745981E+02  0.12613802389E+03  0.18463065306E+03  0.12509000000E+03 0.  0.
         25    1    3    3    0    0  0.91027832889E+02 -0.67419727017E+02  0.21319872911E+03  0.27190566773E+03  0.12509000000E+03 0.  0.
         25    1    4    4    0    0 -0.64887058499E+02  0.24444981037E+02  0.24910041695E+03  0.28723929620E+03  0.12509000000E+03 0.  0.
<mgrwt>
<rscale>  2 0.45491083E+03</rscale>
<asrwt>0</asrwt>
<pdfrwt beam="1">  1       21 0.97956819E-01 0.45491083E+03</pdfrwt>
<pdfrwt beam="2">  1       21 0.11421945E-01 0.45491083E+03</pdfrwt>
<totfact> 0.50625300E+04</totfact>
</mgrwt>
</event>
<event>
 7    0  0.4748297E-002  0.4628551E+03  0.7546771E-02  0.1023956E+00
         21   -1    0    0  502  501  0.00000000000E+00  0.00000000000E+00  0.14179972954E+04  0.14179972954E+04  0.00000000000E+00 0.  1.
         21   -1    0    0  501  502 -0.00000000000E+00 -0.00000000000E+00 -0.37770676946E+02  0.37770676946E+02  0.00000000000E+00 0.  1.
      99926    2    1    2    0    0  0.00000000000E+00  0.00000000000E+00  0.13802266185E+04  0.14557679723E+04  0.46285512962E+03 0.  0.
      99925    2    3    3    0    0 -0.96463645035E+02 -0.71223376507E+02  0.89674321260E+03  0.94217113044E+03  0.26298297573E+03 0.  0.
         25    1    4    4    0    0 -0.40689236619E+02 -0.17058637380E+02  0.30922157902E+03  0.33647006422E+03  0.12509000000E+03 0.  0.
         25    1    4    4    0    0 -0.55774408415E+02 -0.54164739127E+02  0.58752163357E+03  0.60570106622E+03  0.12509000000E+03 0.  0.
         25    1    3    3    0    0  0.96463645035E+02  0.71223376507E+02  0.48348340586E+03  0.51359684191E+03  0.12509000000E+03 0.  0.
<mgrwt>
<rscale>  2 0.46285513E+03</rscale>
<asrwt>0</asrwt>
<pdfrwt beam="1">  1       21 0.20852898E+00 0.46285513E+03</pdfrwt>
<pdfrwt beam="2">  1       21 0.55545123E-02 0.46285513E+03</pdfrwt>
<totfact> 0.23420698E+04</totfact>
</mgrwt>
</event>
<event>
 7    0  0.4748297E-002  0.4578138E+03  0.7546771E-02  0.1025417E+00
         21   -1    0    0  502  501  0.00000000000E+00  0.00000000000E+00  0.55441269304E+03  0.55441269304E+03  0.00000000000E+00 0. -1.
         21   -1    0    0  501  502 -0.00000000000E+00 -0.00000000000E+00 -0.94511494668E+02  0.94511494668E+02  0.00000000000E+00 0. -1.
      99926    2    1    2    0    0  0.00000000000E+00  0.44408920985E-15  0.45990119837E+03  0.64892418771E+03  0.45781381492E+03 0.  0.
      99925    2    3    3    0    0  0.93232270980E+02  0.38567723141E+00  0.38589807124E+03  0.47624999733E+03  0.26306716531E+03 0.  0.
         25    1    4    4    0    0  0.61434853456E+02 -0.16589345834E+02  0.25829315263E+03  0.29395970542E+03  0.12509000000E+03 0.  0.
         25    1    3    3    0    0 -0.93232270980E+02 -0.38567723141E+00  0.74003127127E+02  0.17267419038E+03  0.12509000000E+03 0.  0.
         25    1    4    4    0    0  0.31797417524E+02  0.16975023066E+02  0.12760491861E+03  0.18229029191E+03  0.12509000000E+03 0.  0.
<mgrwt>
<rscale>  2 0.45781381E+03</rscale>
<asrwt>0</asrwt>
<pdfrwt beam="1">  1       21 0.81531277E-01 0.45781381E+03</pdfrwt>
<pdfrwt beam="2">  1       21 0.13898749E-01 0.45781381E+03</pdfrwt>
<totfact> 0.54542576E+04</totfact>
</mgrwt>
</event>
<event>
 7    0  0.4748297E-002  0.4572385E+03  0.7546771E-02  0.1025585E+00
         21   -1    0    0  502  501  0.00000000000E+00  0.00000000000E+00  0.20189619960E+03  0.20189619960E+03  0.00000000000E+00 0.  1.
         21   -1    0    0  501  502 -0.00000000000E+00 -0.00000000000E+00 -0.25887942167E+03  0.25887942167E+03  0.00000000000E+00 0.  1.
      99926    2    1    2    0    0  0.71054273576E-14  0.00000000000E+00 -0.56983222067E+02  0.46077562127E+03  0.45723854338E+03 0.  0.
      99925    2    3    3    0    0  0.45784576191E+02 -0.84171222757E+02  0.28855032459E+02  0.28134113128E+03  0.26294333438E+03 0.  0.
         25    1    4    4    0    0 -0.14459923598E+02 -0.38282417249E+02 -0.31504871507E+01  0.13165130660E+03  0.12509000000E+03 0.  0.
         25    1    3    3    0    0 -0.45784576191E+02  0.84171222757E+02 -0.85838254526E+02  0.17943448999E+03  0.12509000000E+03 0.  0.
         25    1    4    4    0    0  0.60244499789E+02 -0.45888805508E+02  0.32005519609E+02  0.14968982468E+03  0.12509000000E+03 0.  0.
<mgrwt>
<rscale>  2 0.45723854E+03</rscale>
<asrwt>0</asrwt>
<pdfrwt beam="1">  1       21 0.29690618E-01 0.45723854E+03</pdfrwt>
<pdfrwt beam="2">  1       21 0.38070503E-01 0.45723854E+03</pdfrwt>
<totfact> 0.66921353E+04</totfact>
</mgrwt>
</event>
<event>
 7    0  0.4748297E-002  0.4516142E+03  0.7546771E-02  0.1027242E+00
         21   -1    0    0  502  501  0.00000000000E+00  0.00000000000E+00  0.28497527445E+03  0.28497527445E+03  0.00000000000E+00 0. -1.
         21   -1    0    0  501  502 -0.00000000000E+00 -0.00000000000E+00 -0.17892377532E+03  0.17892377532E+03  0.00000000000E+00 0. -1.
      99926    2    1    2    0    0  0.17763568394E-14  0.00000000000E+00  0.10605149914E+03  0.46389904977E+03  0.45161422465E+03 0.  0.
      99925    2    3    3    0    0 -0.91268613535E+01 -0.35132008241E+02  0.17358105882E+03  0.31718399556E+03  0.26297860265E+03 0.  0.
         25    1    4    4    0    0  0.29629343267E+02 -0.39109466028E+02  0.91932323311E+02  0.16280819539E+03  0.12509000000E+03 0.  0.
         25    1    3    3    0    0  0.91268613535E+01  0.35132008241E+02 -0.67529559688E+02  0.14671505421E+03  0.12509000000E+03 0.  0.
         25    1    4    4    0    0 -0.38756204621E+02  0.39774577871E+01  0.81648735512E+02  0.15437580017E+03  0.12509000000E+03 0.  0.
<mgrwt>
<rscale>  2 0.45161422E+03</rscale>
<asrwt>0</asrwt>
<pdfrwt beam="1">  1       21 0.41908129E-01 0.45161422E+03</pdfrwt>
<pdfrwt beam="2">  1       21 0.26312320E-01 0.45161422E+03</pdfrwt>
<totfact> 0.69746835E+04</totfact>
</mgrwt>
</event>
<event>
 7    0  0.4748297E-002  0.4548859E+03  0.7546771E-02  0.1026275E+00
         21   -1    0    0  502  501  0.00000000000E+00  0.00000000000E+00  0.48969659590E+03  0.48969659590E+03  0.00000000000E+00 0.  1.
         21   -1    0    0  501  502 -0.00000000000E+00 -0.00000000000E+00 -0.10563745514E+03  0.10563745514E+03  0.00000000000E+00 0.  1.
      99926    2    1    2    0    0  0.00000000000E+00 -0.88817841970E-15  0.38405914076E+03  0.59533405103E+03  0.45488592934E+03 0.  0.
      99925    2    3    3    0    0 -0.48888529170E+02 -0.64206286631E+01  0.37489334469E+03  0.46056449707E+03  0.26295118048E+03 0.  0.
         25    1    4    4    0    0  0.15376498374E+02  0.72377394029E+01  0.17627584788E+03  0.21681675263E+03  0.12509000000E+03 0.  0.
         25    1    3    3    0    0  0.48888529170E+02  0.64206286631E+01  0.91657960722E+01  0.13476955396E+03  0.12509000000E+03 0.  0.
         25    1    4    4    0    0 -0.64265027543E+02 -0.13658368066E+02  0.19861749681E+03  0.24374774445E+03  0.12509000000E+03 0.  0.
<mgrwt>
<rscale>  2 0.45488593E+03</rscale>
<asrwt>0</asrwt>
<pdfrwt beam="1">  1       21 0.72014204E-01 0.45488593E+03</pdfrwt>
<pdfrwt beam="2">  1       21 0.15534920E-01 0.45488593E+03</pdfrwt>
<totfact> 0.59019574E+04</totfact>
</mgrwt>
</event>
<event>
 7    0  0.4748297E-002  0.4589906E+03  0.7546771E-02  0.1025074E+00
         21   -1    0    0  502  501  0.00000000000E+00  0.00000000000E+00  0.44624357909E+03  0.44624357909E+03  0.00000000000E+00 0. -1.
         21   -1    0    0  501  502 -0.00000000000E+00 -0.00000000000E+00 -0.11802541591E+03  0.11802541591E+03  0.00000000000E+00 0. -1.
      99926    2    1    2    0    0  0.00000000000E+00 -0.71054273576E-14  0.32821816319E+03  0.56426899500E+03  0.45899056208E+03 0.  0.
      99925    2    3    3    0    0 -0.78368745603E+02  0.57172878994E+02  0.28594442432E+03  0.40042463142E+03  0.26299291486E+03 0.  0.
         25    1    3    3    0    0  0.78368745603E+02 -0.57172878994E+02  0.42273738867E+02  0.16384436358E+03  0.12509000000E+03 0.  0.
         25    1    4    4    0    0 -0.34183885677E+02  0.48010130223E+02  0.95121109941E+02  0.16783636168E+03  0.12509000000E+03 0.  0.
         25    1    4    4    0    0 -0.44184859927E+02  0.91627487710E+01  0.19082331438E+03  0.23258826974E+03  0.12509000000E+03 0.  0.
<mgrwt>
<rscale>  2 0.45899056E+03</rscale>
<asrwt>0</asrwt>
<pdfrwt beam="1">  1       21 0.65624055E-01 0.45899056E+03</pdfrwt>
<pdfrwt beam="2">  1       21 0.17356679E-01 0.45899056E+03</pdfrwt>
<totfact> 0.59047512E+04</totfact>
</mgrwt>
</event>
<event>
 7    0  0.4748297E-002  0.4530033E+03  0.7546771E-02  0.1026830E+00
         21   -1    0    0  502  501  0.00000000000E+00  0.00000000000E+00  0.10769307424E+04  0.10769307424E+04  0.00000000000E+00 0.  1.
         21   -1    0    0  501  502 -0.00000000000E+00 -0.00000000000E+00 -0.47638157927E+02  0.47638157927E+02  0.00000000000E+00 0.  1.
      99926    2    1    2    0    0  0.00000000000E+00 -0.22204460493E-14  0.10292925845E+04  0.11245689004E+04  0.45300329705E+03 0.  0.
      99925    2    3    3    0    0 -0.76400739397E+02 -0.19312304670E+01  0.44759338987E+03  0.52468369153E+03  0.26289224194E+03 0.  0.
         25    1    4    4    0    0 -0.54685352859E+02 -0.31628532160E+02  0.27195406680E+03  0.30593687978E+03  0.12509000000E+03 0.  0.
         25    1    3    3    0    0  0.76400739397E+02  0.19312304670E+01  0.58169919465E+03  0.59988520884E+03  0.12509000000E+03 0.  0.
         25    1    4    4    0    0 -0.21715386539E+02  0.29697301693E+02  0.17563932307E+03  0.21874681174E+03  0.12509000000E+03 0.  0.
<mgrwt>
<rscale>  2 0.45300330E+03</rscale>
<asrwt>0</asrwt>
<pdfrwt beam="1">  1       21 0.15837215E+00 0.45300330E+03</pdfrwt>
<pdfrwt beam="2">  1       21 0.70056121E-02 0.45300330E+03</pdfrwt>
<totfact> 0.35187427E+04</totfact>
</mgrwt>
</event>
<event>
 7    0  0.4748297E-002  0.4529376E+03  0.7546771E-02  0.1026850E+00
         21   -1    0    0  502  501  0.00000000000E+00  0.00000000000E+00  0.10677332311E+04  0.10677332311E+04  0.00000000000E+00 0.  1.
         21   -1    0    0  501  502 -0.00000000000E+00 -0.00000000000E+00 -0.48034573973E+02  0.48034573973E+02  0.00000000000E+00 0.  1.
      99926    2    1    2    0    0  0.00000000000E+00  0.00000000000E+00  0.10196986571E+04  0.11157678050E+04  0.45293757129E+03 0.  0.
      99925    2    3    3    0    0 -0.35544643937E+02 -0.70263771243E+02  0.44930435809E+03  0.52653306090E+03  0.26298714562E+03 0.  0.
         25    1    4    4    0    0 -0.35602673596E+01 -0.71157865630E+02  0.20976570185E+03  0.25441162536E+03  0.12509000000E+03 0.  0.
         25    1    4    4    0    0 -0.31984376577E+02  0.89409438746E+00  0.23953865623E+03  0.27212143554E+03  0.12509000000E+03 0.  0.
         25    1    3    3    0    0  0.35544643937E+02  0.70263771243E+02  0.57039429900E+03  0.58923474413E+03  0.12509000000E+03 0.  0.
<mgrwt>
<rscale>  2 0.45293757E+03</rscale>
<asrwt>0</asrwt>
<pdfrwt beam="1">  1       21 0.15701958E+00 0.45293757E+03</pdfrwt>
<pdfrwt beam="2">  1       21 0.70639086E-02 0.45293757E+03</pdfrwt>
<totfact> 0.35513667E+04</totfact>
</mgrwt>
</event>
<event>
 7    0  0.4748297E-002  0.4522296E+03  0.7546771E-02  0.1027059E+00
         21   -1    0    0  502  501  0.00000000000E+00  0.00000000000E+00  0.29822006102E+04  0.29822006102E+04  0.00000000000E+00 0. -1.
         21   -1    0    0  501  502 -0.00000000000E+00 -0.00000000000E+00 -0.17144357252E+02  0.17144357252E+02  0.00000000000E+00 0. -1.
      99926    2    1    2    0    0  0.00000000000E+00  0.00000000000E+00  0.29650562529E+04  0.29993449674E+04  0.45222964370E+03 0.  0.
      99925    2    3    3    0    0  0.10433918367E+03 -0.61383827671E+01  0.21091953117E+04  0.21280988462E+04  0.26301234037E+03 0.  0.
         25    1    4    4    0    0  0.11538248862E+02  0.91017931412E+01  0.87387534199E+03  0.88290520175E+03  0.12509000000E+03 0.  0.
         25    1    3    3    0    0 -0.10433918367E+03  0.61383827671E+01  0.85586094122E+03  0.87124612126E+03  0.12509000000E+03 0.  0.
         25    1    4    4    0    0  0.92800934813E+02 -0.15240175908E+02  0.12353199697E+04  0.12451936444E+04  0.12509000000E+03 0.  0.
<mgrwt>
<rscale>  2 0.45222964E+03</rscale>
<asrwt>0</asrwt>
<pdfrwt beam="1">  1       21 0.43855855E+00 0.45222964E+03</pdfrwt>
<pdfrwt beam="2">  1       21 0.25212311E-02 0.45222964E+03</pdfrwt>
<totfact> 0.33219863E+03</totfact>
</mgrwt>
</event>
<event>
 7    0  0.4748297E-002  0.4542459E+03  0.7546771E-02  0.1026463E+00
         21   -1    0    0  502  501  0.00000000000E+00  0.00000000000E+00  0.69472706410E+03  0.69472706410E+03  0.00000000000E+00 0.  1.
         21   -1    0    0  501  502 -0.00000000000E+00 -0.00000000000E+00 -0.74251951395E+02  0.74251951395E+02  0.00000000000E+00 0.  1.
      99926    2    1    2    0    0  0.00000000000E+00 -0.35527136788E-14  0.62047511271E+03  0.76897901550E+03  0.45424592545E+03 0.  0.
      99925    2    3    3    0    0  0.10189356420E+03  0.25064597551E+02  0.32233039502E+03  0.42905503390E+03  0.26302244408E+03 0.  0.
         25    1    3    3    0    0 -0.10189356420E+03 -0.25064597551E+02  0.29814471769E+03  0.33992398159E+03  0.12509000000E+03 0.  0.
         25    1    4    4    0    0  0.42335957864E+02  0.49837199012E+02  0.14096047339E+03  0.19948293885E+03  0.12509000000E+03 0.  0.
         25    1    4    4    0    0  0.59557606339E+02 -0.24772601462E+02  0.18136992163E+03  0.22957209505E+03  0.12509000000E+03 0.  0.
<mgrwt>
<rscale>  2 0.45424593E+03</rscale>
<asrwt>0</asrwt>
<pdfrwt beam="1">  1       21 0.10216574E+00 0.45424593E+03</pdfrwt>
<pdfrwt beam="2">  1       21 0.10919405E-01 0.45424593E+03</pdfrwt>
<totfact> 0.49594715E+04</totfact>
</mgrwt>
</event>
<event>
 7    0  0.4748297E-002  0.4690992E+03  0.7546771E-02  0.1022175E+00
         21   -1    0    0  502  501  0.00000000000E+00  0.00000000000E+00  0.58916697315E+02  0.58916697315E+02  0.00000000000E+00 0.  1.
         21   -1    0    0  501  502 -0.00000000000E+00 -0.00000000000E+00 -0.93375076247E+03  0.93375076247E+03  0.00000000000E+00 0.  1.
      99926    2    1    2    0    0  0.00000000000E+00  0.00000000000E+00 -0.87483406515E+03  0.99266745978E+03  0.46909918371E+03 0.  0.
      99925    2    3    3    0    0  0.10988265646E+03  0.43716978764E+02 -0.45223249257E+03  0.53635071708E+03  0.26300663861E+03 0.  0.
         25    1    3    3    0    0 -0.10988265646E+03 -0.43716978764E+02 -0.42260157259E+03  0.45631674271E+03  0.12509000000E+03 0.  0.
         25    1    4    4    0    0  0.91440033726E+02  0.10398066219E+02 -0.21140274298E+03  0.26231284259E+03  0.12509000000E+03 0.  0.
         25    1    4    4    0    0  0.18442622731E+02  0.33318912545E+02 -0.24082974958E+03  0.27403787448E+03  0.12509000000E+03 0.  0.
<mgrwt>
<rscale>  2 0.46909918E+03</rscale>
<asrwt>0</asrwt>
<pdfrwt beam="1">  1       21 0.86642212E-02 0.46909918E+03</pdfrwt>
<pdfrwt beam="2">  1       21 0.13731627E+00 0.46909918E+03</pdfrwt>
<totfact> 0.35391957E+04</totfact>
</mgrwt>
</event>
<event>
 6    0  0.4748297E-002  0.4554993E+03  0.7546771E-02  0.1026095E+00
         21   -1    0    0  502  501  0.00000000000E+00  0.00000000000E+00  0.59177901338E+02  0.59177901338E+02  0.00000000000E+00 0.  1.
         21   -1    0    0  501  502 -0.00000000000E+00 -0.00000000000E+00 -0.87650811187E+03  0.87650811187E+03  0.00000000000E+00 0.  1.
      99926    2    1    2    0    0  0.00000000000E+00  0.00000000000E+00 -0.81733021054E+03  0.93568601321E+03  0.45549933289E+03 0.  0.
         25    1    3    3    0    0 -0.30990437953E+02 -0.73128147093E+02 -0.31580757265E+03  0.34884102996E+03  0.12509000000E+03 0.  0.
         25    1    3    3    0    0  0.81592461025E+02  0.34434827889E+02 -0.18261179645E+03  0.23840650865E+03  0.12509000000E+03 0.  0.
         25    1    3    3    0    0 -0.50602023072E+02  0.38693319203E+02 -0.31891084144E+03  0.34843847460E+03  0.12509000000E+03 0.  0.
<mgrwt>
<rscale>  2 0.45549933E+03</rscale>
<asrwt>0</asrwt>
<pdfrwt beam="1">  1       21 0.87026330E-02 0.45549933E+03</pdfrwt>
<pdfrwt beam="2">  1       21 0.12889824E+00 0.45549933E+03</pdfrwt>
<totfact> 0.41563372E+04</totfact>
</mgrwt>
</event>
<event>
 7    0  0.4748297E-002  0.4612116E+03  0.7546771E-02  0.1024430E+00
         21   -1    0    0  502  501  0.00000000000E+00  0.00000000000E+00  0.25624441573E+03  0.25624441573E+03  0.00000000000E+00 0.  1.
         21   -1    0    0  501  502 -0.00000000000E+00 -0.00000000000E+00 -0.20753246098E+03  0.20753246098E+03  0.00000000000E+00 0.  1.
      99926    2    1    2    0    0  0.00000000000E+00 -0.71054273576E-14  0.48711954755E+02  0.46377687671E+03  0.46121159660E+03 0.  0.
      99925    2    3    3    0    0 -0.96013462408E+02  0.51434982481E+02  0.78033232505E+02  0.29533879368E+03  0.26319512779E+03 0.  0.
         25    1    4    4    0    0 -0.69586539328E+02  0.58960278501E+02  0.25431177818E+02  0.15688484249E+03  0.12509000000E+03 0.  0.
         25    1    4    4    0    0 -0.26426923079E+02 -0.75252960199E+01  0.52602054687E+02  0.13845395119E+03  0.12509000000E+03 0.  0.
         25    1    3    3    0    0  0.96013462408E+02 -0.51434982481E+02 -0.29321277749E+02  0.16843808303E+03  0.12509000000E+03 0.  0.
<mgrwt>
<rscale>  2 0.46121160E+03</rscale>
<asrwt>0</asrwt>
<pdfrwt beam="1">  1       21 0.37683003E-01 0.46121160E+03</pdfrwt>
<pdfrwt beam="2">  1       21 0.30519479E-01 0.46121160E+03</pdfrwt>
<totfact> 0.64643890E+04</totfact>
</mgrwt>
</event>
<event>
 7    0  0.4748297E-002  0.4752707E+03  0.7546771E-02  0.1020443E+00
         21   -1    0    0  502  501  0.00000000000E+00  0.00000000000E+00  0.59858319613E+03  0.59858319613E+03  0.00000000000E+00 0.  1.
         21   -1    0    0  501  502 -0.00000000000E+00 -0.00000000000E+00 -0.94340368696E+02  0.94340368696E+02  0.00000000000E+00 0.  1.
      99926    2    1    2    0    0  0.00000000000E+00  0.00000000000E+00  0.50424282744E+03  0.69292356483E+03  0.47527069936E+03 0.  0.
      99925    2    3    3    0    0 -0.70228969566E+01 -0.65117247578E+01  0.50274111072E+03  0.56745848246E+03  0.26299958417E+03 0.  0.
         25    1    4    4    0    0 -0.30176227820E+02  0.56398109266E+01  0.18926886000E+03  0.22893803017E+03  0.12509000000E+03 0.  0.
         25    1    3    3    0    0  0.70228969566E+01  0.65117247578E+01  0.15017167233E+01  0.12546508237E+03  0.12509000000E+03 0.  0.
         25    1    4    4    0    0  0.23153330864E+02 -0.12151535684E+02  0.31347225072E+03  0.33852045229E+03  0.12509000000E+03 0.  0.
<mgrwt>
<rscale>  2 0.47527070E+03</rscale>
<asrwt>0</asrwt>
<pdfrwt beam="1">  1       21 0.88026939E-01 0.47527070E+03</pdfrwt>
<pdfrwt beam="2">  1       21 0.13873584E-01 0.47527070E+03</pdfrwt>
<totfact> 0.45565746E+04</totfact>
</mgrwt>
</event>
<event>
 7    0  0.4748297E-002  0.4550311E+03  0.7546771E-02  0.1026232E+00
         21   -1    0    0  502  501  0.00000000000E+00  0.00000000000E+00  0.12529396427E+03  0.12529396427E+03  0.00000000000E+00 0.  1.
         21   -1    0    0  501  502 -0.00000000000E+00 -0.00000000000E+00 -0.41313504866E+03  0.41313504866E+03  0.00000000000E+00 0.  1.
      99926    2    1    2    0    0 -0.71054273576E-14  0.71054273576E-14 -0.28784108440E+03  0.53842901293E+03  0.45503111113E+03 0.  0.
      99925    2    3    3    0    0 -0.58263645003E+02 -0.32876444993E+02 -0.28930408301E+03  0.39656583438E+03  0.26285375322E+03 0.  0.
         25    1    3    3    0    0  0.58263645003E+02  0.32876444993E+02  0.14629986118E+01  0.14186317855E+03  0.12509000000E+03 0.  0.
         25    1    4    4    0    0 -0.55688415751E+02 -0.34313039046E+02 -0.11540905556E+03  0.18233305379E+03  0.12509000000E+03 0.  0.
         25    1    4    4    0    0 -0.25752292513E+01  0.14365940522E+01 -0.17389502744E+03  0.21423278059E+03  0.12509000000E+03 0.  0.
<mgrwt>
<rscale>  2 0.45503111E+03</rscale>
<asrwt>0</asrwt>
<pdfrwt beam="1">  1       21 0.18425583E-01 0.45503111E+03</pdfrwt>
<pdfrwt beam="2">  1       21 0.60755153E-01 0.45503111E+03</pdfrwt>
<totfact> 0.62622249E+04</totfact>
</mgrwt>
</event>
<event>
 7    0  0.4748297E-002  0.4536679E+03  0.7546771E-02  0.1026634E+00
         21   -1    0    0  502  501  0.00000000000E+00  0.00000000000E+00  0.97162126096E+03  0.97162126096E+03  0.00000000000E+00 0. -1.
         21   -1    0    0  501  502 -0.00000000000E+00 -0.00000000000E+00 -0.52956482202E+02  0.52956482202E+02  0.00000000000E+00 0. -1.
      99926    2    1    2    0    0  0.00000000000E+00 -0.35527136788E-14  0.91866477876E+03  0.10245777432E+04  0.45366791384E+03 0.  0.
      99925    2    3    3    0    0 -0.75024615770E+02 -0.19358453104E+02  0.76128708644E+03  0.80912777492E+03  0.26291878115E+03 0.  0.
         25    1    4    4    0    0 -0.17074114609E+02  0.24087299545E+02  0.39338930587E+03  0.41385308681E+03  0.12509000000E+03 0.  0.
         25    1    3    3    0    0  0.75024615770E+02  0.19358453104E+02  0.15737769232E+03  0.21544996825E+03  0.12509000000E+03 0.  0.
         25    1    4    4    0    0 -0.57950501162E+02 -0.43445752649E+02  0.36789778058E+03  0.39527468811E+03  0.12509000000E+03 0.  0.
<mgrwt>
<rscale>  2 0.45366791E+03</rscale>
<asrwt>0</asrwt>
<pdfrwt beam="1">  1       21 0.14288547E+00 0.45366791E+03</pdfrwt>
<pdfrwt beam="2">  1       21 0.77877186E-02 0.45366791E+03</pdfrwt>
<totfact> 0.38624396E+04</totfact>
</mgrwt>
</event>
<event>
 7    0  0.4748297E-002  0.4506518E+03  0.7546771E-02  0.1027528E+00
         21   -1    0    0  502  501  0.00000000000E+00  0.00000000000E+00  0.45738215741E+03  0.45738215741E+03  0.00000000000E+00 0.  1.
         21   -1    0    0  501  502 -0.00000000000E+00 -0.00000000000E+00 -0.11100514140E+03  0.11100514140E+03  0.00000000000E+00 0.  1.
      99926    2    1    2    0    0  0.00000000000E+00  0.00000000000E+00  0.34637701602E+03  0.56838729881E+03  0.45065184369E+03 0.  0.
      99925    2    3    3    0    0 -0.52123782966E+02  0.52523313109E+02  0.11770303739E+03  0.29743548802E+03  0.26294158543E+03 0.  0.
         25    1    4    4    0    0 -0.46442086816E+02 -0.73119677372E+01  0.46796466868E+02  0.14159007632E+03  0.12509000000E+03 0.  0.
         25    1    4    4    0    0 -0.56816961500E+01  0.59835280846E+02  0.70906570518E+02  0.15584541170E+03  0.12509000000E+03 0.  0.
         25    1    3    3    0    0  0.52123782966E+02 -0.52523313109E+02  0.22867397863E+03  0.27095181079E+03  0.12509000000E+03 0.  0.
<mgrwt>
<rscale>  2 0.45065184E+03</rscale>
<asrwt>0</asrwt>
<pdfrwt beam="1">  1       21 0.67262081E-01 0.45065184E+03</pdfrwt>
<pdfrwt beam="2">  1       21 0.16324286E-01 0.45065184E+03</pdfrwt>
<totfact> 0.62799257E+04</totfact>
</mgrwt>
</event>
<event>
 7    0  0.4748297E-002  0.4419963E+03  0.7546771E-02  0.1030136E+00
         21   -1    0    0  502  501  0.00000000000E+00  0.00000000000E+00  0.20252606602E+03  0.20252606602E+03  0.00000000000E+00 0. -1.
         21   -1    0    0  501  502 -0.00000000000E+00 -0.00000000000E+00 -0.24115505380E+03  0.24115505380E+03  0.00000000000E+00 0. -1.
      99926    2    1    2    0    0  0.00000000000E+00  0.00000000000E+00 -0.38628987779E+02  0.44368111982E+03  0.44199630925E+03 0.  0.
      99925    2    3    3    0    0  0.92137024860E+02 -0.29421575202E+02 -0.52819431465E+02  0.28492427043E+03  0.26274909534E+03 0.  0.
         25    1    3    3    0    0 -0.92137024860E+02  0.29421575202E+02  0.14190443686E+02  0.15875684939E+03  0.12509000000E+03 0.  0.
         25    1    4    4    0    0  0.18441468057E+02  0.22631933731E+00 -0.52063522062E+02  0.13674157156E+03  0.12509000000E+03 0.  0.
         25    1    4    4    0    0  0.73695556803E+02 -0.29647894540E+02 -0.75590940302E+00  0.14818269886E+03  0.12509000000E+03 0.  0.
<mgrwt>
<rscale>  2 0.44199631E+03</rscale>
<asrwt>0</asrwt>
<pdfrwt beam="1">  1       21 0.29783245E-01 0.44199631E+03</pdfrwt>
<pdfrwt beam="2">  1       21 0.35463979E-01 0.44199631E+03</pdfrwt>
<totfact> 0.77074674E+04</totfact>
</mgrwt>
</event>
<event>
 7    0  0.4748297E-002  0.4525605E+03  0.7546771E-02  0.1026961E+00
         21   -1    0    0  502  501  0.00000000000E+00  0.00000000000E+00  0.74377525776E+03  0.74377525776E+03  0.00000000000E+00 0.  1.
         21   -1    0    0  501  502 -0.00000000000E+00 -0.00000000000E+00 -0.68841703422E+02  0.68841703422E+02  0.00000000000E+00 0.  1.
      99926    2    1    2    0    0  0.00000000000E+00  0.14210854715E-13  0.67493355434E+03  0.81261696118E+03  0.45256051842E+03 0.  0.
      99925    2    3    3    0    0  0.16683584001E+02  0.91028311152E+02  0.31632467691E+03  0.42170478374E+03  0.26307627791E+03 0.  0.
         25    1    4    4    0    0 -0.59658834500E+01  0.12362665242E+02  0.17830109862E+03  0.21823660813E+03  0.12509000000E+03 0.  0.
         25    1    4    4    0    0  0.22649467451E+02  0.78665645910E+02  0.13802357829E+03  0.20346817561E+03  0.12509000000E+03 0.  0.
         25    1    3    3    0    0 -0.16683584001E+02 -0.91028311152E+02  0.35860887742E+03  0.39091217744E+03  0.12509000000E+03 0.  0.
<mgrwt>
<rscale>  2 0.45256052E+03</rscale>
<asrwt>0</asrwt>
<pdfrwt beam="1">  1       21 0.10937871E+00 0.45256052E+03</pdfrwt>
<pdfrwt beam="2">  1       21 0.10123780E-01 0.45256052E+03</pdfrwt>
<totfact> 0.48074285E+04</totfact>
</mgrwt>
</event>
<event>
 7    0  0.4748297E-002  0.4579801E+03  0.7546771E-02  0.1025369E+00
         21   -1    0    0  502  501  0.00000000000E+00  0.00000000000E+00  0.14764063271E+03  0.14764063271E+03  0.00000000000E+00 0.  1.
         21   -1    0    0  501  502 -0.00000000000E+00 -0.00000000000E+00 -0.35516266997E+03  0.35516266997E+03  0.00000000000E+00 0.  1.
      99926    2    1    2    0    0  0.00000000000E+00  0.00000000000E+00 -0.20752203726E+03  0.50280330268E+03  0.45798009262E+03 0.  0.
      99925    2    3    3    0    0 -0.84033038854E+02 -0.79231324504E+02 -0.11899144626E+03  0.31090664288E+03  0.26299205672E+03 0.  0.
         25    1    4    4    0    0 -0.60020619148E+02 -0.29863854146E+02 -0.98541946828E+02  0.17277832009E+03  0.12509000000E+03 0.  0.
         25    1    4    4    0    0 -0.24012419706E+02 -0.49367470358E+02 -0.20449499431E+02  0.13812832279E+03  0.12509000000E+03 0.  0.
         25    1    3    3    0    0  0.84033038854E+02  0.79231324504E+02 -0.88530591005E+02  0.19189665981E+03  0.12509000000E+03 0.  0.
<mgrwt>
<rscale>  2 0.45798009E+03</rscale>
<asrwt>0</asrwt>
<pdfrwt beam="1">  1       21 0.21711858E-01 0.45798009E+03</pdfrwt>
<pdfrwt beam="2">  1       21 0.52229804E-01 0.45798009E+03</pdfrwt>
<totfact> 0.63557317E+04</totfact>
</mgrwt>
</event>
<event>
 7    0  0.4748297E-002  0.4573665E+03  0.7546771E-02  0.1025548E+00
         21   -1    0    0  502  501  0.00000000000E+00  0.00000000000E+00  0.35586263640E+02  0.35586263640E+02  0.00000000000E+00 0.  1.
         21   -1    0    0  501  502 -0.00000000000E+00 -0.00000000000E+00 -0.14695565270E+04  0.14695565270E+04  0.00000000000E+00 0.  1.
      99926    2    1    2    0    0  0.00000000000E+00 -0.14210854715E-13 -0.14339702633E+04  0.15051427906E+04  0.45736648764E+03 0.  0.
      99925    2    3    3    0    0  0.71711096529E+02 -0.82158212543E+02 -0.77661919248E+03  0.82716757594E+03  0.26301402113E+03 0.  0.
         25    1    4    4    0    0  0.23649514668E+02 -0.53044351116E+01 -0.40967057834E+03  0.42902788654E+03  0.12509000000E+03 0.  0.
         25    1    3    3    0    0 -0.71711096529E+02  0.82158212543E+02 -0.65735107087E+03  0.67797521469E+03  0.12509000000E+03 0.  0.
         25    1    4    4    0    0  0.48061581860E+02 -0.76853777431E+02 -0.36694861414E+03  0.39813968940E+03  0.12509000000E+03 0.  0.
<mgrwt>
<rscale>  2 0.45736649E+03</rscale>
<asrwt>0</asrwt>
<pdfrwt beam="1">  1       21 0.52332736E-02 0.45736649E+03</pdfrwt>
<pdfrwt beam="2">  1       21 0.21611127E+00 0.45736649E+03</pdfrwt>
<totfact> 0.23223542E+04</totfact>
</mgrwt>
</event>
<event>
 6    0  0.4748297E-002  0.4571771E+03  0.7546771E-02  0.1025603E+00
         21   -1    0    0  502  501  0.00000000000E+00  0.00000000000E+00  0.18658979689E+04  0.18658979689E+04  0.00000000000E+00 0.  1.
         21   -1    0    0  501  502 -0.00000000000E+00 -0.00000000000E+00 -0.28004067768E+02  0.28004067768E+02  0.00000000000E+00 0.  1.
      99926    2    1    2    0    0  0.77715611724E-15  0.00000000000E+00  0.18378939011E+04  0.18939020367E+04  0.45717713490E+03 0.  0.
         25    1    3    3    0    0  0.32748062197E+02 -0.39960608321E+02  0.30792484472E+03  0.33635472925E+03  0.12509000000E+03 0.  0.
         25    1    3    3    0    0 -0.33259571822E+02 -0.25280886475E+00  0.41125253969E+03  0.43114083840E+03  0.12509000000E+03 0.  0.
         25    1    3    3    0    0  0.51150962499E+00  0.40213417185E+02  0.11187165167E+04  0.11264064690E+04  0.12509000000E+03 0.  0.
<mgrwt>
<rscale>  2 0.45717713E+03</rscale>
<asrwt>0</asrwt>
<pdfrwt beam="1">  1       21 0.27439667E+00 0.45717713E+03</pdfrwt>
<pdfrwt beam="2">  1       21 0.41182465E-02 0.45717713E+03</pdfrwt>
<totfact> 0.15260835E+04</totfact>
</mgrwt>
</event>
<event>
 7    0  0.4748297E-002  0.4572325E+03  0.7546771E-02  0.1025587E+00
         21   -1    0    0  502  501  0.00000000000E+00  0.00000000000E+00  0.17125133724E+03  0.17125133724E+03  0.00000000000E+00 0. -1.
         21   -1    0    0  501  502 -0.00000000000E+00 -0.00000000000E+00 -0.30519694194E+03  0.30519694194E+03  0.00000000000E+00 0. -1.
      99926    2    1    2    0    0  0.00000000000E+00  0.00000000000E+00 -0.13394560469E+03  0.47644827918E+03  0.45723247667E+03 0.  0.
      99925    2    3    3    0    0  0.25178886112E+02  0.88793939903E+02 -0.10496699095E+02  0.27794014216E+03  0.26195839720E+03 0.  0.
         25    1    4    4    0    0  0.35405709756E+02  0.65279004575E+02 -0.30653960073E+02  0.14866770359E+03  0.12509000000E+03 0.  0.
         25    1    4    4    0    0 -0.10226823644E+02  0.23514935328E+02  0.20157260978E+02  0.12927243858E+03  0.12509000000E+03 0.  0.
         25    1    3    3    0    0 -0.25178886112E+02 -0.88793939903E+02 -0.12344890560E+03  0.19850813702E+03  0.12509000000E+03 0.  0.
<mgrwt>
<rscale>  2 0.45723248E+03</rscale>
<asrwt>0</asrwt>
<pdfrwt beam="1">  1       21 0.25184020E-01 0.45723248E+03</pdfrwt>
<pdfrwt beam="2">  1       21 0.44881903E-01 0.45723248E+03</pdfrwt>
<totfact> 0.65786306E+04</totfact>
</mgrwt>
</event>
<event>
 7    0  0.4748297E-002  0.4250155E+03  0.7546771E-02  0.1035446E+00
         21   -1    0    0  502  501  0.00000000000E+00  0.00000000000E+00  0.54425753381E+03  0.54425753381E+03  0.00000000000E+00 0. -1.
         21   -1    0    0  501  502 -0.00000000000E+00 -0.00000000000E+00 -0.82974573019E+02  0.82974573019E+02  0.00000000000E+00 0. -1.
      99926    2    1    2    0    0  0.00000000000E+00  0.00000000000E+00  0.46128296079E+03  0.62723210683E+03  0.42501546551E+03 0.  0.
      99925    2    3    3    0    0 -0.12614432960E+02 -0.80909670104E+02  0.29277391722E+03  0.40195826347E+03  0.26296079619E+03 0.  0.
         25    1    3    3    0    0  0.12614432960E+02  0.80909670104E+02  0.16850904357E+03  0.22527384335E+03  0.12509000000E+03 0.  0.
         25    1    4    4    0    0  0.26675338889E+02 -0.30568227653E+02  0.10993619129E+03  0.17140438881E+03  0.12509000000E+03 0.  0.
         25    1    4    4    0    0 -0.39289771850E+02 -0.50341442452E+02  0.18283772593E+03  0.23055387467E+03  0.12509000000E+03 0.  0.
<mgrwt>
<rscale>  2 0.42501547E+03</rscale>
<asrwt>0</asrwt>
<pdfrwt beam="1">  1       21 0.80037871E-01 0.42501547E+03</pdfrwt>
<pdfrwt beam="2">  1       21 0.12202143E-01 0.42501547E+03</pdfrwt>
<totfact> 0.72785088E+04</totfact>
</mgrwt>
</event>
<event>
 6    0  0.4748297E-002  0.4548326E+03  0.7546771E-02  0.1026291E+00
         21   -1    0    0  502  501  0.00000000000E+00  0.00000000000E+00  0.89651548794E+03  0.89651548794E+03  0.00000000000E+00 0.  1.
         21   -1    0    0  501  502 -0.00000000000E+00 -0.00000000000E+00 -0.57687989820E+02  0.57687989820E+02  0.00000000000E+00 0.  1.
      99926    2    1    2    0    0  0.00000000000E+00  0.00000000000E+00  0.83882749812E+03  0.95420347776E+03  0.45483261247E+03 0.  0.
         25    1    3    3    0    0 -0.72546996212E+02 -0.28684239453E+02  0.46962279485E+03  0.49221837612E+03  0.12509000000E+03 0.  0.
         25    1    3    3    0    0 -0.62712057319E+01  0.23605071688E+02  0.20075857390E+03  0.23779831902E+03  0.12509000000E+03 0.  0.
         25    1    3    3    0    0  0.78818201944E+02  0.50791677647E+01  0.16844612937E+03  0.22418678262E+03  0.12509000000E+03 0.  0.
<mgrwt>
<rscale>  2 0.45483261E+03</rscale>
<asrwt>0</asrwt>
<pdfrwt beam="1">  1       21 0.13184050E+00 0.45483261E+03</pdfrwt>
<pdfrwt beam="2">  1       21 0.84835284E-02 0.45483261E+03</pdfrwt>
<totfact> 0.41024746E+04</totfact>
</mgrwt>
</event>
<event>
 7    0  0.4748297E-002  0.4582647E+03  0.7546771E-02  0.1025286E+00
         21   -1    0    0  502  501  0.00000000000E+00  0.00000000000E+00  0.79925279505E+02  0.79925279505E+02  0.00000000000E+00 0. -1.
         21   -1    0    0  501  502 -0.00000000000E+00 -0.00000000000E+00 -0.65688394832E+03  0.65688394832E+03  0.00000000000E+00 0. -1.
      99926    2    1    2    0    0  0.00000000000E+00  0.14210854715E-13 -0.57695866882E+03  0.73680922783E+03  0.45826469719E+03 0.  0.
      99925    2    3    3    0    0 -0.55990044425E+02 -0.10185134198E+03 -0.36235807244E+03  0.46256571377E+03  0.26297354611E+03 0.  0.
         25    1    4    4    0    0 -0.36025082417E+02 -0.93857392138E+02 -0.19609489388E+03  0.25339244686E+03  0.12509000000E+03 0.  0.
         25    1    4    4    0    0 -0.19964962008E+02 -0.79939498464E+01 -0.16626317857E+03  0.20917326691E+03  0.12509000000E+03 0.  0.
         25    1    3    3    0    0  0.55990044425E+02  0.10185134198E+03 -0.21460059637E+03  0.27424351406E+03  0.12509000000E+03 0.  0.
<mgrwt>
<rscale>  2 0.45826470E+03</rscale>
<asrwt>0</asrwt>
<pdfrwt beam="1">  1       21 0.11753718E-01 0.45826470E+03</pdfrwt>
<pdfrwt beam="2">  1       21 0.96600581E-01 0.45826470E+03</pdfrwt>
<totfact> 0.49662566E+04</totfact>
</mgrwt>
</event>
<event>
 7    0  0.4748297E-002  0.4534589E+03  0.7546771E-02  0.1026696E+00
         21   -1    0    0  502  501  0.00000000000E+00  0.00000000000E+00  0.45917756368E+02  0.45917756368E+02  0.00000000000E+00 0.  1.
         21   -1    0    0  501  502 -0.00000000000E+00 -0.00000000000E+00 -0.11195288753E+04  0.11195288753E+04  0.00000000000E+00 0.  1.
      99926    2    1    2    0    0  0.00000000000E+00  0.35527136788E-14 -0.10736111189E+04  0.11654466316E+04  0.45345894694E+03 0.  0.
      99925    2    3    3    0    0 -0.40380333309E+02  0.18173096240E+02 -0.94011054893E+03  0.97721607346E+03  0.26302581106E+03 0.  0.
         25    1    4    4    0    0 -0.32444186434E+02  0.47775040350E+02 -0.46895770022E+03  0.48877797865E+03  0.12509000000E+03 0.  0.
         25    1    3    3    0    0  0.40380333309E+02 -0.18173096240E+02 -0.13350056995E+03  0.18823055815E+03  0.12509000000E+03 0.  0.
         25    1    4    4    0    0 -0.79361468747E+01 -0.29601944110E+02 -0.47115284871E+03  0.48843809481E+03  0.12509000000E+03 0.  0.
<mgrwt>
<rscale>  2 0.45345895E+03</rscale>
<asrwt>0</asrwt>
<pdfrwt beam="1">  1       21 0.67526099E-02 0.45345895E+03</pdfrwt>
<pdfrwt beam="2">  1       21 0.16463663E+00 0.45345895E+03</pdfrwt>
<totfact> 0.33673353E+04</totfact>
</mgrwt>
</event>
<event>
 7    0  0.4748297E-002  0.4387032E+03  0.7546771E-02  0.1031145E+00
         21   -1    0    0  502  501  0.00000000000E+00  0.00000000000E+00  0.15963328399E+04  0.15963328399E+04  0.00000000000E+00 0. -1.
         21   -1    0    0  501  502 -0.00000000000E+00 -0.00000000000E+00 -0.30141036996E+02  0.30141036996E+02  0.00000000000E+00 0. -1.
      99926    2    1    2    0    0 -0.17763568394E-14  0.00000000000E+00  0.15661918029E+04  0.16264738769E+04  0.43870321259E+03 0.  0.
      99925    2    3    3    0    0 -0.10538217958E+02  0.17417149744E+02  0.64846553085E+03  0.70003800235E+03  0.26292822002E+03 0.  0.
         25    1    3    3    0    0  0.10538217958E+02 -0.17417149744E+02  0.91772627202E+03  0.92643587452E+03  0.12509000000E+03 0.  0.
         25    1    4    4    0    0 -0.94052768151E+01 -0.15282256333E+02  0.40654000619E+03  0.42572795460E+03  0.12509000000E+03 0.  0.
         25    1    4    4    0    0 -0.11329411426E+01  0.32699406077E+02  0.24192552466E+03  0.27431004775E+03  0.12509000000E+03 0.  0.
<mgrwt>
<rscale>  2 0.43870321E+03</rscale>
<asrwt>0</asrwt>
<pdfrwt beam="1">  1       21 0.23475477E+00 0.43870321E+03</pdfrwt>
<pdfrwt beam="2">  1       21 0.44325065E-02 0.43870321E+03</pdfrwt>
<totfact> 0.23698047E+04</totfact>
</mgrwt>
</event>
<event>
 7    0  0.4748297E-002  0.4492418E+03  0.7546771E-02  0.1027948E+00
         21   -1    0    0  502  501  0.00000000000E+00  0.00000000000E+00  0.23870334704E+03  0.23870334704E+03  0.00000000000E+00 0. -1.
         21   -1    0    0  501  502 -0.00000000000E+00 -0.00000000000E+00 -0.21136924352E+03  0.21136924352E+03  0.00000000000E+00 0. -1.
      99926    2    1    2    0    0  0.00000000000E+00  0.00000000000E+00  0.27334103520E+02  0.45007259056E+03  0.44924178741E+03 0.  0.
      99925    2    3    3    0    0  0.96143095295E+02 -0.13072091145E+02 -0.29385563757E+02  0.28190897054E+03  0.26304901060E+03 0.  0.
         25    1    3    3    0    0 -0.96143095295E+02  0.13072091145E+02  0.56719667277E+02  0.16816362001E+03  0.12509000000E+03 0.  0.
         25    1    4    4    0    0  0.90155690367E+01  0.77406184222E+01 -0.22217759341E+01  0.12567275778E+03  0.12509000000E+03 0.  0.
         25    1    4    4    0    0  0.87127526258E+02 -0.20812709567E+02 -0.27163787823E+02  0.15623621277E+03  0.12509000000E+03 0.  0.
<mgrwt>
<rscale>  2 0.44924179E+03</rscale>
<asrwt>0</asrwt>
<pdfrwt beam="1">  1       21 0.35103433E-01 0.44924179E+03</pdfrwt>
<pdfrwt beam="2">  1       21 0.31083712E-01 0.44924179E+03</pdfrwt>
<totfact> 0.72167401E+04</totfact>
</mgrwt>
</event>
<event>
 7    0  0.4748297E-002  0.4544787E+03  0.7546771E-02  0.1026395E+00
         21   -1    0    0  502  501  0.00000000000E+00  0.00000000000E+00  0.46501110064E+03  0.46501110064E+03  0.00000000000E+00 0. -1.
         21   -1    0    0  501  502 -0.00000000000E+00 -0.00000000000E+00 -0.11104621808E+03  0.11104621808E+03  0.00000000000E+00 0. -1.
      99926    2    1    2    0    0  0.00000000000E+00 -0.14210854715E-13  0.35396488255E+03  0.57605731872E+03  0.45447870838E+03 0.  0.
      99925    2    3    3    0    0  0.62559599232E+02 -0.75868700469E+02  0.29225053059E+03  0.40539410503E+03  0.26318101109E+03 0.  0.
         25    1    3    3    0    0 -0.62559599232E+02  0.75868700469E+02  0.61714351965E+02  0.17066321369E+03  0.12509000000E+03 0.  0.
         25    1    4    4    0    0  0.46183924600E+02 -0.77651714367E+02  0.17247303436E+03  0.23142428420E+03  0.12509000000E+03 0.  0.
         25    1    4    4    0    0  0.16375674633E+02  0.17830138975E+01  0.11977749623E+03  0.17396982084E+03  0.12509000000E+03 0.  0.
<mgrwt>
<rscale>  2 0.45447871E+03</rscale>
<asrwt>0</asrwt>
<pdfrwt beam="1">  1       21 0.68383985E-01 0.45447871E+03</pdfrwt>
<pdfrwt beam="2">  1       21 0.16330326E-01 0.45447871E+03</pdfrwt>
<totfact> 0.60425413E+04</totfact>
</mgrwt>
</event>
<event>
 7    0  0.4748297E-002  0.4483240E+03  0.7546771E-02  0.1028223E+00
         21   -1    0    0  502  501  0.00000000000E+00  0.00000000000E+00  0.15394384010E+04  0.15394384010E+04  0.00000000000E+00 0.  1.
         21   -1    0    0  501  502 -0.00000000000E+00 -0.00000000000E+00 -0.32640862439E+02  0.32640862439E+02  0.00000000000E+00 0.  1.
      99926    2    1    2    0    0  0.00000000000E+00  0.00000000000E+00  0.15067975386E+04  0.15720792635E+04  0.44832397697E+03 0.  0.
      99925    2    3    3    0    0  0.96646063239E+02 -0.27166417847E+02  0.82640164400E+03  0.87303380195E+03  0.26300164703E+03 0.  0.
         25    1    3    3    0    0 -0.96646063239E+02  0.27166417847E+02  0.68039589461E+03  0.69904546154E+03  0.12509000000E+03 0.  0.
         25    1    4    4    0    0  0.76723404397E+01 -0.54865268134E+01  0.33270927690E+03  0.35557268992E+03  0.12509000000E+03 0.  0.
         25    1    4    4    0    0  0.88973722799E+02 -0.21679891034E+02  0.49369236710E+03  0.51746111202E+03  0.12509000000E+03 0.  0.
<mgrwt>
<rscale>  2 0.44832398E+03</rscale>
<asrwt>0</asrwt>
<pdfrwt beam="1">  1       21 0.22638795E+00 0.44832398E+03</pdfrwt>
<pdfrwt beam="2">  1       21 0.48001279E-02 0.44832398E+03</pdfrwt>
<totfact> 0.23248801E+04</totfact>
</mgrwt>
</event>
<event>
 7    0  0.4748297E-002  0.4597738E+03  0.7546771E-02  0.1024847E+00
         21   -1    0    0  502  501  0.00000000000E+00  0.00000000000E+00  0.54691693690E+03  0.54691693690E+03  0.00000000000E+00 0.  1.
         21   -1    0    0  501  502 -0.00000000000E+00 -0.00000000000E+00 -0.96628889629E+02  0.96628889629E+02  0.00000000000E+00 0.  1.
      99926    2    1    2    0    0 -0.14210854715E-13  0.00000000000E+00  0.45028804727E+03  0.64354582652E+03  0.45977375450E+03 0.  0.
      99925    2    3    3    0    0  0.64727750402E+02  0.72111033267E+02  0.18893976024E+03  0.33802967634E+03  0.26301358576E+03 0.  0.
         25    1    4    4    0    0  0.22782931052E+02  0.73540756607E+02  0.11673816300E+03  0.18762359028E+03  0.12509000000E+03 0.  0.
         25    1    3    3    0    0 -0.64727750402E+02 -0.72111033267E+02  0.26134828703E+03  0.30551615019E+03  0.12509000000E+03 0.  0.
         25    1    4    4    0    0  0.41944819350E+02 -0.14297233402E+01  0.72201597234E+02  0.15040608605E+03  0.12509000000E+03 0.  0.
<mgrwt>
<rscale>  2 0.45977375E+03</rscale>
<asrwt>0</asrwt>
<pdfrwt beam="1">  1       21 0.80428960E-01 0.45977375E+03</pdfrwt>
<pdfrwt beam="2">  1       21 0.14210131E-01 0.45977375E+03</pdfrwt>
<totfact> 0.54011341E+04</totfact>
</mgrwt>
</event>
<event>
 7    0  0.4748297E-002  0.4285793E+03  0.7546771E-02  0.1034310E+00
         21   -1    0    0  502  501  0.00000000000E+00  0.00000000000E+00  0.62844524736E+03  0.62844524736E+03  0.00000000000E+00 0.  1.
         21   -1    0    0  501  502 -0.00000000000E+00 -0.00000000000E+00 -0.73069307393E+02  0.73069307393E+02  0.00000000000E+00 0.  1.
      99926    2    1    2    0    0  0.35527136788E-14 -0.88817841970E-15  0.55537593997E+03  0.70151455475E+03  0.42857932269E+03 0.  0.
      99925    2    3    3    0    0 -0.16940408257E+02  0.62390015618E+01  0.22010798684E+03  0.34321578129E+03  0.26272351262E+03 0.  0.
         25    1    4    4    0    0  0.29724798194E+02 -0.44857449150E+01  0.94904362354E+02  0.15986879504E+03  0.12509000000E+03 0.  0.
         25    1    4    4    0    0 -0.46665206451E+02  0.10724746477E+02  0.12520362448E+03  0.18334698624E+03  0.12509000000E+03 0.  0.
         25    1    3    3    0    0  0.16940408257E+02 -0.62390015618E+01  0.33526795313E+03  0.35829877347E+03  0.12509000000E+03 0.  0.
<mgrwt>
<rscale>  2 0.42857932E+03</rscale>
<asrwt>0</asrwt>
<pdfrwt beam="1">  1       21 0.92418416E-01 0.42857932E+03</pdfrwt>
<pdfrwt beam="2">  1       21 0.10745487E-01 0.42857932E+03</pdfrwt>
<totfact> 0.65392687E+04</totfact>
</mgrwt>
</event>
<event>
 7    0  0.4748297E-002  0.4561489E+03  0.7546771E-02  0.1025904E+00
         21   -1    0    0  502  501  0.00000000000E+00  0.00000000000E+00  0.50986362710E+03  0.50986362710E+03  0.00000000000E+00 0. -1.
         21   -1    0    0  501  502 -0.00000000000E+00 -0.00000000000E+00 -0.10202325611E+03  0.10202325611E+03  0.00000000000E+00 0. -1.
      99926    2    1    2    0    0  0.00000000000E+00  0.00000000000E+00  0.40784037099E+03  0.61188688321E+03  0.45614886784E+03 0.  0.
      99925    2    3    3    0    0  0.72573558964E+01  0.10181600889E+03  0.32506138260E+03  0.43045083965E+03  0.26306625405E+03 0.  0.
         25    1    3    3    0    0 -0.72573558964E+01 -0.10181600889E+03  0.82778988390E+02  0.18143604355E+03  0.12509000000E+03 0.  0.
         25    1    4    4    0    0  0.15064670022E+02  0.90875012165E+02  0.19765084896E+03  0.25139327420E+03  0.12509000000E+03 0.  0.
         25    1    4    4    0    0 -0.78073141260E+01  0.10940996729E+02  0.12741053364E+03  0.17905756545E+03  0.12509000000E+03 0.  0.
<mgrwt>
<rscale>  2 0.45614887E+03</rscale>
<asrwt>0</asrwt>
<pdfrwt beam="1">  1       21 0.74979944E-01 0.45614887E+03</pdfrwt>
<pdfrwt beam="2">  1       21 0.15003420E-01 0.45614887E+03</pdfrwt>
<totfact> 0.57429589E+04</totfact>
</mgrwt>
</event>
<event>
 7    0  0.4748297E-002  0.4527466E+03  0.7546771E-02  0.1026906E+00
         21   -1    0    0  502  501  0.00000000000E+00  0.00000000000E+00  0.23809389900E+02  0.23809389900E+02  0.00000000000E+00 0. -1.
         21   -1    0    0  501  502 -0.00000000000E+00 -0.00000000000E+00 -0.21522971378E+04  0.21522971378E+04  0.00000000000E+00 0. -1.
      99926    2    1    2    0    0 -0.17763568394E-14  0.00000000000E+00 -0.21284877479E+04  0.21761065277E+04  0.45274664763E+03 0.  0.
      99925    2    3    3    0    0 -0.94049702611E+01 -0.11067680814E+03 -0.13427323431E+04  0.13727405628E+04  0.26296140051E+03 0.  0.
         25    1    4    4    0    0 -0.18748791012E+02 -0.48016280431E+02 -0.48061712961E+03  0.49929691940E+03  0.12509000000E+03 0.  0.
         25    1    3    3    0    0  0.94049702611E+01  0.11067680814E+03 -0.78575540482E+03  0.80336596494E+03  0.12509000000E+03 0.  0.
         25    1    4    4    0    0  0.93438207506E+01 -0.62660527705E+02 -0.86211521349E+03  0.87344364337E+03  0.12509000000E+03 0.  0.
<mgrwt>
<rscale>  2 0.45274665E+03</rscale>
<asrwt>0</asrwt>
<pdfrwt beam="1">  1       21 0.35013825E-02 0.45274665E+03</pdfrwt>
<pdfrwt beam="2">  1       21 0.31651413E+00 0.45274665E+03</pdfrwt>
<totfact> 0.11237226E+04</totfact>
</mgrwt>
</event>
<event>
 7    0  0.4748297E-002  0.4718380E+03  0.7546771E-02  0.1021403E+00
         21   -1    0    0  502  501  0.00000000000E+00  0.00000000000E+00  0.90330404771E+02  0.90330404771E+02  0.00000000000E+00 0.  1.
         21   -1    0    0  501  502 -0.00000000000E+00 -0.00000000000E+00 -0.61615769317E+03  0.61615769317E+03  0.00000000000E+00 0.  1.
      99926    2    1    2    0    0 -0.14210854715E-13  0.00000000000E+00 -0.52582728840E+03  0.70648809794E+03  0.47183799689E+03 0.  0.
      99925    2    3    3    0    0  0.11765565030E+03  0.42354603223E+02 -0.36851653536E+03  0.46977953117E+03  0.26315699992E+03 0.  0.
         25    1    3    3    0    0 -0.11765565030E+03 -0.42354603223E+02 -0.15731075304E+03  0.23670856677E+03  0.12509000000E+03 0.  0.
         25    1    4    4    0    0  0.52708715447E+02  0.53992921755E+02 -0.22519894058E+03  0.26843158388E+03  0.12509000000E+03 0.  0.
         25    1    4    4    0    0  0.64946934855E+02 -0.11638318532E+02 -0.14331759478E+03  0.20134794729E+03  0.12509000000E+03 0.  0.
<mgrwt>
<rscale>  2 0.47183800E+03</rscale>
<asrwt>0</asrwt>
<pdfrwt beam="1">  1       21 0.13283883E-01 0.47183800E+03</pdfrwt>
<pdfrwt beam="2">  1       21 0.90611426E-01 0.47183800E+03</pdfrwt>
<totfact> 0.46127771E+04</totfact>
</mgrwt>
</event>
<event>
 7    0  0.4748297E-002  0.4561682E+03  0.7546771E-02  0.1025898E+00
         21   -1    0    0  502  501  0.00000000000E+00  0.00000000000E+00  0.38744762120E+03  0.38744762120E+03  0.00000000000E+00 0.  1.
         21   -1    0    0  501  502 -0.00000000000E+00 -0.00000000000E+00 -0.13426939240E+03  0.13426939240E+03  0.00000000000E+00 0.  1.
      99926    2    1    2    0    0  0.14210854715E-13 -0.17763568394E-14  0.25317822880E+03  0.52171701359E+03  0.45616820005E+03 0.  0.
      99925    2    3    3    0    0 -0.99464029534E+02  0.25436703784E+01  0.22321161832E+03  0.35909761354E+03  0.26311234496E+03 0.  0.
         25    1    4    4    0    0 -0.89130470518E+02 -0.14928157423E+02  0.11500756595E+03  0.19246126619E+03  0.12509000000E+03 0.  0.
         25    1    4    4    0    0 -0.10333559016E+02  0.17471827801E+02  0.10820405237E+03  0.16663634735E+03  0.12509000000E+03 0.  0.
         25    1    3    3    0    0  0.99464029534E+02 -0.25436703784E+01  0.29966610482E+02  0.16261940005E+03  0.12509000000E+03 0.  0.
<mgrwt>
<rscale>  2 0.45616820E+03</rscale>
<asrwt>0</asrwt>
<pdfrwt beam="1">  1       21 0.56977591E-01 0.45616820E+03</pdfrwt>
<pdfrwt beam="2">  1       21 0.19745499E-01 0.45616820E+03</pdfrwt>
<totfact> 0.63182815E+04</totfact>
</mgrwt>
</event>
<event>
 7    0  0.4748297E-002  0.4603112E+03  0.7546771E-02  0.1024691E+00
         21   -1    0    0  502  501  0.00000000000E+00  0.00000000000E+00  0.14374582033E+04  0.14374582033E+04  0.00000000000E+00 0.  1.
         21   -1    0    0  501  502 -0.00000000000E+00 -0.00000000000E+00 -0.36850876299E+02  0.36850876299E+02  0.00000000000E+00 0.  1.
      99926    2    1    2    0    0  0.71054273576E-14  0.00000000000E+00  0.14006073270E+04  0.14743090796E+04  0.46031117490E+03 0.  0.
      99925    2    3    3    0    0 -0.59188197373E+02 -0.93738577740E+02  0.10076884907E+04  0.10473162416E+04  0.26295446755E+03 0.  0.
         25    1    3    3    0    0  0.59188197373E+02  0.93738577740E+02  0.39291883627E+03  0.42699283795E+03  0.12509000000E+03 0.  0.
         25    1    4    4    0    0  0.99599327191E+01 -0.53297551601E+02  0.51304296390E+03  0.53084877336E+03  0.12509000000E+03 0.  0.
         25    1    4    4    0    0 -0.69148130092E+02 -0.40441026139E+02  0.49464552682E+03  0.51646746828E+03  0.12509000000E+03 0.  0.
<mgrwt>
<rscale>  2 0.46031117E+03</rscale>
<asrwt>0</asrwt>
<pdfrwt beam="1">  1       21 0.21139087E+00 0.46031117E+03</pdfrwt>
<pdfrwt beam="2">  1       21 0.54192475E-02 0.46031117E+03</pdfrwt>
<totfact> 0.23434022E+04</totfact>
</mgrwt>
</event>
<event>
 7    0  0.4748297E-002  0.4612673E+03  0.7546771E-02  0.1024414E+00
         21   -1    0    0  502  501  0.00000000000E+00  0.00000000000E+00  0.77108941528E+02  0.77108941528E+02  0.00000000000E+00 0.  1.
         21   -1    0    0  501  502 -0.00000000000E+00 -0.00000000000E+00 -0.68982761505E+03  0.68982761505E+03  0.00000000000E+00 0.  1.
      99926    2    1    2    0    0  0.00000000000E+00  0.00000000000E+00 -0.61271867352E+03  0.76693655658E+03  0.46126728578E+03 0.  0.
      99925    2    3    3    0    0  0.77720087207E+02  0.37433642286E+02 -0.24731037200E+03  0.37119367989E+03  0.26302212523E+03 0.  0.
         25    1    3    3    0    0 -0.77720087207E+02 -0.37433642286E+02 -0.36540830152E+03  0.39574287669E+03  0.12509000000E+03 0.  0.
         25    1    4    4    0    0  0.64216018436E+02  0.35225809313E+02 -0.93619124152E+02  0.17255898462E+03  0.12509000000E+03 0.  0.
         25    1    4    4    0    0  0.13504068771E+02  0.22078329735E+01 -0.15369124785E+03  0.19863469527E+03  0.12509000000E+03 0.  0.
<mgrwt>
<rscale>  2 0.46126729E+03</rscale>
<asrwt>0</asrwt>
<pdfrwt beam="1">  1       21 0.11339550E-01 0.46126729E+03</pdfrwt>
<pdfrwt beam="2">  1       21 0.10144524E+00 0.46126729E+03</pdfrwt>
<totfact> 0.47047652E+04</totfact>
</mgrwt>
</event>
<event>
 7    0  0.4748297E-002  0.4298553E+03  0.7546771E-02  0.1033906E+00
         21   -1    0    0  502  501  0.00000000000E+00  0.00000000000E+00  0.17056625922E+03  0.17056625922E+03  0.00000000000E+00 0. -1.
         21   -1    0    0  501  502 -0.00000000000E+00 -0.00000000000E+00 -0.27082663463E+03  0.27082663463E+03  0.00000000000E+00 0. -1.
      99926    2    1    2    0    0  0.00000000000E+00  0.00000000000E+00 -0.10026037542E+03  0.44139289385E+03  0.42985525920E+03 0.  0.
      99925    2    3    3    0    0 -0.74765698503E+02 -0.44298662294E+02 -0.53737388173E+02  0.28213154387E+03  0.26297950492E+03 0.  0.
         25    1    3    3    0    0  0.74765698503E+02  0.44298662294E+02 -0.46522987246E+02  0.15926134998E+03  0.12509000000E+03 0.  0.
         25    1    4    4    0    0 -0.14947819457E+01 -0.77021682440E+01 -0.72136084506E+01  0.12554322768E+03  0.12509000000E+03 0.  0.
         25    1    4    4    0    0 -0.73270916558E+02 -0.36596494050E+02 -0.46523779722E+02  0.15658831620E+03  0.12509000000E+03 0.  0.
<mgrwt>
<rscale>  2 0.42985526E+03</rscale>
<asrwt>0</asrwt>
<pdfrwt beam="1">  1       21 0.25083274E-01 0.42985526E+03</pdfrwt>
<pdfrwt beam="2">  1       21 0.39827446E-01 0.42985526E+03</pdfrwt>
<totfact> 0.85432513E+04</totfact>
</mgrwt>
</event>
<event>
 7    0  0.4748297E-002  0.4593677E+03  0.7546771E-02  0.1024965E+00
         21   -1    0    0  502  501  0.00000000000E+00  0.00000000000E+00  0.22768295621E+03  0.22768295621E+03  0.00000000000E+00 0.  1.
         21   -1    0    0  501  502 -0.00000000000E+00 -0.00000000000E+00 -0.23170237613E+03  0.23170237613E+03  0.00000000000E+00 0.  1.
      99926    2    1    2    0    0  0.00000000000E+00 -0.35527136788E-14 -0.40194199247E+01  0.45938533234E+03  0.45936774792E+03 0.  0.
      99925    2    3    3    0    0 -0.10406683653E+03  0.30345860793E+02 -0.47148502671E+02  0.28833445215E+03  0.26298858770E+03 0.  0.
         25    1    4    4    0    0 -0.78893956742E+02  0.23833037245E+02  0.60885531852E+01  0.14992280899E+03  0.12509000000E+03 0.  0.
         25    1    3    3    0    0  0.10406683653E+03 -0.30345860793E+02  0.43129082746E+02  0.17105088019E+03  0.12509000000E+03 0.  0.
         25    1    4    4    0    0 -0.25172879793E+02  0.65128235476E+01 -0.53237055856E+02  0.13841164317E+03  0.12509000000E+03 0.  0.
<mgrwt>
<rscale>  2 0.45936775E+03</rscale>
<asrwt>0</asrwt>
<pdfrwt beam="1">  1       21 0.33482788E-01 0.45936775E+03</pdfrwt>
<pdfrwt beam="2">  1       21 0.34073878E-01 0.45936775E+03</pdfrwt>
<totfact> 0.65899008E+04</totfact>
</mgrwt>
</event>
<event>
 7    0  0.4748297E-002  0.4620124E+03  0.7546771E-02  0.1024199E+00
         21   -1    0    0  502  501  0.00000000000E+00  0.00000000000E+00  0.13696747744E+03  0.13696747744E+03  0.00000000000E+00 0.  1.
         21   -1    0    0  501  502 -0.00000000000E+00 -0.00000000000E+00 -0.38960977712E+03  0.38960977712E+03  0.00000000000E+00 0.  1.
      99926    2    1    2    0    0  0.71054273576E-14  0.00000000000E+00 -0.25264229968E+03  0.52657725456E+03  0.46201241696E+03 0.  0.
      99925    2    3    3    0    0 -0.62547569930E+02  0.69586736663E+02 -0.72573448001E+02  0.28819350538E+03  0.26274337055E+03 0.  0.
         25    1    4    4    0    0 -0.64615053578E+02  0.58237591820E+02 -0.28094385443E+02  0.15493070981E+03  0.12509000000E+03 0.  0.
         25    1    3    3    0    0  0.62547569930E+02 -0.69586736663E+02 -0.18006885168E+03  0.23838374917E+03  0.12509000000E+03 0.  0.
         25    1    4    4    0    0  0.20674836480E+01  0.11349144843E+02 -0.44479062558E+02  0.13326279557E+03  0.12509000000E+03 0.  0.
<mgrwt>
<rscale>  2 0.46201242E+03</rscale>
<asrwt>0</asrwt>
<pdfrwt beam="1">  1       21 0.20142276E-01 0.46201242E+03</pdfrwt>
<pdfrwt beam="2">  1       21 0.57295555E-01 0.46201242E+03</pdfrwt>
<totfact> 0.60031365E+04</totfact>
</mgrwt>
</event>
<event>
 7    0  0.4748297E-002  0.4549769E+03  0.7546771E-02  0.1026248E+00
         21   -1    0    0  502  501  0.00000000000E+00  0.00000000000E+00  0.74455009200E+02  0.74455009200E+02  0.00000000000E+00 0.  1.
         21   -1    0    0  501  502 -0.00000000000E+00 -0.00000000000E+00 -0.69506395487E+03  0.69506395487E+03  0.00000000000E+00 0.  1.
      99926    2    1    2    0    0  0.14210854715E-13  0.00000000000E+00 -0.62060894567E+03  0.76951896407E+03  0.45497689240E+03 0.  0.
      99925    2    3    3    0    0  0.85385300023E+02  0.64112561323E+02 -0.32735193956E+03  0.43329247833E+03  0.26302473166E+03 0.  0.
         25    1    4    4    0    0  0.54960219762E+02  0.34860153495E+02 -0.22794122948E+03  0.26803090914E+03  0.12509000000E+03 0.  0.
         25    1    3    3    0    0 -0.85385300023E+02 -0.64112561323E+02 -0.29325700612E+03  0.33622648575E+03  0.12509000000E+03 0.  0.
         25    1    4    4    0    0  0.30425080261E+02  0.29252407828E+02 -0.99410710075E+02  0.16526156919E+03  0.12509000000E+03 0.  0.
<mgrwt>
<rscale>  2 0.45497689E+03</rscale>
<asrwt>0</asrwt>
<pdfrwt beam="1">  1       21 0.10949266E-01 0.45497689E+03</pdfrwt>
<pdfrwt beam="2">  1       21 0.10221528E+00 0.45497689E+03</pdfrwt>
<totfact> 0.49283353E+04</totfact>
</mgrwt>
</event>
<event>
 7    0  0.4748297E-002  0.4526037E+03  0.7546771E-02  0.1026948E+00
         21   -1    0    0  502  501  0.00000000000E+00  0.00000000000E+00  0.10310359783E+03  0.10310359783E+03  0.00000000000E+00 0.  1.
         21   -1    0    0  501  502 -0.00000000000E+00 -0.00000000000E+00 -0.49670930676E+03  0.49670930676E+03  0.00000000000E+00 0.  1.
      99926    2    1    2    0    0  0.00000000000E+00  0.71054273576E-14 -0.39360570892E+03  0.59981290459E+03  0.45260365268E+03 0.  0.
      99925    2    3    3    0    0 -0.10141094825E+03  0.39113743658E+02 -0.27733622244E+03  0.39737731742E+03  0.26301955583E+03 0.  0.
         25    1    4    4    0    0 -0.82614444303E+02 -0.39958373205E+01 -0.16314777366E+03  0.22159832417E+03  0.12509000000E+03 0.  0.
         25    1    3    3    0    0  0.10141094825E+03 -0.39113743658E+02 -0.11626948648E+03  0.20243558718E+03  0.12509000000E+03 0.  0.
         25    1    4    4    0    0 -0.18796503949E+02  0.43109580979E+02 -0.11418844878E+03  0.17577899325E+03  0.12509000000E+03 0.  0.
<mgrwt>
<rscale>  2 0.45260365E+03</rscale>
<asrwt>0</asrwt>
<pdfrwt beam="1">  1       21 0.15162294E-01 0.45260365E+03</pdfrwt>
<pdfrwt beam="2">  1       21 0.73045486E-01 0.45260365E+03</pdfrwt>
<totfact> 0.59814292E+04</totfact>
</mgrwt>
</event>
<event>
 7    0  0.4748297E-002  0.4517317E+03  0.7546771E-02  0.1027207E+00
         21   -1    0    0  502  501  0.00000000000E+00  0.00000000000E+00  0.37418212912E+03  0.37418212912E+03  0.00000000000E+00 0. -1.
         21   -1    0    0  501  502 -0.00000000000E+00 -0.00000000000E+00 -0.13633834349E+03  0.13633834349E+03  0.00000000000E+00 0. -1.
      99926    2    1    2    0    0  0.00000000000E+00 -0.71054273576E-14  0.23784378562E+03  0.51052047261E+03  0.45173165330E+03 0.  0.
      99925    2    3    3    0    0 -0.93865509213E+02 -0.41525657975E+02  0.10507937519E+03  0.30121445056E+03  0.26297025696E+03 0.  0.
         25    1    4    4    0    0 -0.16066655945E+02  0.82740042882E+01  0.39127549854E+02  0.13230672635E+03  0.12509000000E+03 0.  0.
         25    1    4    4    0    0 -0.77798853269E+02 -0.49799662263E+02  0.65951825336E+02  0.16890772421E+03  0.12509000000E+03 0.  0.
         25    1    3    3    0    0  0.93865509213E+02  0.41525657975E+02  0.13276441043E+03  0.20930602205E+03  0.12509000000E+03 0.  0.
<mgrwt>
<rscale>  2 0.45173165E+03</rscale>
<asrwt>0</asrwt>
<pdfrwt beam="1">  1       21 0.55026784E-01 0.45173165E+03</pdfrwt>
<pdfrwt beam="2">  1       21 0.20049756E-01 0.45173165E+03</pdfrwt>
<totfact> 0.66239131E+04</totfact>
</mgrwt>
</event>
<event>
 7    0  0.4748297E-002  0.4745760E+03  0.7546771E-02  0.1020637E+00
         21   -1    0    0  502  501  0.00000000000E+00  0.00000000000E+00  0.11248930182E+03  0.11248930182E+03  0.00000000000E+00 0. -1.
         21   -1    0    0  501  502 -0.00000000000E+00 -0.00000000000E+00 -0.50054179448E+03  0.50054179448E+03  0.00000000000E+00 0. -1.
      99926    2    1    2    0    0  0.00000000000E+00  0.00000000000E+00 -0.38805249266E+03  0.61303109630E+03  0.47457600864E+03 0.  0.
      99925    2    3    3    0    0  0.53980970432E+02  0.88756428995E+00 -0.86962897624E+02  0.28255086198E+03  0.26335852199E+03 0.  0.
         25    1    4    4    0    0  0.43190753439E+02 -0.32962310220E+02 -0.25597808098E+02  0.13876134533E+03  0.12509000000E+03 0.  0.
         25    1    3    3    0    0 -0.53980970432E+02 -0.88756428995E+00 -0.30108959504E+03  0.33048023432E+03  0.12509000000E+03 0.  0.
         25    1    4    4    0    0  0.10790216994E+02  0.33849874510E+02 -0.61365089526E+02  0.14378951665E+03  0.12509000000E+03 0.  0.
<mgrwt>
<rscale>  2 0.47457601E+03</rscale>
<asrwt>0</asrwt>
<pdfrwt beam="1">  1       21 0.16542545E-01 0.47457601E+03</pdfrwt>
<pdfrwt beam="2">  1       21 0.73609087E-01 0.47457601E+03</pdfrwt>
<totfact> 0.49734744E+04</totfact>
</mgrwt>
</event>
<event>
 7    0  0.4748297E-002  0.4532966E+03  0.7546771E-02  0.1026743E+00
         21   -1    0    0  502  501  0.00000000000E+00  0.00000000000E+00  0.42541640709E+03  0.42541640709E+03  0.00000000000E+00 0.  1.
         21   -1    0    0  501  502 -0.00000000000E+00 -0.00000000000E+00 -0.12075101306E+03  0.12075101306E+03  0.00000000000E+00 0.  1.
      99926    2    1    2    0    0 -0.14210854715E-13  0.00000000000E+00  0.30466539403E+03  0.54616742015E+03  0.45329664515E+03 0.  0.
      99925    2    3    3    0    0 -0.10503147694E+03  0.36884293765E+02  0.20037638947E+03  0.34889662442E+03  0.26303249761E+03 0.  0.
         25    1    4    4    0    0 -0.10519360035E+02  0.11616757873E+02  0.10126659150E+03  0.16170354558E+03  0.12509000000E+03 0.  0.
         25    1    3    3    0    0  0.10503147694E+03 -0.36884293765E+02  0.10428900456E+03  0.19727079573E+03  0.12509000000E+03 0.  0.
         25    1    4    4    0    0 -0.94512116902E+02  0.25267535891E+02  0.99109797973E+02  0.18719307884E+03  0.12509000000E+03 0.  0.
<mgrwt>
<rscale>  2 0.45329665E+03</rscale>
<asrwt>0</asrwt>
<pdfrwt beam="1">  1       21 0.62561236E-01 0.45329665E+03</pdfrwt>
<pdfrwt beam="2">  1       21 0.17757502E-01 0.45329665E+03</pdfrwt>
<totfact> 0.62964846E+04</totfact>
</mgrwt>
</event>
<event>
 7    0  0.4748297E-002  0.4499815E+03  0.7546771E-02  0.1027728E+00
         21   -1    0    0  502  501  0.00000000000E+00  0.00000000000E+00  0.10935654362E+03  0.10935654362E+03  0.00000000000E+00 0. -1.
         21   -1    0    0  501  502 -0.00000000000E+00 -0.00000000000E+00 -0.46289723739E+03  0.46289723739E+03  0.00000000000E+00 0. -1.
      99926    2    1    2    0    0  0.00000000000E+00  0.00000000000E+00 -0.35354069378E+03  0.57225378101E+03  0.44998151932E+03 0.  0.
      99925    2    3    3    0    0 -0.96237899161E+02 -0.23327556105E+02 -0.16762554490E+03  0.32726835534E+03  0.26305958450E+03 0.  0.
         25    1    3    3    0    0  0.96237899161E+02  0.23327556105E+02 -0.18591514887E+03  0.24498542567E+03  0.12509000000E+03 0.  0.
         25    1    4    4    0    0 -0.67021550689E+02 -0.12616851414E+02 -0.45141689758E+02  0.14945351602E+03  0.12509000000E+03 0.  0.
         25    1    4    4    0    0 -0.29216348471E+02 -0.10710704690E+02 -0.12248385514E+03  0.17781483932E+03  0.12509000000E+03 0.  0.
<mgrwt>
<rscale>  2 0.44998152E+03</rscale>
<asrwt>0</asrwt>
<pdfrwt beam="1">  1       21 0.16081845E-01 0.44998152E+03</pdfrwt>
<pdfrwt beam="2">  1       21 0.68073122E-01 0.44998152E+03</pdfrwt>
<totfact> 0.62877708E+04</totfact>
</mgrwt>
</event>
<event>
 7    0  0.4748297E-002  0.4582764E+03  0.7546771E-02  0.1025282E+00
         21   -1    0    0  502  501  0.00000000000E+00  0.00000000000E+00  0.58991218436E+03  0.58991218436E+03  0.00000000000E+00 0. -1.
         21   -1    0    0  501  502 -0.00000000000E+00 -0.00000000000E+00 -0.89003624227E+02  0.89003624227E+02  0.00000000000E+00 0. -1.
      99926    2    1    2    0    0  0.00000000000E+00  0.35527136788E-14  0.50090856013E+03  0.67891580858E+03  0.45827643354E+03 0.  0.
      99925    2    3    3    0    0  0.38895337460E+02  0.16013484082E+02  0.15358884233E+03  0.30736800086E+03  0.26289974614E+03 0.  0.
         25    1    4    4    0    0  0.34854791770E+01  0.21655519873E+02  0.36051789336E+02  0.13201647519E+03  0.12509000000E+03 0.  0.
         25    1    3    3    0    0 -0.38895337460E+02 -0.16013484082E+02  0.34731971780E+03  0.37154780772E+03  0.12509000000E+03 0.  0.
         25    1    4    4    0    0  0.35409858283E+02 -0.56420357909E+01  0.11753705299E+03  0.17535152568E+03  0.12509000000E+03 0.  0.
<mgrwt>
<rscale>  2 0.45827643E+03</rscale>
<asrwt>0</asrwt>
<pdfrwt beam="1">  1       21 0.86751790E-01 0.45827643E+03</pdfrwt>
<pdfrwt beam="2">  1       21 0.13088769E-01 0.45827643E+03</pdfrwt>
<totfact> 0.52689653E+04</totfact>
</mgrwt>
</event>
<event>
 7    0  0.4748297E-002  0.4557199E+03  0.7546771E-02  0.1026030E+00
         21   -1    0    0  502  501  0.00000000000E+00  0.00000000000E+00  0.15786315133E+03  0.15786315133E+03  0.00000000000E+00 0. -1.
         21   -1    0    0  501  502 -0.00000000000E+00 -0.00000000000E+00 -0.32889339347E+03  0.32889339347E+03  0.00000000000E+00 0. -1.
      99926    2    1    2    0    0  0.71054273576E-14  0.00000000000E+00 -0.17103024214E+03  0.48675654480E+03  0.45571985932E+03 0.  0.
      99925    2    3    3    0    0 -0.51044878245E+02 -0.82752318378E+02 -0.44402661779E+02  0.28393746778E+03  0.26305011584E+03 0.  0.
         25    1    4    4    0    0  0.13369064485E+02 -0.40856501996E+02 -0.35042015142E+02  0.13683360905E+03  0.12509000000E+03 0.  0.
         25    1    4    4    0    0 -0.64413942730E+02 -0.41895816382E+02 -0.93606466370E+01  0.14710385873E+03  0.12509000000E+03 0.  0.
         25    1    3    3    0    0  0.51044878245E+02  0.82752318378E+02 -0.12662758036E+03  0.20281907701E+03  0.12509000000E+03 0.  0.
<mgrwt>
<rscale>  2 0.45571986E+03</rscale>
<asrwt>0</asrwt>
<pdfrwt beam="1">  1       21 0.23215170E-01 0.45571986E+03</pdfrwt>
<pdfrwt beam="2">  1       21 0.48366675E-01 0.45571986E+03</pdfrwt>
<totfact> 0.65834446E+04</totfact>
</mgrwt>
</event>
<event>
 7    0  0.4748297E-002  0.4475603E+03  0.7546771E-02  0.1028452E+00
         21   -1    0    0  502  501  0.00000000000E+00  0.00000000000E+00  0.27027562982E+03  0.27027562982E+03  0.00000000000E+00 0. -1.
         21   -1    0    0  501  502 -0.00000000000E+00 -0.00000000000E+00 -0.18528325293E+03  0.18528325293E+03  0.00000000000E+00 0. -1.
      99926    2    1    2    0    0  0.00000000000E+00  0.00000000000E+00  0.84992376897E+02  0.45555888275E+03  0.44756026580E+03 0.  0.
      99925    2    3    3    0    0 -0.28694485886E+02  0.46309632865E+02 -0.38797509761E+02  0.27133239238E+03  0.26296019618E+03 0.  0.
         25    1    3    3    0    0  0.28694485886E+02 -0.46309632865E+02  0.12378988666E+03  0.18422649037E+03  0.12509000000E+03 0.  0.
         25    1    4    4    0    0 -0.24708698801E+02  0.31958253365E+02 -0.58405046923E+02  0.14384195271E+03  0.12509000000E+03 0.  0.
         25    1    4    4    0    0 -0.39857870853E+01  0.14351379500E+02  0.19607537162E+02  0.12749043966E+03  0.12509000000E+03 0.  0.
<mgrwt>
<rscale>  2 0.44756027E+03</rscale>
<asrwt>0</asrwt>
<pdfrwt beam="1">  1       21 0.39746416E-01 0.44756027E+03</pdfrwt>
<pdfrwt beam="2">  1       21 0.27247537E-01 0.44756027E+03</pdfrwt>
<totfact> 0.72723511E+04</totfact>
</mgrwt>
</event>
<event>
 7    0  0.4748297E-002  0.4595646E+03  0.7546771E-02  0.1024908E+00
         21   -1    0    0  502  501  0.00000000000E+00  0.00000000000E+00  0.10395063107E+03  0.10395063107E+03  0.00000000000E+00 0. -1.
         21   -1    0    0  501  502 -0.00000000000E+00 -0.00000000000E+00 -0.50793259217E+03  0.50793259217E+03  0.00000000000E+00 0. -1.
      99926    2    1    2    0    0 -0.14210854715E-13  0.00000000000E+00 -0.40398196110E+03  0.61188322323E+03  0.45956463526E+03 0.  0.
      99925    2    3    3    0    0 -0.10036843206E+03 -0.60649265221E+02 -0.24693488593E+03  0.37936774537E+03  0.26304161802E+03 0.  0.
         25    1    4    4    0    0 -0.81953022434E+02 -0.41745895835E+02 -0.16967762670E+03  0.22999352775E+03  0.12509000000E+03 0.  0.
         25    1    4    4    0    0 -0.18415409627E+02 -0.18903369385E+02 -0.77257259236E+02  0.14937421762E+03  0.12509000000E+03 0.  0.
         25    1    3    3    0    0  0.10036843206E+03  0.60649265221E+02 -0.15704707517E+03  0.23251547786E+03  0.12509000000E+03 0.  0.
<mgrwt>
<rscale>  2 0.45956464E+03</rscale>
<asrwt>0</asrwt>
<pdfrwt beam="1">  1       21 0.15286857E-01 0.45956464E+03</pdfrwt>
<pdfrwt beam="2">  1       21 0.74695971E-01 0.45956464E+03</pdfrwt>
<totfact> 0.55909495E+04</totfact>
</mgrwt>
</event>
<event>
 7    0  0.4748297E-002  0.4456673E+03  0.7546771E-02  0.1029022E+00
         21   -1    0    0  502  501  0.00000000000E+00  0.00000000000E+00  0.88991590361E+02  0.88991590361E+02  0.00000000000E+00 0. -1.
         21   -1    0    0  501  502 -0.00000000000E+00 -0.00000000000E+00 -0.55797226052E+03  0.55797226052E+03  0.00000000000E+00 0. -1.
      99926    2    1    2    0    0  0.00000000000E+00 -0.35527136788E-14 -0.46898067016E+03  0.64696385088E+03  0.44566731467E+03 0.  0.
      99925    2    3    3    0    0 -0.85641380187E+02 -0.29454696229E+02 -0.22280592883E+03  0.35635838552E+03  0.26295777585E+03 0.  0.
         25    1    4    4    0    0 -0.28526310433E+02  0.20172529565E+02 -0.83381821293E+02  0.15433961759E+03  0.12509000000E+03 0.  0.
         25    1    4    4    0    0 -0.57115069754E+02 -0.49627225794E+02 -0.13942410754E+03  0.20201876793E+03  0.12509000000E+03 0.  0.
         25    1    3    3    0    0  0.85641380187E+02  0.29454696229E+02 -0.24617474133E+03  0.29060546536E+03  0.12509000000E+03 0.  0.
<mgrwt>
<rscale>  2 0.44566731E+03</rscale>
<asrwt>0</asrwt>
<pdfrwt beam="1">  1       21 0.13086999E-01 0.44566731E+03</pdfrwt>
<pdfrwt beam="2">  1       21 0.82054744E-01 0.44566731E+03</pdfrwt>
<totfact> 0.60187217E+04</totfact>
</mgrwt>
</event>
<event>
 7    0  0.4748297E-002  0.4672069E+03  0.7546771E-02  0.1022712E+00
         21   -1    0    0  502  501  0.00000000000E+00  0.00000000000E+00  0.18787166959E+03  0.18787166959E+03  0.00000000000E+00 0.  1.
         21   -1    0    0  501  502 -0.00000000000E+00 -0.00000000000E+00 -0.29046731470E+03  0.29046731470E+03  0.00000000000E+00 0.  1.
      99926    2    1    2    0    0  0.00000000000E+00  0.00000000000E+00 -0.10259564510E+03  0.47833898429E+03  0.46720693220E+03 0.  0.
      99925    2    3    3    0    0  0.12217963610E+03 -0.20256239060E+02 -0.61654171501E+02  0.29761297327E+03  0.26350344646E+03 0.  0.
         25    1    4    4    0    0  0.44598971331E+02  0.62056468371E+01  0.68323908087E+01  0.13312313082E+03  0.12509000000E+03 0.  0.
         25    1    3    3    0    0 -0.12217963610E+03  0.20256239060E+02 -0.40941473604E+02  0.18072601102E+03  0.12509000000E+03 0.  0.
         25    1    4    4    0    0  0.77580664765E+02 -0.26461885897E+02 -0.68486562310E+02  0.16448984245E+03  0.12509000000E+03 0.  0.
<mgrwt>
<rscale>  2 0.46720693E+03</rscale>
<asrwt>0</asrwt>
<pdfrwt beam="1">  1       21 0.27628187E-01 0.46720693E+03</pdfrwt>
<pdfrwt beam="2">  1       21 0.42715781E-01 0.46720693E+03</pdfrwt>
<totfact> 0.60722116E+04</totfact>
</mgrwt>
</event>
<event>
 7    0  0.4748297E-002  0.4194677E+03  0.7546771E-02  0.1037240E+00
         21   -1    0    0  502  501  0.00000000000E+00  0.00000000000E+00  0.12474158947E+04  0.12474158947E+04  0.00000000000E+00 0.  1.
         21   -1    0    0  501  502 -0.00000000000E+00 -0.00000000000E+00 -0.35263523079E+02  0.35263523079E+02  0.00000000000E+00 0.  1.
      99926    2    1    2    0    0  0.00000000000E+00  0.00000000000E+00  0.12121523716E+04  0.12826794178E+04  0.41946765879E+03 0.  0.
      99925    2    3    3    0    0  0.73140536022E+02  0.83159000326E+01  0.83689277979E+03  0.88032887215E+03  0.26300324348E+03 0.  0.
         25    1    4    4    0    0  0.77536112239E+02  0.63966782508E+01  0.48178350804E+03  0.50380117399E+03  0.12509000000E+03 0.  0.
         25    1    4    4    0    0 -0.43955762170E+01  0.19192217819E+01  0.35510927175E+03  0.37652769817E+03  0.12509000000E+03 0.  0.
         25    1    3    3    0    0 -0.73140536022E+02 -0.83159000326E+01  0.37525959181E+03  0.40235054560E+03  0.12509000000E+03 0.  0.
<mgrwt>
<rscale>  2 0.41946766E+03</rscale>
<asrwt>0</asrwt>
<pdfrwt beam="1">  1       21 0.18344349E+00 0.41946766E+03</pdfrwt>
<pdfrwt beam="2">  1       21 0.51858130E-02 0.41946766E+03</pdfrwt>
<totfact> 0.39449617E+04</totfact>
</mgrwt>
</event>
<event>
 7    0  0.4748297E-002  0.4549270E+03  0.7546771E-02  0.1026263E+00
         21   -1    0    0  502  501  0.00000000000E+00  0.00000000000E+00  0.89639781490E+03  0.89639781490E+03  0.00000000000E+00 0. -1.
         21   -1    0    0  501  502 -0.00000000000E+00 -0.00000000000E+00 -0.57719516439E+02  0.57719516439E+02  0.00000000000E+00 0. -1.
      99926    2    1    2    0    0  0.00000000000E+00  0.00000000000E+00  0.83867829847E+03  0.95411733134E+03  0.45492702014E+03 0.  0.
      99925    2    3    3    0    0 -0.33147414786E+02 -0.98712583418E+02  0.62063109055E+03  0.68202356403E+03  0.26292635109E+03 0.  0.
         25    1    4    4    0    0 -0.31545808798E+02 -0.31232053479E+02  0.38039059635E+03  0.40288347336E+03  0.12509000000E+03 0.  0.
         25    1    3    3    0    0  0.33147414786E+02  0.98712583418E+02  0.21804720791E+03  0.27209376731E+03  0.12509000000E+03 0.  0.
         25    1    4    4    0    0 -0.16016059881E+01 -0.67480529940E+02  0.24024049420E+03  0.27914009066E+03  0.12509000000E+03 0.  0.
<mgrwt>
<rscale>  2 0.45492702E+03</rscale>
<asrwt>0</asrwt>
<pdfrwt beam="1">  1       21 0.13182320E+00 0.45492702E+03</pdfrwt>
<pdfrwt beam="2">  1       21 0.84881647E-02 0.45492702E+03</pdfrwt>
<totfact> 0.40997936E+04</totfact>
</mgrwt>
</event>
<event>
 7    0  0.4748297E-002  0.4601748E+03  0.7546771E-02  0.1024731E+00
         21   -1    0    0  502  501  0.00000000000E+00  0.00000000000E+00  0.41320108775E+03  0.41320108775E+03  0.00000000000E+00 0. -1.
         21   -1    0    0  501  502 -0.00000000000E+00 -0.00000000000E+00 -0.12812214217E+03  0.12812214217E+03  0.00000000000E+00 0. -1.
      99926    2    1    2    0    0  0.00000000000E+00  0.00000000000E+00  0.28507894558E+03  0.54132322992E+03  0.46017478640E+03 0.  0.
      99925    2    3    3    0    0  0.63053036167E+02  0.62489832351E+02  0.87177480452E+02  0.29093720292E+03  0.26299026299E+03 0.  0.
         25    1    4    4    0    0  0.23943178625E+02  0.94081789166E+01  0.77097742182E+02  0.14917559982E+03  0.12509000000E+03 0.  0.
         25    1    4    4    0    0  0.39109857542E+02  0.53081653434E+02  0.10079738269E+02  0.14176160309E+03  0.12509000000E+03 0.  0.
         25    1    3    3    0    0 -0.63053036167E+02 -0.62489832351E+02  0.19790146513E+03  0.25038602700E+03  0.12509000000E+03 0.  0.
<mgrwt>
<rscale>  2 0.46017479E+03</rscale>
<asrwt>0</asrwt>
<pdfrwt beam="1">  1       21 0.60764866E-01 0.46017479E+03</pdfrwt>
<pdfrwt beam="2">  1       21 0.18841492E-01 0.46017479E+03</pdfrwt>
<totfact> 0.59949972E+04</totfact>
</mgrwt>
</event>
<event>
 7    0  0.4748297E-002  0.4547171E+03  0.7546771E-02  0.1026325E+00
         21   -1    0    0  502  501  0.00000000000E+00  0.00000000000E+00  0.87387729898E+02  0.87387729898E+02  0.00000000000E+00 0.  1.
         21   -1    0    0  501  502 -0.00000000000E+00 -0.00000000000E+00 -0.59152373521E+03  0.59152373521E+03  0.00000000000E+00 0.  1.
      99926    2    1    2    0    0  0.00000000000E+00  0.00000000000E+00 -0.50413600531E+03  0.67891146510E+03  0.45471712702E+03 0.  0.
      99925    2    3    3    0    0  0.90545204974E+02 -0.46496261147E+02 -0.39347227558E+03  0.48332438572E+03  0.26157540736E+03 0.  0.
         25    1    4    4    0    0  0.64736592561E+02  0.67672677042E+01 -0.17547482249E+03  0.22511229144E+03  0.12509000000E+03 0.  0.
         25    1    3    3    0    0 -0.90545204974E+02  0.46496261147E+02 -0.11066372973E+03  0.19558707939E+03  0.12509000000E+03 0.  0.
         25    1    4    4    0    0  0.25808612413E+02 -0.53263528851E+02 -0.21799745308E+03  0.25821209428E+03  0.12509000000E+03 0.  0.
<mgrwt>
<rscale>  2 0.45471713E+03</rscale>
<asrwt>0</asrwt>
<pdfrwt beam="1">  1       21 0.12851137E-01 0.45471713E+03</pdfrwt>
<pdfrwt beam="2">  1       21 0.86988786E-01 0.45471713E+03</pdfrwt>
<totfact> 0.54184018E+04</totfact>
</mgrwt>
</event>
<event>
 7    0  0.4748297E-002  0.4536806E+03  0.7546771E-02  0.1026630E+00
         21   -1    0    0  502  501  0.00000000000E+00  0.00000000000E+00  0.13084919219E+03  0.13084919219E+03  0.00000000000E+00 0. -1.
         21   -1    0    0  501  502 -0.00000000000E+00 -0.00000000000E+00 -0.39325065659E+03  0.39325065659E+03  0.00000000000E+00 0. -1.
      99926    2    1    2    0    0  0.00000000000E+00 -0.17763568394E-14 -0.26240146441E+03  0.52409984878E+03  0.45368063984E+03 0.  0.
      99925    2    3    3    0    0 -0.74640712471E+02  0.11824489237E+02 -0.69926316935E+02  0.28242807757E+03  0.26299215710E+03 0.  0.
         25    1    4    4    0    0 -0.39854056069E+02  0.44406512428E+02 -0.48662262053E+02  0.14688705858E+03  0.12509000000E+03 0.  0.
         25    1    3    3    0    0  0.74640712471E+02 -0.11824489237E+02 -0.19247514747E+03  0.24167177121E+03  0.12509000000E+03 0.  0.
         25    1    4    4    0    0 -0.34786656402E+02 -0.32582023191E+02 -0.21264054882E+02  0.13554101899E+03  0.12509000000E+03 0.  0.
<mgrwt>
<rscale>  2 0.45368064E+03</rscale>
<asrwt>0</asrwt>
<pdfrwt beam="1">  1       21 0.19242529E-01 0.45368064E+03</pdfrwt>
<pdfrwt beam="2">  1       21 0.57830977E-01 0.45368064E+03</pdfrwt>
<totfact> 0.64277332E+04</totfact>
</mgrwt>
</event>
<event>
 7    0  0.4748297E-002  0.4541451E+03  0.7546771E-02  0.1026493E+00
         21   -1    0    0  502  501  0.00000000000E+00  0.00000000000E+00  0.12640007190E+03  0.12640007190E+03  0.00000000000E+00 0. -1.
         21   -1    0    0  501  502 -0.00000000000E+00 -0.00000000000E+00 -0.40792658495E+03  0.40792658495E+03  0.00000000000E+00 0. -1.
      99926    2    1    2    0    0  0.16653345369E-14  0.00000000000E+00 -0.28152651305E+03  0.53432665685E+03  0.45414512953E+03 0.  0.
      99925    2    3    3    0    0  0.91467645247E+00 -0.11174106283E+03 -0.19122082349E+03  0.34382855340E+03  0.26299385742E+03 0.  0.
         25    1    4    4    0    0 -0.27485160679E+02 -0.84131059308E+02 -0.86595258484E+02  0.17601055676E+03  0.12509000000E+03 0.  0.
         25    1    3    3    0    0 -0.91467645247E+00  0.11174106283E+03 -0.90305689555E+02  0.19049810346E+03  0.12509000000E+03 0.  0.
         25    1    4    4    0    0  0.28399837131E+02 -0.27610003518E+02 -0.10462556501E+03  0.16781799664E+03  0.12509000000E+03 0.  0.
<mgrwt>
<rscale>  2 0.45414513E+03</rscale>
<asrwt>0</asrwt>
<pdfrwt beam="1">  1       21 0.18588246E-01 0.45414513E+03</pdfrwt>
<pdfrwt beam="2">  1       21 0.59989205E-01 0.45414513E+03</pdfrwt>
<totfact> 0.63341756E+04</totfact>
</mgrwt>
</event>
<event>
 7    0  0.4748297E-002  0.4491178E+03  0.7546771E-02  0.1027985E+00
         21   -1    0    0  502  501  0.00000000000E+00  0.00000000000E+00  0.16632399860E+04  0.16632399860E+04  0.00000000000E+00 0. -1.
         21   -1    0    0  501  502 -0.00000000000E+00 -0.00000000000E+00 -0.30318348860E+02  0.30318348860E+02  0.00000000000E+00 0. -1.
      99926    2    1    2    0    0  0.00000000000E+00  0.00000000000E+00  0.16329216371E+04  0.16935583348E+04  0.44911775797E+03 0.  0.
      99925    2    3    3    0    0 -0.48629878092E+02 -0.93502796687E+02  0.11113441123E+04  0.11469339112E+04  0.26318058945E+03 0.  0.
         25    1    4    4    0    0 -0.47714755232E+02 -0.77850411873E+02  0.68810402525E+03  0.70531697992E+03  0.12509000000E+03 0.  0.
         25    1    3    3    0    0  0.48629878092E+02  0.93502796687E+02  0.52157752481E+03  0.54662442364E+03  0.12509000000E+03 0.  0.
         25    1    4    4    0    0 -0.91512286055E+00 -0.15652384814E+02  0.42324008703E+03  0.44161693126E+03  0.12509000000E+03 0.  0.
<mgrwt>
<rscale>  2 0.44911776E+03</rscale>
<asrwt>0</asrwt>
<pdfrwt beam="1">  1       21 0.24459405E+00 0.44911776E+03</pdfrwt>
<pdfrwt beam="2">  1       21 0.44585819E-02 0.44911776E+03</pdfrwt>
<totfact> 0.20307717E+04</totfact>
</mgrwt>
</event>
<event>
 7    0  0.4748297E-002  0.5063068E+03  0.7546771E-02  0.1012146E+00
         21   -1    0    0  502  501  0.00000000000E+00  0.00000000000E+00  0.37727792206E+02  0.37727792206E+02  0.00000000000E+00 0.  1.
         21   -1    0    0  501  502 -0.00000000000E+00 -0.00000000000E+00 -0.16986584890E+04  0.16986584890E+04  0.00000000000E+00 0.  1.
      99926    2    1    2    0    0  0.00000000000E+00  0.00000000000E+00 -0.16609306968E+04  0.17363862812E+04  0.50630676275E+03 0.  0.
      99925    2    3    3    0    0 -0.13825749630E+02 -0.14230233353E+03 -0.78620120483E+03  0.84126601125E+03  0.26301152393E+03 0.  0.
         25    1    4    4    0    0  0.30815129940E+02 -0.80859482802E+02 -0.43351978545E+03  0.45942871119E+03  0.12509000000E+03 0.  0.
         25    1    3    3    0    0  0.13825749630E+02  0.14230233353E+03 -0.87472949193E+03  0.89512026993E+03  0.12509000000E+03 0.  0.
         25    1    4    4    0    0 -0.44640879569E+02 -0.61442850731E+02 -0.35268141938E+03  0.38183730005E+03  0.12509000000E+03 0.  0.
<mgrwt>
<rscale>  2 0.50630676E+03</rscale>
<asrwt>0</asrwt>
<pdfrwt beam="1">  1       21 0.55482035E-02 0.50630676E+03</pdfrwt>
<pdfrwt beam="2">  1       21 0.24980277E+00 0.50630676E+03</pdfrwt>
<totfact> 0.12669688E+04</totfact>
</mgrwt>
</event>
<event>
 7    0  0.4748297E-002  0.4609002E+03  0.7546771E-02  0.1024520E+00
         21   -1    0    0  502  501  0.00000000000E+00  0.00000000000E+00  0.10216655121E+03  0.10216655121E+03  0.00000000000E+00 0.  1.
         21   -1    0    0  501  502 -0.00000000000E+00 -0.00000000000E+00 -0.51981041910E+03  0.51981041910E+03  0.00000000000E+00 0.  1.
      99926    2    1    2    0    0  0.71054273576E-14  0.14210854715E-13 -0.41764386788E+03  0.62197697031E+03  0.46090015319E+03 0.  0.
      99925    2    3    3    0    0 -0.62232306080E+02 -0.94652922184E+02 -0.30752042543E+03  0.42046588804E+03  0.26342117483E+03 0.  0.
         25    1    4    4    0    0 -0.28372760853E+02 -0.77227855599E+01 -0.11324166037E+03  0.17127707587E+03  0.12509000000E+03 0.  0.
         25    1    3    3    0    0  0.62232306080E+02  0.94652922184E+02 -0.11012344245E+03  0.20151108227E+03  0.12509000000E+03 0.  0.
         25    1    4    4    0    0 -0.33859545227E+02 -0.86930136625E+02 -0.19427876507E+03  0.24918881217E+03  0.12509000000E+03 0.  0.
<mgrwt>
<rscale>  2 0.46090015E+03</rscale>
<asrwt>0</asrwt>
<pdfrwt beam="1">  1       21 0.15024493E-01 0.46090015E+03</pdfrwt>
<pdfrwt beam="2">  1       21 0.76442710E-01 0.46090015E+03</pdfrwt>
<totfact> 0.54749805E+04</totfact>
</mgrwt>
</event>
<event>
 7    0  0.4748297E-002  0.4564135E+03  0.7546771E-02  0.1025827E+00
         21   -1    0    0  502  501  0.00000000000E+00  0.00000000000E+00  0.89689338209E+02  0.89689338209E+02  0.00000000000E+00 0.  1.
         21   -1    0    0  501  502 -0.00000000000E+00 -0.00000000000E+00 -0.58065227410E+03  0.58065227410E+03  0.00000000000E+00 0.  1.
      99926    2    1    2    0    0 -0.35527136788E-14  0.14210854715E-13 -0.49096293589E+03  0.67034161231E+03  0.45641348882E+03 0.  0.
      99925    2    3    3    0    0  0.25968358142E+02 -0.10597131885E+03 -0.25815067570E+03  0.38441621532E+03  0.26311552443E+03 0.  0.
         25    1    4    4    0    0 -0.21406533515E+02 -0.51871979324E+02 -0.15568914733E+03  0.20745014007E+03  0.12509000000E+03 0.  0.
         25    1    4    4    0    0  0.47374891657E+02 -0.54099339530E+02 -0.10246152836E+03  0.17696607526E+03  0.12509000000E+03 0.  0.
         25    1    3    3    0    0 -0.25968358142E+02  0.10597131885E+03 -0.23281226020E+03  0.28592539699E+03  0.12509000000E+03 0.  0.
<mgrwt>
<rscale>  2 0.45641349E+03</rscale>
<asrwt>0</asrwt>
<pdfrwt beam="1">  1       21 0.13189609E-01 0.45641349E+03</pdfrwt>
<pdfrwt beam="2">  1       21 0.85390039E-01 0.45641349E+03</pdfrwt>
<totfact> 0.53939538E+04</totfact>
</mgrwt>
</event>
<event>
 7    0  0.4748297E-002  0.4588190E+03  0.7546771E-02  0.1025124E+00
         21   -1    0    0  502  501  0.00000000000E+00  0.00000000000E+00  0.52126830902E+03  0.52126830902E+03  0.00000000000E+00 0. -1.
         21   -1    0    0  501  502 -0.00000000000E+00 -0.00000000000E+00 -0.10096284080E+03  0.10096284080E+03  0.00000000000E+00 0. -1.
      99926    2    1    2    0    0  0.00000000000E+00  0.00000000000E+00  0.42030546822E+03  0.62223114982E+03  0.45881904623E+03 0.  0.
      99925    2    3    3    0    0 -0.35975603342E+02 -0.72113869232E+02  0.14990692335E+03  0.31359295494E+03  0.26338906877E+03 0.  0.
         25    1    3    3    0    0  0.35975603342E+02  0.72113869232E+02  0.27039854487E+03  0.30863819488E+03  0.12509000000E+03 0.  0.
         25    1    4    4    0    0 -0.39796666981E+02 -0.19563922806E+02  0.10925320961E+03  0.17190198861E+03  0.12509000000E+03 0.  0.
         25    1    4    4    0    0  0.38210636388E+01 -0.52549946426E+02  0.40653713739E+02  0.14169096632E+03  0.12509000000E+03 0.  0.
<mgrwt>
<rscale>  2 0.45881905E+03</rscale>
<asrwt>0</asrwt>
<pdfrwt beam="1">  1       21 0.76657103E-01 0.45881905E+03</pdfrwt>
<pdfrwt beam="2">  1       21 0.14847477E-01 0.45881905E+03</pdfrwt>
<totfact> 0.55633575E+04</totfact>
</mgrwt>
</event>
<event>
 7    0  0.4748297E-002  0.4582758E+03  0.7546771E-02  0.1025282E+00
         21   -1    0    0  502  501  0.00000000000E+00  0.00000000000E+00  0.27359525097E+03  0.27359525097E+03  0.00000000000E+00 0.  1.
         21   -1    0    0  501  502 -0.00000000000E+00 -0.00000000000E+00 -0.19190453317E+03  0.19190453317E+03  0.00000000000E+00 0.  1.
      99926    2    1    2    0    0  0.00000000000E+00  0.00000000000E+00  0.81690717800E+02  0.46549978413E+03  0.45827576376E+03 0.  0.
      99925    2    3    3    0    0 -0.71632463958E+02  0.19514659378E+02  0.14202115578E+03  0.30802184387E+03  0.26305021534E+03 0.  0.
         25    1    4    4    0    0 -0.28455956533E+02  0.11714138097E+02  0.11510965172E+03  0.17275619385E+03  0.12509000000E+03 0.  0.
         25    1    3    3    0    0  0.71632463958E+02 -0.19514659378E+02 -0.60330437976E+02  0.15747794026E+03  0.12509000000E+03 0.  0.
         25    1    4    4    0    0 -0.43176507426E+02  0.78005212816E+01  0.26911504059E+02  0.13526565002E+03  0.12509000000E+03 0.  0.
<mgrwt>
<rscale>  2 0.45827576E+03</rscale>
<asrwt>0</asrwt>
<pdfrwt beam="1">  1       21 0.40234596E-01 0.45827576E+03</pdfrwt>
<pdfrwt beam="2">  1       21 0.28221255E-01 0.45827576E+03</pdfrwt>
<totfact> 0.66036612E+04</totfact>
</mgrwt>
</event>
<event>
 7    0  0.4748297E-002  0.4584009E+03  0.7546771E-02  0.1025246E+00
         21   -1    0    0  502  501  0.00000000000E+00  0.00000000000E+00  0.30884775523E+03  0.30884775523E+03  0.00000000000E+00 0. -1.
         21   -1    0    0  501  502 -0.00000000000E+00 -0.00000000000E+00 -0.17009297999E+03  0.17009297999E+03  0.00000000000E+00 0. -1.
      99926    2    1    2    0    0  0.00000000000E+00  0.00000000000E+00  0.13875477524E+03  0.47894073521E+03  0.45840085100E+03 0.  0.
      99925    2    3    3    0    0  0.87362371191E+01 -0.10455556164E+03  0.13958294506E+03  0.31567291452E+03  0.26297871226E+03 0.  0.
         25    1    4    4    0    0  0.27971406520E+01 -0.42276286449E+02  0.24003749550E+02  0.13423411073E+03  0.12509000000E+03 0.  0.
         25    1    4    4    0    0  0.59390964672E+01 -0.62279275191E+02  0.11557919551E+03  0.18143880379E+03  0.12509000000E+03 0.  0.
         25    1    3    3    0    0 -0.87362371191E+01  0.10455556164E+03 -0.82816981926E+00  0.16326782069E+03  0.12509000000E+03 0.  0.
<mgrwt>
<rscale>  2 0.45840085E+03</rscale>
<asrwt>0</asrwt>
<pdfrwt beam="1">  1       21 0.45418788E-01 0.45840085E+03</pdfrwt>
<pdfrwt beam="2">  1       21 0.25013674E-01 0.45840085E+03</pdfrwt>
<totfact> 0.65004939E+04</totfact>
</mgrwt>
</event>
<event>
 7    0  0.4748297E-002  0.4468876E+03  0.7546771E-02  0.1028654E+00
         21   -1    0    0  502  501  0.00000000000E+00  0.00000000000E+00  0.54470451791E+03  0.54470451791E+03  0.00000000000E+00 0.  1.
         21   -1    0    0  501  502 -0.00000000000E+00 -0.00000000000E+00 -0.91659094297E+02  0.91659094297E+02  0.00000000000E+00 0.  1.
      99926    2    1    2    0    0  0.00000000000E+00  0.00000000000E+00  0.45304542362E+03  0.63636361221E+03  0.44688755978E+03 0.  0.
      99925    2    3    3    0    0  0.35390379017E+02  0.76063724515E+02  0.19880404439E+03  0.34085666453E+03  0.26385990331E+03 0.  0.
         25    1    4    4    0    0  0.44124829348E+02  0.51281244645E+01  0.91670628244E+02  0.16132052073E+03  0.12509000000E+03 0.  0.
         25    1    4    4    0    0 -0.87344503305E+01  0.70935600051E+02  0.10713341614E+03  0.17953614380E+03  0.12509000000E+03 0.  0.
         25    1    3    3    0    0 -0.35390379017E+02 -0.76063724515E+02  0.25424137923E+03  0.29550694768E+03  0.12509000000E+03 0.  0.
<mgrwt>
<rscale>  2 0.44688756E+03</rscale>
<asrwt>0</asrwt>
<pdfrwt beam="1">  1       21 0.80103604E-01 0.44688756E+03</pdfrwt>
<pdfrwt beam="2">  1       21 0.13479279E-01 0.44688756E+03</pdfrwt>
<totfact> 0.60260373E+04</totfact>
</mgrwt>
</event>
<event>
 7    0  0.4748297E-002  0.4535156E+03  0.7546771E-02  0.1026679E+00
         21   -1    0    0  502  501  0.00000000000E+00  0.00000000000E+00  0.18405766129E+04  0.18405766129E+04  0.00000000000E+00 0. -1.
         21   -1    0    0  501  502 -0.00000000000E+00 -0.00000000000E+00 -0.27936404083E+02  0.27936404083E+02  0.00000000000E+00 0. -1.
      99926    2    1    2    0    0  0.00000000000E+00 -0.35527136788E-14  0.18126402088E+04  0.18685130169E+04  0.45351556534E+03 0.  0.
      99925    2    3    3    0    0 -0.22675346403E+02 -0.18844945162E+02  0.15863043719E+04  0.16082348533E+04  0.26303703143E+03 0.  0.
         25    1    3    3    0    0  0.22675346403E+02  0.18844945162E+02  0.22633583688E+03  0.26027816361E+03  0.12509000000E+03 0.  0.
         25    1    4    4    0    0  0.28737832193E+02 -0.35875847735E+01  0.80005802471E+03  0.81029567737E+03  0.12509000000E+03 0.  0.
         25    1    4    4    0    0 -0.51413178596E+02 -0.15257360389E+02  0.78624634719E+03  0.79793917597E+03  0.12509000000E+03 0.  0.
<mgrwt>
<rscale>  2 0.45351557E+03</rscale>
<asrwt>0</asrwt>
<pdfrwt beam="1">  1       21 0.27067295E+00 0.45351557E+03</pdfrwt>
<pdfrwt beam="2">  1       21 0.41082960E-02 0.45351557E+03</pdfrwt>
<totfact> 0.16163105E+04</totfact>
</mgrwt>
</event>
<event>
 7    0  0.4748297E-002  0.4567342E+03  0.7546771E-02  0.1025733E+00
         21   -1    0    0  502  501  0.00000000000E+00  0.00000000000E+00  0.41100206273E+03  0.41100206273E+03  0.00000000000E+00 0.  1.
         21   -1    0    0  501  502 -0.00000000000E+00 -0.00000000000E+00 -0.12688876015E+03  0.12688876015E+03  0.00000000000E+00 0.  1.
      99926    2    1    2    0    0  0.00000000000E+00  0.00000000000E+00  0.28411330257E+03  0.53789082288E+03  0.45673424290E+03 0.  0.
      99925    2    3    3    0    0  0.38559522972E+02 -0.10677617121E+03  0.19753449903E+03  0.34807147489E+03  0.26314613007E+03 0.  0.
         25    1    4    4    0    0  0.26867427060E+02 -0.43135250218E+02  0.49656995731E+02  0.14386046633E+03  0.12509000000E+03 0.  0.
         25    1    3    3    0    0 -0.38559522972E+02  0.10677617121E+03  0.86578803539E+02  0.18981934799E+03  0.12509000000E+03 0.  0.
         25    1    4    4    0    0  0.11692095913E+02 -0.63640920990E+02  0.14787750330E+03  0.20421100855E+03  0.12509000000E+03 0.  0.
<mgrwt>
<rscale>  2 0.45673424E+03</rscale>
<asrwt>0</asrwt>
<pdfrwt beam="1">  1       21 0.60441479E-01 0.45673424E+03</pdfrwt>
<pdfrwt beam="2">  1       21 0.18660112E-01 0.45673424E+03</pdfrwt>
<totfact> 0.61820956E+04</totfact>
</mgrwt>
</event>
<event>
 7    0  0.4748297E-002  0.4289687E+03  0.7546771E-02  0.1034186E+00
         21   -1    0    0  502  501  0.00000000000E+00  0.00000000000E+00  0.72518187079E+02  0.72518187079E+02  0.00000000000E+00 0.  1.
         21   -1    0    0  501  502 -0.00000000000E+00 -0.00000000000E+00 -0.63437227837E+03  0.63437227837E+03  0.00000000000E+00 0.  1.
      99926    2    1    2    0    0 -0.71054273576E-14 -0.71054273576E-14 -0.56185409129E+03  0.70689046545E+03  0.42896865881E+03 0.  0.
      99925    2    3    3    0    0 -0.56468184497E+02 -0.61398373966E+02 -0.32463030234E+03  0.42603276067E+03  0.26298415121E+03 0.  0.
         25    1    4    4    0    0  0.20364467097E+00 -0.28251559058E+02 -0.20033244710E+03  0.23786296374E+03  0.12509000000E+03 0.  0.
         25    1    4    4    0    0 -0.56671829168E+02 -0.33146814908E+02 -0.12429785524E+03  0.18816979693E+03  0.12509000000E+03 0.  0.
         25    1    3    3    0    0  0.56468184497E+02  0.61398373966E+02 -0.23722378896E+03  0.28085770478E+03  0.12509000000E+03 0.  0.
<mgrwt>
<rscale>  2 0.42896866E+03</rscale>
<asrwt>0</asrwt>
<pdfrwt beam="1">  1       21 0.10664439E-01 0.42896866E+03</pdfrwt>
<pdfrwt beam="2">  1       21 0.93290042E-01 0.42896866E+03</pdfrwt>
<totfact> 0.64821497E+04</totfact>
</mgrwt>
</event>
<event>
 7    0  0.4748297E-002  0.4572295E+03  0.7546771E-02  0.1025588E+00
         21   -1    0    0  502  501  0.00000000000E+00  0.00000000000E+00  0.77082400485E+03  0.77082400485E+03  0.00000000000E+00 0.  1.
         21   -1    0    0  501  502 -0.00000000000E+00 -0.00000000000E+00 -0.67803676528E+02  0.67803676528E+02  0.00000000000E+00 0.  1.
      99926    2    1    2    0    0  0.00000000000E+00  0.00000000000E+00  0.70302032833E+03  0.83862768138E+03  0.45722948936E+03 0.  0.
      99925    2    3    3    0    0  0.25663099903E+02 -0.70654897974E+02  0.28159349675E+03  0.39264697352E+03  0.26310841702E+03 0.  0.
         25    1    3    3    0    0 -0.25663099903E+02  0.70654897974E+02  0.42142683158E+03  0.44598070786E+03  0.12509000000E+03 0.  0.
         25    1    4    4    0    0  0.15989910042E+01 -0.67207826932E+02  0.18238199289E+03  0.23114962298E+03  0.12509000000E+03 0.  0.
         25    1    4    4    0    0  0.24064108899E+02 -0.34470710426E+01  0.99211503857E+02  0.16149735055E+03  0.12509000000E+03 0.  0.
<mgrwt>
<rscale>  2 0.45722949E+03</rscale>
<asrwt>0</asrwt>
<pdfrwt beam="1">  1       21 0.11335647E+00 0.45722949E+03</pdfrwt>
<pdfrwt beam="2">  1       21 0.99711294E-02 0.45722949E+03</pdfrwt>
<totfact> 0.45157400E+04</totfact>
</mgrwt>
</event>
<event>
 7    0  0.4748297E-002  0.4535830E+03  0.7546771E-02  0.1026659E+00
         21   -1    0    0  502  501  0.00000000000E+00  0.00000000000E+00  0.11301782419E+04  0.11301782419E+04  0.00000000000E+00 0.  1.
         21   -1    0    0  501  502 -0.00000000000E+00 -0.00000000000E+00 -0.45509980623E+02  0.45509980623E+02  0.00000000000E+00 0.  1.
      99926    2    1    2    0    0  0.00000000000E+00  0.00000000000E+00  0.10846682613E+04  0.11756882225E+04  0.45358302388E+03 0.  0.
      99925    2    3    3    0    0  0.67188736994E+02 -0.88835682474E+02  0.67716889391E+03  0.73510979890E+03  0.26348168949E+03 0.  0.
         25    1    3    3    0    0 -0.67188736994E+02  0.88835682474E+02  0.40749936735E+03  0.44057842361E+03  0.12509000000E+03 0.  0.
         25    1    4    4    0    0 -0.17726810978E+01 -0.18181253737E+02  0.28343684824E+03  0.31035085859E+03  0.12509000000E+03 0.  0.
         25    1    4    4    0    0  0.68961418092E+02 -0.70654428737E+02  0.39373204566E+03  0.42475894030E+03  0.12509000000E+03 0.  0.
<mgrwt>
<rscale>  2 0.45358302E+03</rscale>
<asrwt>0</asrwt>
<pdfrwt beam="1">  1       21 0.16620266E+00 0.45358302E+03</pdfrwt>
<pdfrwt beam="2">  1       21 0.66926449E-02 0.45358302E+03</pdfrwt>
<totfact> 0.33302339E+04</totfact>
</mgrwt>
</event>
<event>
 7    0  0.4748297E-002  0.4480329E+03  0.7546771E-02  0.1028310E+00
         21   -1    0    0  502  501  0.00000000000E+00  0.00000000000E+00  0.21846581124E+03  0.21846581124E+03  0.00000000000E+00 0. -1.
         21   -1    0    0  501  502 -0.00000000000E+00 -0.00000000000E+00 -0.22970816139E+03  0.22970816139E+03  0.00000000000E+00 0. -1.
      99926    2    1    2    0    0 -0.35527136788E-14  0.14210854715E-13 -0.11242350142E+02  0.44817397263E+03  0.44803294444E+03 0.  0.
      99925    2    3    3    0    0  0.26821549029E+02  0.72745191232E+02 -0.80266845372E+02  0.28562198900E+03  0.26291804007E+03 0.  0.
         25    1    4    4    0    0  0.43812335611E+02  0.55520129049E+02 -0.21445657790E+02  0.14529084561E+03  0.12509000000E+03 0.  0.
         25    1    3    3    0    0 -0.26821549029E+02 -0.72745191232E+02  0.69024495230E+02  0.16255198363E+03  0.12509000000E+03 0.  0.
         25    1    4    4    0    0 -0.16990786582E+02  0.17225062183E+02 -0.58821187582E+02  0.14033114339E+03  0.12509000000E+03 0.  0.
<mgrwt>
<rscale>  2 0.44803294E+03</rscale>
<asrwt>0</asrwt>
<pdfrwt beam="1">  1       21 0.32127325E-01 0.44803294E+03</pdfrwt>
<pdfrwt beam="2">  1       21 0.33780612E-01 0.44803294E+03</pdfrwt>
<totfact> 0.73024554E+04</totfact>
</mgrwt>
</event>
<event>
 7    0  0.4748297E-002  0.4517920E+03  0.7546771E-02  0.1027189E+00
         21   -1    0    0  502  501  0.00000000000E+00  0.00000000000E+00  0.27513191780E+03  0.27513191780E+03  0.00000000000E+00 0. -1.
         21   -1    0    0  501  502 -0.00000000000E+00 -0.00000000000E+00 -0.18547101918E+03  0.18547101918E+03  0.00000000000E+00 0. -1.
      99926    2    1    2    0    0  0.00000000000E+00  0.00000000000E+00  0.89660898626E+02  0.46060293698E+03  0.45179197515E+03 0.  0.
      99925    2    3    3    0    0 -0.34116046145E+02  0.10447191707E+03  0.61494215519E+02  0.29172678059E+03  0.26314385782E+03 0.  0.
         25    1    4    4    0    0 -0.37112682831E+02  0.67355068805E+02 -0.14064558817E+01  0.14684530207E+03  0.12509000000E+03 0.  0.
         25    1    3    3    0    0  0.34116046145E+02 -0.10447191707E+03  0.28166683107E+02  0.16887615639E+03  0.12509000000E+03 0.  0.
         25    1    4    4    0    0  0.29966366868E+01  0.37116848262E+02  0.62900671401E+02  0.14488147852E+03  0.12509000000E+03 0.  0.
<mgrwt>
<rscale>  2 0.45179198E+03</rscale>
<asrwt>0</asrwt>
<pdfrwt beam="1">  1       21 0.40460576E-01 0.45179198E+03</pdfrwt>
<pdfrwt beam="2">  1       21 0.27275150E-01 0.45179198E+03</pdfrwt>
<totfact> 0.69903578E+04</totfact>
</mgrwt>
</event>
<event>
 7    0  0.4748297E-002  0.4624707E+03  0.7546771E-02  0.1024067E+00
         21   -1    0    0  502  501  0.00000000000E+00  0.00000000000E+00  0.51180608531E+03  0.51180608531E+03  0.00000000000E+00 0.  1.
         21   -1    0    0  501  502 -0.00000000000E+00 -0.00000000000E+00 -0.10447274799E+03  0.10447274799E+03  0.00000000000E+00 0.  1.
      99926    2    1    2    0    0 -0.14210854715E-13 -0.14210854715E-13  0.40733333732E+03  0.61627883330E+03  0.46247070467E+03 0.  0.
      99925    2    3    3    0    0 -0.85679221371E+02 -0.80573001967E+02  0.22409945589E+03  0.36517108546E+03  0.26324212791E+03 0.  0.
         25    1    4    4    0    0 -0.68718397618E+02 -0.20128682017E+02  0.14479568204E+03  0.20430535883E+03  0.12509000000E+03 0.  0.
         25    1    3    3    0    0  0.85679221371E+02  0.80573001967E+02  0.18323388142E+03  0.25110774783E+03  0.12509000000E+03 0.  0.
         25    1    4    4    0    0 -0.16960823753E+02 -0.60444319951E+02  0.79303773854E+02  0.16086572663E+03  0.12509000000E+03 0.  0.
<mgrwt>
<rscale>  2 0.46247070E+03</rscale>
<asrwt>0</asrwt>
<pdfrwt beam="1">  1       21 0.75265600E-01 0.46247070E+03</pdfrwt>
<pdfrwt beam="2">  1       21 0.15363640E-01 0.46247070E+03</pdfrwt>
<totfact> 0.54405490E+04</totfact>
</mgrwt>
</event>
<event>
 7    0  0.4748297E-002  0.4419286E+03  0.7546771E-02  0.1030157E+00
         21   -1    0    0  502  501  0.00000000000E+00  0.00000000000E+00  0.17115214695E+03  0.17115214695E+03  0.00000000000E+00 0.  1.
         21   -1    0    0  501  502 -0.00000000000E+00 -0.00000000000E+00 -0.28527373417E+03  0.28527373417E+03  0.00000000000E+00 0.  1.
      99926    2    1    2    0    0  0.00000000000E+00 -0.28865798640E-14 -0.11412158723E+03  0.45642588112E+03  0.44192855563E+03 0.  0.
      99925    2    3    3    0    0 -0.84332910557E+02  0.16718230446E+01 -0.12923152465E+03  0.30479919117E+03  0.26284391791E+03 0.  0.
         25    1    3    3    0    0  0.84332910557E+02 -0.16718230446E+01  0.15109937418E+02  0.15162668995E+03  0.12509000000E+03 0.  0.
         25    1    4    4    0    0 -0.64425654830E+02  0.23603114416E+02 -0.96198867943E+02  0.17207411863E+03  0.12509000000E+03 0.  0.
         25    1    4    4    0    0 -0.19907255727E+02 -0.21931291371E+02 -0.33032656703E+02  0.13272507254E+03  0.12509000000E+03 0.  0.
<mgrwt>
<rscale>  2 0.44192856E+03</rscale>
<asrwt>0</asrwt>
<pdfrwt beam="1">  1       21 0.25169434E-01 0.44192856E+03</pdfrwt>
<pdfrwt beam="2">  1       21 0.41952019E-01 0.44192856E+03</pdfrwt>
<totfact> 0.76042722E+04</totfact>
</mgrwt>
</event>
<event>
 7    0  0.4748297E-002  0.4547984E+03  0.7546771E-02  0.1026301E+00
         21   -1    0    0  502  501  0.00000000000E+00  0.00000000000E+00  0.31276354643E+03  0.31276354643E+03  0.00000000000E+00 0.  1.
         21   -1    0    0  501  502 -0.00000000000E+00 -0.00000000000E+00 -0.16533381008E+03  0.16533381008E+03  0.00000000000E+00 0.  1.
      99926    2    1    2    0    0  0.00000000000E+00 -0.14210854715E-13  0.14742973634E+03  0.47809735651E+03  0.45479836757E+03 0.  0.
      99925    2    3    3    0    0  0.55873382111E+02  0.86484954642E+02  0.14174491536E+03  0.31598225080E+03  0.26296706939E+03 0.  0.
         25    1    4    4    0    0  0.22614467515E+02  0.69414134679E+02  0.10931492255E+03  0.18145797482E+03  0.12509000000E+03 0.  0.
         25    1    3    3    0    0 -0.55873382111E+02 -0.86484954642E+02  0.56848209863E+01  0.16211510570E+03  0.12509000000E+03 0.  0.
         25    1    4    4    0    0  0.33258914597E+02  0.17070819963E+02  0.32429992806E+02  0.13452427598E+03  0.12509000000E+03 0.  0.
<mgrwt>
<rscale>  2 0.45479837E+03</rscale>
<asrwt>0</asrwt>
<pdfrwt beam="1">  1       21 0.45994640E-01 0.45479837E+03</pdfrwt>
<pdfrwt beam="2">  1       21 0.24313795E-01 0.45479837E+03</pdfrwt>
<totfact> 0.66945928E+04</totfact>
</mgrwt>
</event>
<event>
 7    0  0.4748297E-002  0.4393512E+03  0.7546771E-02  0.1030946E+00
         21   -1    0    0  502  501  0.00000000000E+00  0.00000000000E+00  0.13340405367E+03  0.13340405367E+03  0.00000000000E+00 0.  1.
         21   -1    0    0  501  502 -0.00000000000E+00 -0.00000000000E+00 -0.36173832661E+03  0.36173832661E+03  0.00000000000E+00 0.  1.
      99926    2    1    2    0    0 -0.71054273576E-14  0.00000000000E+00 -0.22833427294E+03  0.49514238029E+03  0.43935115404E+03 0.  0.
      99925    2    3    3    0    0 -0.63540728245E+02  0.20843071075E+02 -0.22612080480E+03  0.35328236020E+03  0.26307023759E+03 0.  0.
         25    1    4    4    0    0  0.72562135347E+01  0.11800665677E+02 -0.12442331828E+03  0.17697620907E+03  0.12509000000E+03 0.  0.
         25    1    3    3    0    0  0.63540728245E+02 -0.20843071075E+02 -0.22134681380E+01  0.14186002009E+03  0.12509000000E+03 0.  0.
         25    1    4    4    0    0 -0.70796941779E+02  0.90424053982E+01 -0.10169748652E+03  0.17630615113E+03  0.12509000000E+03 0.  0.
<mgrwt>
<rscale>  2 0.43935115E+03</rscale>
<asrwt>0</asrwt>
<pdfrwt beam="1">  1       21 0.19618243E-01 0.43935115E+03</pdfrwt>
<pdfrwt beam="2">  1       21 0.53196813E-01 0.43935115E+03</pdfrwt>
<totfact> 0.74438444E+04</totfact>
</mgrwt>
</event>
<event>
 7    0  0.4748297E-002  0.4550484E+03  0.7546771E-02  0.1026227E+00
         21   -1    0    0  502  501  0.00000000000E+00  0.00000000000E+00  0.64110667378E+03  0.64110667378E+03  0.00000000000E+00 0.  1.
         21   -1    0    0  501  502 -0.00000000000E+00 -0.00000000000E+00 -0.80746731088E+02  0.80746731088E+02  0.00000000000E+00 0.  1.
      99926    2    1    2    0    0 -0.71054273576E-14  0.00000000000E+00  0.56035994269E+03  0.72185340486E+03  0.45504842901E+03 0.  0.
      99925    2    3    3    0    0  0.55591915737E+02 -0.58612952733E+02  0.22707704316E+03  0.35681787434E+03  0.26311418167E+03 0.  0.
         25    1    4    4    0    0  0.65593000112E+02 -0.43429645789E+02  0.13792518541E+03  0.20213718280E+03  0.12509000000E+03 0.  0.
         25    1    3    3    0    0 -0.55591915737E+02  0.58612952733E+02  0.33328289953E+03  0.36503553052E+03  0.12509000000E+03 0.  0.
         25    1    4    4    0    0 -0.10001084375E+02 -0.15183306944E+02  0.89151857746E+02  0.15468069155E+03  0.12509000000E+03 0.  0.
<mgrwt>
<rscale>  2 0.45504843E+03</rscale>
<asrwt>0</asrwt>
<pdfrwt beam="1">  1       21 0.94280391E-01 0.45504843E+03</pdfrwt>
<pdfrwt beam="2">  1       21 0.11874520E-01 0.45504843E+03</pdfrwt>
<totfact> 0.51712811E+04</totfact>
</mgrwt>
</event>
<event>
 7    0  0.4748297E-002  0.4190256E+03  0.7546771E-02  0.1037384E+00
         21   -1    0    0  502  501  0.00000000000E+00  0.00000000000E+00  0.28815419976E+03  0.28815419976E+03  0.00000000000E+00 0.  1.
         21   -1    0    0  501  502 -0.00000000000E+00 -0.00000000000E+00 -0.15233378248E+03  0.15233378248E+03  0.00000000000E+00 0.  1.
      99926    2    1    2    0    0  0.00000000000E+00  0.71054273576E-14  0.13582041729E+03  0.44048798224E+03  0.41902562779E+03 0.  0.
      99925    2    3    3    0    0  0.20623475813E+02 -0.46651264438E+02  0.31287141443E+02  0.26967702800E+03  0.26295464625E+03 0.  0.
         25    1    3    3    0    0 -0.20623475813E+02  0.46651264438E+02  0.10453327584E+03  0.17081095423E+03  0.12509000000E+03 0.  0.
         25    1    4    4    0    0 -0.29728670568E+02 -0.26777326739E+02  0.98586642733E+01  0.13170239346E+03  0.12509000000E+03 0.  0.
         25    1    4    4    0    0  0.50352146381E+02 -0.19873937699E+02  0.21428477170E+02  0.13797463455E+03  0.12509000000E+03 0.  0.
<mgrwt>
<rscale>  2 0.41902563E+03</rscale>
<asrwt>0</asrwt>
<pdfrwt beam="1">  1       21 0.42375618E-01 0.41902563E+03</pdfrwt>
<pdfrwt beam="2">  1       21 0.22402027E-01 0.41902563E+03</pdfrwt>
<totfact> 0.93719267E+04</totfact>
</mgrwt>
</event>
<event>
 7    0  0.4748297E-002  0.4498735E+03  0.7546771E-02  0.1027760E+00
         21   -1    0    0  502  501  0.00000000000E+00  0.00000000000E+00  0.45828415497E+02  0.45828415497E+02  0.00000000000E+00 0. -1.
         21   -1    0    0  501  502 -0.00000000000E+00 -0.00000000000E+00 -0.11040429565E+04  0.11040429565E+04  0.00000000000E+00 0. -1.
      99926    2    1    2    0    0 -0.35527136788E-14  0.99920072216E-15 -0.10582145410E+04  0.11498713720E+04  0.44987349038E+03 0.  0.
      99925    2    3    3    0    0 -0.27319083290E+02 -0.39605872778E+00 -0.93696240978E+03  0.97353057524E+03  0.26290061697E+03 0.  0.
         25    1    4    4    0    0 -0.44621071077E+02  0.24038453643E+02 -0.44367217138E+03  0.46374711966E+03  0.12509000000E+03 0.  0.
         25    1    4    4    0    0  0.17301987787E+02 -0.24434512370E+02 -0.49329023840E+03  0.50978345558E+03  0.12509000000E+03 0.  0.
         25    1    3    3    0    0  0.27319083290E+02  0.39605872778E+00 -0.12125213121E+03  0.17634079674E+03  0.12509000000E+03 0.  0.
<mgrwt>
<rscale>  2 0.44987349E+03</rscale>
<asrwt>0</asrwt>
<pdfrwt beam="1">  1       21 0.67394730E-02 0.44987349E+03</pdfrwt>
<pdfrwt beam="2">  1       21 0.16235926E+00 0.44987349E+03</pdfrwt>
<totfact> 0.35171022E+04</totfact>
</mgrwt>
</event>
<event>
 7    0  0.4748297E-002  0.4510875E+03  0.7546771E-02  0.1027398E+00
         21   -1    0    0  502  501  0.00000000000E+00  0.00000000000E+00  0.92564457417E+03  0.92564457417E+03  0.00000000000E+00 0.  1.
         21   -1    0    0  501  502 -0.00000000000E+00 -0.00000000000E+00 -0.54956269321E+02  0.54956269321E+02  0.00000000000E+00 0.  1.
      99926    2    1    2    0    0  0.00000000000E+00  0.00000000000E+00  0.87068830485E+03  0.98060084349E+03  0.45108745278E+03 0.  0.
      99925    2    3    3    0    0  0.77669286350E+02 -0.70705661932E+02  0.61689622158E+03  0.67879007778E+03  0.26298899752E+03 0.  0.
         25    1    3    3    0    0 -0.77669286350E+02  0.70705661932E+02  0.25379208327E+03  0.30181076571E+03  0.12509000000E+03 0.  0.
         25    1    4    4    0    0  0.13682109958E+02 -0.42987982962E+02  0.22264068683E+03  0.25932903876E+03  0.12509000000E+03 0.  0.
         25    1    4    4    0    0  0.63987176393E+02 -0.27717678970E+02  0.39425553475E+03  0.41946103902E+03  0.12509000000E+03 0.  0.
<mgrwt>
<rscale>  2 0.45108745E+03</rscale>
<asrwt>0</asrwt>
<pdfrwt beam="1">  1       21 0.13612419E+00 0.45108745E+03</pdfrwt>
<pdfrwt beam="2">  1       21 0.80818049E-02 0.45108745E+03</pdfrwt>
<totfact> 0.41170553E+04</totfact>
</mgrwt>
</event>
<event>
 7    0  0.4748297E-002  0.4427883E+03  0.7546771E-02  0.1029895E+00
         21   -1    0    0  502  501  0.00000000000E+00  0.00000000000E+00  0.41856281075E+03  0.41856281075E+03  0.00000000000E+00 0.  1.
         21   -1    0    0  501  502 -0.00000000000E+00 -0.00000000000E+00 -0.11710396652E+03  0.11710396652E+03  0.00000000000E+00 0.  1.
      99926    2    1    2    0    0  0.00000000000E+00  0.00000000000E+00  0.30145884424E+03  0.53566677727E+03  0.44278828068E+03 0.  0.
      99925    2    3    3    0    0  0.51911415288E+02  0.48720148779E+02  0.10453577507E+03  0.29175152313E+03  0.26291210517E+03 0.  0.
         25    1    4    4    0    0  0.17632856266E+02  0.10606002111E+02  0.90665089184E+02  0.15585593154E+03  0.12509000000E+03 0.  0.
         25    1    3    3    0    0 -0.51911415288E+02 -0.48720148779E+02  0.19692306917E+03  0.24391525414E+03  0.12509000000E+03 0.  0.
         25    1    4    4    0    0  0.34278559022E+02  0.38114146668E+02  0.13870685884E+02  0.13589559158E+03  0.12509000000E+03 0.  0.
<mgrwt>
<rscale>  2 0.44278828E+03</rscale>
<asrwt>0</asrwt>
<pdfrwt beam="1">  1       21 0.61553354E-01 0.44278828E+03</pdfrwt>
<pdfrwt beam="2">  1       21 0.17221172E-01 0.44278828E+03</pdfrwt>
<totfact> 0.69280931E+04</totfact>
</mgrwt>
</event>
<event>
 7    0  0.4748297E-002  0.4579907E+03  0.7546771E-02  0.1025366E+00
         21   -1    0    0  502  501  0.00000000000E+00  0.00000000000E+00  0.30030370156E+03  0.30030370156E+03  0.00000000000E+00 0. -1.
         21   -1    0    0  501  502 -0.00000000000E+00 -0.00000000000E+00 -0.17461949027E+03  0.17461949027E+03  0.00000000000E+00 0. -1.
      99926    2    1    2    0    0  0.17763568394E-14  0.00000000000E+00  0.12568421129E+03  0.47492319182E+03  0.45799073917E+03 0.  0.
      99925    2    3    3    0    0 -0.14162366008E+02  0.10597062068E+03  0.12650955841E+03  0.31036762565E+03  0.26247485522E+03 0.  0.
         25    1    4    4    0    0  0.27879968044E+02  0.36191139725E+02  0.72436013292E+02  0.15159675239E+03  0.12509000000E+03 0.  0.
         25    1    3    3    0    0  0.14162366008E+02 -0.10597062068E+03 -0.82534712340E+00  0.16455556617E+03  0.12509000000E+03 0.  0.
         25    1    4    4    0    0 -0.42042334052E+02  0.69779480959E+02  0.54073545122E+02  0.15877087327E+03  0.12509000000E+03 0.  0.
<mgrwt>
<rscale>  2 0.45799074E+03</rscale>
<asrwt>0</asrwt>
<pdfrwt beam="1">  1       21 0.44162310E-01 0.45799074E+03</pdfrwt>
<pdfrwt beam="2">  1       21 0.25679336E-01 0.45799074E+03</pdfrwt>
<totfact> 0.65503239E+04</totfact>
</mgrwt>
</event>
<event>
 7    0  0.4748297E-002  0.4562597E+03  0.7546771E-02  0.1025872E+00
         21   -1    0    0  502  501  0.00000000000E+00  0.00000000000E+00  0.18577507076E+03  0.18577507076E+03  0.00000000000E+00 0.  1.
         21   -1    0    0  501  502 -0.00000000000E+00 -0.00000000000E+00 -0.28014101781E+03  0.28014101781E+03  0.00000000000E+00 0.  1.
      99926    2    1    2    0    0  0.00000000000E+00  0.00000000000E+00 -0.94365947050E+02  0.46591608856E+03  0.45625965154E+03 0.  0.
      99925    2    3    3    0    0  0.69178922958E+02 -0.12017895486E+02 -0.15146266842E+03  0.31152147439E+03  0.26301052430E+03 0.  0.
         25    1    4    4    0    0  0.65003050585E+02 -0.56289261178E+00 -0.11118657923E+03  0.17954296682E+03  0.12509000000E+03 0.  0.
         25    1    3    3    0    0 -0.69178922958E+02  0.12017895486E+02  0.57096721370E+02  0.15439461417E+03  0.12509000000E+03 0.  0.
         25    1    4    4    0    0  0.41758723731E+01 -0.11455002875E+02 -0.40276089187E+02  0.13197850757E+03  0.12509000000E+03 0.  0.
<mgrwt>
<rscale>  2 0.45625965E+03</rscale>
<asrwt>0</asrwt>
<pdfrwt beam="1">  1       21 0.27319863E-01 0.45625965E+03</pdfrwt>
<pdfrwt beam="2">  1       21 0.41197208E-01 0.45625965E+03</pdfrwt>
<totfact> 0.67068251E+04</totfact>
</mgrwt>
</event>
<event>
 7    0  0.4748297E-002  0.4684253E+03  0.7546771E-02  0.1022366E+00
         21   -1    0    0  502  501  0.00000000000E+00  0.00000000000E+00  0.53114032340E+03  0.53114032340E+03  0.00000000000E+00 0. -1.
         21   -1    0    0  501  502 -0.00000000000E+00 -0.00000000000E+00 -0.10327885356E+03  0.10327885356E+03  0.00000000000E+00 0. -1.
      99926    2    1    2    0    0  0.00000000000E+00  0.00000000000E+00  0.42786146984E+03  0.63441917696E+03  0.46842529257E+03 0.  0.
      99925    2    3    3    0    0  0.13600787640E+02 -0.86753446904E+02  0.14484811232E+03  0.31277463619E+03  0.26293697995E+03 0.  0.
         25    1    4    4    0    0  0.15044626560E+02 -0.39532619533E+02  0.27523992876E+02  0.13488605220E+03  0.12509000000E+03 0.  0.
         25    1    3    3    0    0 -0.13600787640E+02  0.86753446904E+02  0.28301335752E+03  0.32164454077E+03  0.12509000000E+03 0.  0.
         25    1    4    4    0    0 -0.14438389196E+01 -0.47220827370E+02  0.11732411944E+03  0.17788858398E+03  0.12509000000E+03 0.  0.
<mgrwt>
<rscale>  2 0.46842529E+03</rscale>
<asrwt>0</asrwt>
<pdfrwt beam="1">  1       21 0.78108870E-01 0.46842529E+03</pdfrwt>
<pdfrwt beam="2">  1       21 0.15188067E-01 0.46842529E+03</pdfrwt>
<totfact> 0.50986167E+04</totfact>
</mgrwt>
</event>
<event>
 7    0  0.4748297E-002  0.4550237E+03  0.7546771E-02  0.1026234E+00
         21   -1    0    0  502  501  0.00000000000E+00  0.00000000000E+00  0.89285580971E+03  0.89285580971E+03  0.00000000000E+00 0. -1.
         21   -1    0    0  501  502 -0.00000000000E+00 -0.00000000000E+00 -0.57973128846E+02  0.57973128846E+02  0.00000000000E+00 0. -1.
      99926    2    1    2    0    0  0.00000000000E+00  0.00000000000E+00  0.83488268086E+03  0.95082893856E+03  0.45502371322E+03 0.  0.
      99925    2    3    3    0    0 -0.88659168081E+02  0.52991947753E+02  0.42853321332E+03  0.51329494846E+03  0.26298744189E+03 0.  0.
         25    1    4    4    0    0 -0.74122170607E+01  0.39528724889E+02  0.17510804821E+03  0.21892418254E+03  0.12509000000E+03 0.  0.
         25    1    4    4    0    0 -0.81246951021E+02  0.13463222864E+02  0.25342516511E+03  0.29437076592E+03  0.12509000000E+03 0.  0.
         25    1    3    3    0    0  0.88659168081E+02 -0.52991947753E+02  0.40634946755E+03  0.43753399009E+03  0.12509000000E+03 0.  0.
<mgrwt>
<rscale>  2 0.45502371E+03</rscale>
<asrwt>0</asrwt>
<pdfrwt beam="1">  1       21 0.13130232E+00 0.45502371E+03</pdfrwt>
<pdfrwt beam="2">  1       21 0.85254606E-02 0.45502371E+03</pdfrwt>
<totfact> 0.41099641E+04</totfact>
</mgrwt>
</event>
<event>
 7    0  0.4748297E-002  0.4564695E+03  0.7546771E-02  0.1025810E+00
         21   -1    0    0  502  501  0.00000000000E+00  0.00000000000E+00  0.35973921007E+03  0.35973921007E+03  0.00000000000E+00 0.  1.
         21   -1    0    0  501  502 -0.00000000000E+00 -0.00000000000E+00 -0.14480241434E+03  0.14480241434E+03  0.00000000000E+00 0.  1.
      99926    2    1    2    0    0  0.00000000000E+00  0.00000000000E+00  0.21493679574E+03  0.50454162441E+03  0.45646952209E+03 0.  0.
      99925    2    3    3    0    0 -0.10814016985E+03 -0.31573300217E+02  0.15691116080E+03  0.32648081448E+03  0.26320607937E+03 0.  0.
         25    1    3    3    0    0  0.10814016985E+03  0.31573300217E+02  0.58025634937E+02  0.17806080993E+03  0.12509000000E+03 0.  0.
         25    1    4    4    0    0 -0.47528036315E+02 -0.22596591209E+02  0.12292125025E+03  0.18310287282E+03  0.12509000000E+03 0.  0.
         25    1    4    4    0    0 -0.60612133537E+02 -0.89767090077E+01  0.33989910546E+02  0.14337794166E+03  0.12509000000E+03 0.  0.
<mgrwt>
<rscale>  2 0.45646952E+03</rscale>
<asrwt>0</asrwt>
<pdfrwt beam="1">  1       21 0.52902825E-01 0.45646952E+03</pdfrwt>
<pdfrwt beam="2">  1       21 0.21294473E-01 0.45646952E+03</pdfrwt>
<totfact> 0.64200630E+04</totfact>
</mgrwt>
</event>
<event>
 7    0  0.4748297E-002  0.4494884E+03  0.7546771E-02  0.1027875E+00
         21   -1    0    0  502  501  0.00000000000E+00  0.00000000000E+00  0.62400854120E+03  0.62400854120E+03  0.00000000000E+00 0.  1.
         21   -1    0    0  501  502 -0.00000000000E+00 -0.00000000000E+00 -0.80944334457E+02  0.80944334457E+02  0.00000000000E+00 0.  1.
      99926    2    1    2    0    0 -0.71054273576E-14  0.00000000000E+00  0.54306420674E+03  0.70495287566E+03  0.44948840280E+03 0.  0.
      99925    2    3    3    0    0  0.47438449611E+02  0.38583127611E+02  0.20400052234E+03  0.33841399039E+03  0.26299952763E+03 0.  0.
         25    1    4    4    0    0  0.15141897172E+02 -0.19958971533E+02  0.85335018320E+02  0.15348358559E+03  0.12509000000E+03 0.  0.
         25    1    3    3    0    0 -0.47438449611E+02 -0.38583127611E+02  0.33906368440E+03  0.36653888527E+03  0.12509000000E+03 0.  0.
         25    1    4    4    0    0  0.32296552440E+02  0.58542099144E+02  0.11866550402E+03  0.18493040479E+03  0.12509000000E+03 0.  0.
<mgrwt>
<rscale>  2 0.44948840E+03</rscale>
<asrwt>0</asrwt>
<pdfrwt beam="1">  1       21 0.91765960E-01 0.44948840E+03</pdfrwt>
<pdfrwt beam="2">  1       21 0.11903579E-01 0.44948840E+03</pdfrwt>
<totfact> 0.54980803E+04</totfact>
</mgrwt>
</event>
<event>
 7    0  0.4748297E-002  0.4564201E+03  0.7546771E-02  0.1025825E+00
         21   -1    0    0  502  501  0.00000000000E+00  0.00000000000E+00  0.13508578463E+04  0.13508578463E+04  0.00000000000E+00 0. -1.
         21   -1    0    0  501  502 -0.00000000000E+00 -0.00000000000E+00 -0.38553154268E+02  0.38553154268E+02  0.00000000000E+00 0. -1.
      99926    2    1    2    0    0  0.00000000000E+00  0.00000000000E+00  0.13123046920E+04  0.13894110006E+04  0.45642011762E+03 0.  0.
      99925    2    3    3    0    0  0.10805830375E+03 -0.36763447006E+02  0.82910077696E+03  0.87739373555E+03  0.26340751843E+03 0.  0.
         25    1    3    3    0    0 -0.10805830375E+03  0.36763447006E+02  0.48320391506E+03  0.51201726501E+03  0.12509000000E+03 0.  0.
         25    1    4    4    0    0  0.58063502459E+02 -0.57911344011E+02  0.47255471814E+03  0.49566174335E+03  0.12509000000E+03 0.  0.
         25    1    4    4    0    0  0.49994801288E+02  0.21147897005E+02  0.35654605882E+03  0.38173199220E+03  0.12509000000E+03 0.  0.
<mgrwt>
<rscale>  2 0.45642012E+03</rscale>
<asrwt>0</asrwt>
<pdfrwt beam="1">  1       21 0.19865553E+00 0.45642012E+03</pdfrwt>
<pdfrwt beam="2">  1       21 0.56695824E-02 0.45642012E+03</pdfrwt>
<totfact> 0.26323829E+04</totfact>
</mgrwt>
</event>
<event>
 7    0  0.4748297E-002  0.4066006E+03  0.7546771E-02  0.1041518E+00
         21   -1    0    0  502  501  0.00000000000E+00  0.00000000000E+00  0.33162974362E+03  0.33162974362E+03  0.00000000000E+00 0. -1.
         21   -1    0    0  501  502 -0.00000000000E+00 -0.00000000000E+00 -0.12462998003E+03  0.12462998003E+03  0.00000000000E+00 0. -1.
      99926    2    1    2    0    0 -0.71054273576E-14  0.00000000000E+00  0.20699976358E+03  0.45625972365E+03  0.40660058202E+03 0.  0.
      99925    2    3    3    0    0 -0.52636917743E+02 -0.16385799750E+02  0.12052799034E+03  0.29450677866E+03  0.26299830167E+03 0.  0.
         25    1    4    4    0    0 -0.24732862546E+02 -0.24024405270E+02  0.10144540247E+03  0.16470447572E+03  0.12509000000E+03 0.  0.
         25    1    3    3    0    0  0.52636917743E+02  0.16385799750E+02  0.86471773246E+02  0.16175294498E+03  0.12509000000E+03 0.  0.
         25    1    4    4    0    0 -0.27904055197E+02  0.76386055196E+01  0.19082587865E+02  0.12980230295E+03  0.12509000000E+03 0.  0.
<mgrwt>
<rscale>  2 0.40660058E+03</rscale>
<asrwt>0</asrwt>
<pdfrwt beam="1">  1       21 0.48769080E-01 0.40660058E+03</pdfrwt>
<pdfrwt beam="2">  1       21 0.18327938E-01 0.40660058E+03</pdfrwt>
<totfact> 0.10255794E+05</totfact>
</mgrwt>
</event>
<event>
 7    0  0.4748297E-002  0.4493218E+03  0.7546771E-02  0.1027924E+00
         21   -1    0    0  502  501  0.00000000000E+00  0.00000000000E+00  0.16162727286E+03  0.16162727286E+03  0.00000000000E+00 0.  1.
         21   -1    0    0  501  502 -0.00000000000E+00 -0.00000000000E+00 -0.31227730082E+03  0.31227730082E+03  0.00000000000E+00 0.  1.
      99926    2    1    2    0    0  0.00000000000E+00  0.00000000000E+00 -0.15065002796E+03  0.47390457368E+03  0.44932183791E+03 0.  0.
      99925    2    3    3    0    0  0.64704285138E+02  0.35782127810E+02 -0.17897945087E+03  0.32586042658E+03  0.26207702798E+03 0.  0.
         25    1    4    4    0    0  0.14935712183E+02  0.10258630837E+02 -0.44857152576E+02  0.13411930227E+03  0.12509000000E+03 0.  0.
         25    1    3    3    0    0 -0.64704285138E+02 -0.35782127810E+02  0.28329422908E+02  0.14804414709E+03  0.12509000000E+03 0.  0.
         25    1    4    4    0    0  0.49768572956E+02  0.25523496973E+02 -0.13412229830E+03  0.19174112431E+03  0.12509000000E+03 0.  0.
<mgrwt>
<rscale>  2 0.44932184E+03</rscale>
<asrwt>0</asrwt>
<pdfrwt beam="1">  1       21 0.23768717E-01 0.44932184E+03</pdfrwt>
<pdfrwt beam="2">  1       21 0.45923132E-01 0.44932184E+03</pdfrwt>
<totfact> 0.70259846E+04</totfact>
</mgrwt>
</event>
<event>
 7    0  0.4748297E-002  0.4572655E+03  0.7546771E-02  0.1025577E+00
         21   -1    0    0  502  501  0.00000000000E+00  0.00000000000E+00  0.19869149059E+03  0.19869149059E+03  0.00000000000E+00 0. -1.
         21   -1    0    0  501  502 -0.00000000000E+00 -0.00000000000E+00 -0.26308596119E+03  0.26308596119E+03  0.00000000000E+00 0. -1.
      99926    2    1    2    0    0  0.00000000000E+00  0.00000000000E+00 -0.64394470598E+02  0.46177745177E+03  0.45726553240E+03 0.  0.
      99925    2    3    3    0    0 -0.85993238690E+02 -0.53805839298E+02  0.14962255352E+02  0.28223663887E+03  0.26295198382E+03 0.  0.
         25    1    3    3    0    0  0.85993238690E+02  0.53805839298E+02 -0.79356725950E+02  0.17954081290E+03  0.12509000000E+03 0.  0.
         25    1    4    4    0    0 -0.60627077179E+02 -0.19405350847E+02  0.43615568802E+02  0.14697631126E+03  0.12509000000E+03 0.  0.
         25    1    4    4    0    0 -0.25366161511E+02 -0.34400488451E+02 -0.28653313449E+02  0.13526032762E+03  0.12509000000E+03 0.  0.
<mgrwt>
<rscale>  2 0.45726553E+03</rscale>
<asrwt>0</asrwt>
<pdfrwt beam="1">  1       21 0.29219337E-01 0.45726553E+03</pdfrwt>
<pdfrwt beam="2">  1       21 0.38689111E-01 0.45726553E+03</pdfrwt>
<totfact> 0.66835525E+04</totfact>
</mgrwt>
</event>
<event>
 7    0  0.4748297E-002  0.4465407E+03  0.7546771E-02  0.1028759E+00
         21   -1    0    0  502  501  0.00000000000E+00  0.00000000000E+00  0.43614385450E+03  0.43614385450E+03  0.00000000000E+00 0.  1.
         21   -1    0    0  501  502 -0.00000000000E+00 -0.00000000000E+00 -0.11429635501E+03  0.11429635501E+03  0.00000000000E+00 0.  1.
      99926    2    1    2    0    0  0.71054273576E-14  0.00000000000E+00  0.32184749949E+03  0.55044020951E+03  0.44654071631E+03 0.  0.
      99925    2    3    3    0    0 -0.42150829589E+02  0.17672996744E+02  0.32081550715E+03  0.41725762673E+03  0.26285416144E+03 0.  0.
         25    1    4    4    0    0 -0.36760848247E+02  0.24120411808E+02  0.21782787649E+03  0.25500910985E+03  0.12509000000E+03 0.  0.
         25    1    3    3    0    0  0.42150829589E+02 -0.17672996744E+02  0.10319923358E+01  0.13318258278E+03  0.12509000000E+03 0.  0.
         25    1    4    4    0    0 -0.53899813420E+01 -0.64474150642E+01  0.10298763066E+03  0.16224851688E+03  0.12509000000E+03 0.  0.
<mgrwt>
<rscale>  2 0.44654072E+03</rscale>
<asrwt>0</asrwt>
<pdfrwt beam="1">  1       21 0.64138802E-01 0.44654072E+03</pdfrwt>
<pdfrwt beam="2">  1       21 0.16808288E-01 0.44654072E+03</pdfrwt>
<totfact> 0.66155087E+04</totfact>
</mgrwt>
</event>
<event>
 7    0  0.4748297E-002  0.4452734E+03  0.7546771E-02  0.1029141E+00
         21   -1    0    0  502  501  0.00000000000E+00  0.00000000000E+00  0.21204008607E+04  0.21204008607E+04  0.00000000000E+00 0.  1.
         21   -1    0    0  501  502 -0.00000000000E+00 -0.00000000000E+00 -0.23376287361E+02  0.23376287361E+02  0.00000000000E+00 0.  1.
      99926    2    1    2    0    0  0.00000000000E+00  0.00000000000E+00  0.20970245734E+04  0.21437771481E+04  0.44527339844E+03 0.  0.
      99925    2    3    3    0    0  0.72233887335E+02 -0.51795743421E+02  0.10833923659E+04  0.11185950698E+04  0.26384726299E+03 0.  0.
         25    1    4    4    0    0  0.40104424359E+01 -0.26498491569E+02  0.62283431649E+03  0.63583673031E+03  0.12509000000E+03 0.  0.
         25    1    3    3    0    0 -0.72233887335E+02  0.51795743421E+02  0.10136322074E+04  0.10251820782E+04  0.12509000000E+03 0.  0.
         25    1    4    4    0    0  0.68223444899E+02 -0.25297251852E+02  0.46055804944E+03  0.48275833954E+03  0.12509000000E+03 0.  0.
<mgrwt>
<rscale>  2 0.44527340E+03</rscale>
<asrwt>0</asrwt>
<pdfrwt beam="1">  1       21 0.31182352E+00 0.44527340E+03</pdfrwt>
<pdfrwt beam="2">  1       21 0.34376908E-02 0.44527340E+03</pdfrwt>
<totfact> 0.12412665E+04</totfact>
</mgrwt>
</event>
<event>
 7    0  0.4748297E-002  0.4715242E+03  0.7546771E-02  0.1021491E+00
         21   -1    0    0  502  501  0.00000000000E+00  0.00000000000E+00  0.84341179111E+03  0.84341179111E+03  0.00000000000E+00 0.  1.
         21   -1    0    0  501  502 -0.00000000000E+00 -0.00000000000E+00 -0.65903474540E+02  0.65903474540E+02  0.00000000000E+00 0.  1.
      99926    2    1    2    0    0  0.14210854715E-13  0.14210854715E-13  0.77750831657E+03  0.90931526565E+03  0.47152419875E+03 0.  0.
      99925    2    3    3    0    0 -0.74506371583E+02 -0.91436788615E+02  0.57906721756E+03  0.64675429445E+03  0.26279343452E+03 0.  0.
         25    1    3    3    0    0  0.74506371583E+02  0.91436788615E+02  0.19844109902E+03  0.26256097120E+03  0.12509000000E+03 0.  0.
         25    1    4    4    0    0 -0.56039756525E+02 -0.32330193359E+02  0.21677368609E+03  0.25850345219E+03  0.12509000000E+03 0.  0.
         25    1    4    4    0    0 -0.18466615059E+02 -0.59106595257E+02  0.36229353147E+03  0.38825084226E+03  0.12509000000E+03 0.  0.
<mgrwt>
<rscale>  2 0.47152420E+03</rscale>
<asrwt>0</asrwt>
<pdfrwt beam="1">  1       21 0.12403114E+00 0.47152420E+03</pdfrwt>
<pdfrwt beam="2">  1       21 0.96916880E-02 0.47152420E+03</pdfrwt>
<totfact> 0.37712897E+04</totfact>
</mgrwt>
</event>
<event>
 7    0  0.4748297E-002  0.4350034E+03  0.7546771E-02  0.1032291E+00
         21   -1    0    0  502  501  0.00000000000E+00  0.00000000000E+00  0.47221306107E+02  0.47221306107E+02  0.00000000000E+00 0.  1.
         21   -1    0    0  501  502 -0.00000000000E+00 -0.00000000000E+00 -0.10018144947E+04  0.10018144947E+04  0.00000000000E+00 0.  1.
      99926    2    1    2    0    0 -0.14210854715E-13  0.71054273576E-14 -0.95459318861E+03  0.10490358008E+04  0.43500339731E+03 0.  0.
      99925    2    3    3    0    0 -0.83924275862E+02  0.39593265183E+02 -0.58926006240E+03  0.65188757669E+03  0.26290507940E+03 0.  0.
         25    1    4    4    0    0 -0.69818194008E+02  0.21275444193E+02 -0.38402441579E+03  0.41042597964E+03  0.12509000000E+03 0.  0.
         25    1    3    3    0    0  0.83924275862E+02 -0.39593265183E+02 -0.36533312621E+03  0.39714822413E+03  0.12509000000E+03 0.  0.
         25    1    4    4    0    0 -0.14106081854E+02  0.18317820990E+02 -0.20523564662E+03  0.24146159706E+03  0.12509000000E+03 0.  0.
<mgrwt>
<rscale>  2 0.43500340E+03</rscale>
<asrwt>0</asrwt>
<pdfrwt beam="1">  1       21 0.69443106E-02 0.43500340E+03</pdfrwt>
<pdfrwt beam="2">  1       21 0.14732564E+00 0.43500340E+03</pdfrwt>
<totfact> 0.43753101E+04</totfact>
</mgrwt>
</event>
<event>
 7    0  0.4748297E-002  0.4555787E+03  0.7546771E-02  0.1026071E+00
         21   -1    0    0  502  501  0.00000000000E+00  0.00000000000E+00  0.69686525493E+02  0.69686525493E+02  0.00000000000E+00 0.  1.
         21   -1    0    0  501  502 -0.00000000000E+00 -0.00000000000E+00 -0.74459148937E+03  0.74459148937E+03  0.00000000000E+00 0.  1.
      99926    2    1    2    0    0  0.00000000000E+00  0.00000000000E+00 -0.67490496388E+03  0.81427801486E+03  0.45557872560E+03 0.  0.
      99925    2    3    3    0    0  0.10741883605E+03 -0.36820151820E+02 -0.44134520777E+03  0.52602084203E+03  0.26271239771E+03 0.  0.
         25    1    4    4    0    0  0.59347490453E+02  0.19834657480E+02 -0.23651201625E+03  0.27477441691E+03  0.12509000000E+03 0.  0.
         25    1    3    3    0    0 -0.10741883605E+03  0.36820151820E+02 -0.23355975611E+03  0.28825717283E+03  0.12509000000E+03 0.  0.
         25    1    4    4    0    0  0.48071345593E+02 -0.56654809300E+02 -0.20483319152E+03  0.25124642511E+03  0.12509000000E+03 0.  0.
<mgrwt>
<rscale>  2 0.45557873E+03</rscale>
<asrwt>0</asrwt>
<pdfrwt beam="1">  1       21 0.10248019E-01 0.45557873E+03</pdfrwt>
<pdfrwt beam="2">  1       21 0.10949875E+00 0.45557873E+03</pdfrwt>
<totfact> 0.46868739E+04</totfact>
</mgrwt>
</event>
<event>
 7    0  0.4748297E-002  0.4532657E+03  0.7546771E-02  0.1026753E+00
         21   -1    0    0  502  501  0.00000000000E+00  0.00000000000E+00  0.50395582288E+03  0.50395582288E+03  0.00000000000E+00 0.  1.
         21   -1    0    0  501  502 -0.00000000000E+00 -0.00000000000E+00 -0.10191854927E+03  0.10191854927E+03  0.00000000000E+00 0.  1.
      99926    2    1    2    0    0  0.35527136788E-14  0.00000000000E+00  0.40203727361E+03  0.60587437214E+03  0.45326568968E+03 0.  0.
      99925    2    3    3    0    0 -0.31698676494E+02  0.10691945166E+03  0.25038096250E+03  0.37985729307E+03  0.26299118137E+03 0.  0.
         25    1    4    4    0    0 -0.47600021598E+02  0.51623165194E+02  0.94031770129E+02  0.17152316209E+03  0.12509000000E+03 0.  0.
         25    1    4    4    0    0  0.15901345104E+02  0.55296286464E+02  0.15634919238E+03  0.20833413098E+03  0.12509000000E+03 0.  0.
         25    1    3    3    0    0  0.31698676494E+02 -0.10691945166E+03  0.15165631111E+03  0.22601707907E+03  0.12509000000E+03 0.  0.
<mgrwt>
<rscale>  2 0.45326569E+03</rscale>
<asrwt>0</asrwt>
<pdfrwt beam="1">  1       21 0.74111149E-01 0.45326569E+03</pdfrwt>
<pdfrwt beam="2">  1       21 0.14988022E-01 0.45326569E+03</pdfrwt>
<totfact> 0.59124025E+04</totfact>
</mgrwt>
</event>
<event>
 7    0  0.4748297E-002  0.4538487E+03  0.7546771E-02  0.1026581E+00
         21   -1    0    0  502  501  0.00000000000E+00  0.00000000000E+00  0.45632669145E+02  0.45632669145E+02  0.00000000000E+00 0. -1.
         21   -1    0    0  501  502 -0.00000000000E+00 -0.00000000000E+00 -0.11284604153E+04  0.11284604153E+04  0.00000000000E+00 0. -1.
      99926    2    1    2    0    0  0.14210854715E-13  0.35527136788E-14 -0.10828277462E+04  0.11740930845E+04  0.45384870067E+03 0.  0.
      99925    2    3    3    0    0 -0.76173021769E+02 -0.29762353173E+02 -0.88041647194E+03  0.92248632989E+03  0.26298239077E+03 0.  0.
         25    1    3    3    0    0  0.76173021769E+02  0.29762353173E+02 -0.20241127424E+03  0.25160675458E+03  0.12509000000E+03 0.  0.
         25    1    4    4    0    0 -0.72932145743E+02 -0.13507279826E+02 -0.39442920623E+03  0.42038488474E+03  0.12509000000E+03 0.  0.
         25    1    4    4    0    0 -0.32408760263E+01 -0.16255073347E+02 -0.48598726572E+03  0.50210144515E+03  0.12509000000E+03 0.  0.
<mgrwt>
<rscale>  2 0.45384870E+03</rscale>
<asrwt>0</asrwt>
<pdfrwt beam="1">  1       21 0.67106862E-02 0.45384870E+03</pdfrwt>
<pdfrwt beam="2">  1       21 0.16595007E+00 0.45384870E+03</pdfrwt>
<totfact> 0.33285648E+04</totfact>
</mgrwt>
</event>
<event>
 7    0  0.4748297E-002  0.4711072E+03  0.7546771E-02  0.1021608E+00
         21   -1    0    0  502  501  0.00000000000E+00  0.00000000000E+00  0.91911526689E+02  0.91911526689E+02  0.00000000000E+00 0.  1.
         21   -1    0    0  501  502 -0.00000000000E+00 -0.00000000000E+00 -0.60368384846E+03  0.60368384846E+03  0.00000000000E+00 0.  1.
      99926    2    1    2    0    0  0.00000000000E+00  0.00000000000E+00 -0.51177232177E+03  0.69559537515E+03  0.47110722410E+03 0.  0.
      99925    2    3    3    0    0  0.44025415037E+02  0.79522109780E+02 -0.18514881383E+03  0.33421963281E+03  0.26298417553E+03 0.  0.
         25    1    4    4    0    0  0.59295922224E+01  0.29906746748E+01 -0.10097392629E+03  0.16089545080E+03  0.12509000000E+03 0.  0.
         25    1    3    3    0    0 -0.44025415037E+02 -0.79522109780E+02 -0.32662350794E+03  0.36137574234E+03  0.12509000000E+03 0.  0.
         25    1    4    4    0    0  0.38095822814E+02  0.76531435105E+02 -0.84174887546E+02  0.17332418201E+03  0.12509000000E+03 0.  0.
<mgrwt>
<rscale>  2 0.47110722E+03</rscale>
<asrwt>0</asrwt>
<pdfrwt beam="1">  1       21 0.13516401E-01 0.47110722E+03</pdfrwt>
<pdfrwt beam="2">  1       21 0.88777035E-01 0.47110722E+03</pdfrwt>
<totfact> 0.46903990E+04</totfact>
</mgrwt>
</event>
<event>
 7    0  0.4748297E-002  0.4571180E+03  0.7546771E-02  0.1025620E+00
         21   -1    0    0  502  501  0.00000000000E+00  0.00000000000E+00  0.48275312419E+02  0.48275312419E+02  0.00000000000E+00 0.  1.
         21   -1    0    0  501  502 -0.00000000000E+00 -0.00000000000E+00 -0.10821104819E+04  0.10821104819E+04  0.00000000000E+00 0.  1.
      99926    2    1    2    0    0  0.00000000000E+00  0.71054273576E-14 -0.10338351694E+04  0.11303857943E+04  0.45711802233E+03 0.  0.
      99925    2    3    3    0    0 -0.96208858906E+02  0.59325250436E+02 -0.70448985012E+03  0.76039731158E+03  0.26291156815E+03 0.  0.
         25    1    4    4    0    0 -0.69068633125E+02  0.33835848275E+02 -0.46524493872E+03  0.48786852923E+03  0.12509000000E+03 0.  0.
         25    1    4    4    0    0 -0.27140225781E+02  0.25489402161E+02 -0.23924491141E+03  0.27252878235E+03  0.12509000000E+03 0.  0.
         25    1    3    3    0    0  0.96208858906E+02 -0.59325250436E+02 -0.32934531933E+03  0.36998848271E+03  0.12509000000E+03 0.  0.
<mgrwt>
<rscale>  2 0.45711802E+03</rscale>
<asrwt>0</asrwt>
<pdfrwt beam="1">  1       21 0.70993112E-02 0.45711802E+03</pdfrwt>
<pdfrwt beam="2">  1       21 0.15913388E+00 0.45711802E+03</pdfrwt>
<totfact> 0.33881174E+04</totfact>
</mgrwt>
</event>
<event>
 7    0  0.4748297E-002  0.4701299E+03  0.7546771E-02  0.1021884E+00
         21   -1    0    0  502  501  0.00000000000E+00  0.00000000000E+00  0.14419751640E+04  0.14419751640E+04  0.00000000000E+00 0. -1.
         21   -1    0    0  501  502 -0.00000000000E+00 -0.00000000000E+00 -0.38319335547E+02  0.38319335547E+02  0.00000000000E+00 0. -1.
      99926    2    1    2    0    0  0.22204460493E-15  0.00000000000E+00  0.14036558284E+04  0.14802944995E+04  0.47012989762E+03 0.  0.
      99925    2    3    3    0    0  0.18295908720E+01  0.89367166787E+02  0.59243753730E+03  0.65463569477E+03  0.26377228695E+03 0.  0.
         25    1    3    3    0    0 -0.18295908720E+01 -0.89367166787E+02  0.81121829111E+03  0.82565880474E+03  0.12509000000E+03 0.  0.
         25    1    4    4    0    0  0.21508267377E+02  0.55083598734E+02  0.38591580702E+03  0.40996990941E+03  0.12509000000E+03 0.  0.
         25    1    4    4    0    0 -0.19678676505E+02  0.34283568052E+02  0.20652173028E+03  0.24466578536E+03  0.12509000000E+03 0.  0.
<mgrwt>
<rscale>  2 0.47012990E+03</rscale>
<asrwt>0</asrwt>
<pdfrwt beam="1">  1       21 0.21205514E+00 0.47012990E+03</pdfrwt>
<pdfrwt beam="2">  1       21 0.56351973E-02 0.47012990E+03</pdfrwt>
<totfact> 0.21612471E+04</totfact>
</mgrwt>
</event>
<event>
 7    0  0.4748297E-002  0.4345096E+03  0.7546771E-02  0.1032445E+00
         21   -1    0    0  502  501  0.00000000000E+00  0.00000000000E+00  0.12860164409E+04  0.12860164409E+04  0.00000000000E+00 0.  1.
         21   -1    0    0  501  502 -0.00000000000E+00 -0.00000000000E+00 -0.36702212990E+02  0.36702212990E+02  0.00000000000E+00 0.  1.
      99926    2    1    2    0    0  0.14210854715E-13  0.00000000000E+00  0.12493142279E+04  0.13227186539E+04  0.43450960552E+03 0.  0.
      99925    2    3    3    0    0 -0.62082706335E+02 -0.90609639437E+01  0.10083260464E+04  0.10440446952E+04  0.26338478763E+03 0.  0.
         25    1    4    4    0    0  0.10017402490E+02  0.34681830101E+01  0.44392386805E+03  0.46133316093E+03  0.12509000000E+03 0.  0.
         25    1    3    3    0    0  0.62082706335E+02  0.90609639437E+01  0.24098818152E+03  0.27867395865E+03  0.12509000000E+03 0.  0.
         25    1    4    4    0    0 -0.72100108825E+02 -0.12529146954E+02  0.56440217834E+03  0.58271153432E+03  0.12509000000E+03 0.  0.
<mgrwt>
<rscale>  2 0.43450961E+03</rscale>
<asrwt>0</asrwt>
<pdfrwt beam="1">  1       21 0.18912003E+00 0.43450961E+03</pdfrwt>
<pdfrwt beam="2">  1       21 0.53973851E-02 0.43450961E+03</pdfrwt>
<totfact> 0.33488333E+04</totfact>
</mgrwt>
</event>
<event>
 7    0  0.4748297E-002  0.4522378E+03  0.7546771E-02  0.1027057E+00
         21   -1    0    0  502  501  0.00000000000E+00  0.00000000000E+00  0.19369340246E+04  0.19369340246E+04  0.00000000000E+00 0. -1.
         21   -1    0    0  501  502 -0.00000000000E+00 -0.00000000000E+00 -0.26397262558E+02  0.26397262558E+02  0.00000000000E+00 0. -1.
      99926    2    1    2    0    0 -0.71054273576E-14  0.00000000000E+00  0.19105367620E+04  0.19633312871E+04  0.45223779588E+03 0.  0.
      99925    2    3    3    0    0 -0.33667743618E+02 -0.87352354729E+01  0.75094503179E+03  0.79649354768E+03  0.26319899208E+03 0.  0.
         25    1    4    4    0    0 -0.56732200074E+02  0.19343104558E+01  0.36540883134E+03  0.39037598056E+03  0.12509000000E+03 0.  0.
         25    1    3    3    0    0  0.33667743618E+02  0.87352354729E+01  0.11595917302E+04  0.11668377394E+04  0.12509000000E+03 0.  0.
         25    1    4    4    0    0  0.23064456456E+02 -0.10669545929E+02  0.38553620046E+03  0.40611756712E+03  0.12509000000E+03 0.  0.
<mgrwt>
<rscale>  2 0.45223780E+03</rscale>
<asrwt>0</asrwt>
<pdfrwt beam="1">  1       21 0.28484314E+00 0.45223780E+03</pdfrwt>
<pdfrwt beam="2">  1       21 0.38819517E-02 0.45223780E+03</pdfrwt>
<totfact> 0.14629048E+04</totfact>
</mgrwt>
</event>
<event>
 7    0  0.4748297E-002  0.4607809E+03  0.7546771E-02  0.1024555E+00
         21   -1    0    0  502  501  0.00000000000E+00  0.00000000000E+00  0.13037326114E+03  0.13037326114E+03  0.00000000000E+00 0.  1.
         21   -1    0    0  501  502 -0.00000000000E+00 -0.00000000000E+00 -0.40713690519E+03  0.40713690519E+03  0.00000000000E+00 0.  1.
      99926    2    1    2    0    0  0.00000000000E+00  0.00000000000E+00 -0.27676364405E+03  0.53751016633E+03  0.46078092869E+03 0.  0.
      99925    2    3    3    0    0 -0.10732731637E+03 -0.38807000879E+02 -0.21039104968E+03  0.35563667860E+03  0.26303596185E+03 0.  0.
         25    1    3    3    0    0  0.10732731637E+03  0.38807000879E+02 -0.66372594369E+02  0.18187348773E+03  0.12509000000E+03 0.  0.
         25    1    4    4    0    0 -0.90156091166E+02 -0.16630315020E+02 -0.87583937715E+02  0.17810991662E+03  0.12509000000E+03 0.  0.
         25    1    4    4    0    0 -0.17171225202E+02 -0.22176685859E+02 -0.12280711197E+03  0.17752676199E+03  0.12509000000E+03 0.  0.
<mgrwt>
<rscale>  2 0.46078093E+03</rscale>
<asrwt>0</asrwt>
<pdfrwt beam="1">  1       21 0.19172539E-01 0.46078093E+03</pdfrwt>
<pdfrwt beam="2">  1       21 0.59873074E-01 0.46078093E+03</pdfrwt>
<totfact> 0.59908817E+04</totfact>
</mgrwt>
</event>
<event>
 7    0  0.4748297E-002  0.4570992E+03  0.7546771E-02  0.1025626E+00
         21   -1    0    0  502  501  0.00000000000E+00  0.00000000000E+00  0.33102131480E+03  0.33102131480E+03  0.00000000000E+00 0.  1.
         21   -1    0    0  501  502 -0.00000000000E+00 -0.00000000000E+00 -0.15779926368E+03  0.15779926368E+03  0.00000000000E+00 0.  1.
      99926    2    1    2    0    0  0.00000000000E+00  0.00000000000E+00  0.17322205112E+03  0.48882057847E+03  0.45709920033E+03 0.  0.
      99925    2    3    3    0    0  0.19505547391E+02 -0.47237500901E+02  0.21919773261E+03  0.34608614234E+03  0.26289945620E+03 0.  0.
         25    1    4    4    0    0  0.31127709643E+02 -0.29172974353E+02  0.15550060478E+03  0.20407827647E+03  0.12509000000E+03 0.  0.
         25    1    4    4    0    0 -0.11622162251E+02 -0.18064526548E+02  0.63697127827E+02  0.14200786587E+03  0.12509000000E+03 0.  0.
         25    1    3    3    0    0 -0.19505547391E+02  0.47237500901E+02 -0.45975681487E+02  0.14273443613E+03  0.12509000000E+03 0.  0.
<mgrwt>
<rscale>  2 0.45709920E+03</rscale>
<asrwt>0</asrwt>
<pdfrwt beam="1">  1       21 0.48679605E-01 0.45709920E+03</pdfrwt>
<pdfrwt beam="2">  1       21 0.23205774E-01 0.45709920E+03</pdfrwt>
<totfact> 0.64973878E+04</totfact>
</mgrwt>
</event>
<event>
 7    0  0.4748297E-002  0.4450012E+03  0.7546771E-02  0.1029223E+00
         21   -1    0    0  502  501  0.00000000000E+00  0.00000000000E+00  0.78090587065E+02  0.78090587065E+02  0.00000000000E+00 0. -1.
         21   -1    0    0  501  502 -0.00000000000E+00 -0.00000000000E+00 -0.63396257700E+03  0.63396257700E+03  0.00000000000E+00 0. -1.
      99926    2    1    2    0    0  0.00000000000E+00  0.00000000000E+00 -0.55587198993E+03  0.71205316406E+03  0.44500116771E+03 0.  0.
      99925    2    3    3    0    0  0.72394999018E+02  0.19946842906E+02 -0.23904417705E+03  0.36324622099E+03  0.26299579094E+03 0.  0.
         25    1    4    4    0    0  0.52790552645E+02 -0.57965881942E+01 -0.77697175542E+02  0.15654009732E+03  0.12509000000E+03 0.  0.
         25    1    4    4    0    0  0.19604446374E+02  0.25743431100E+02 -0.16134700151E+03  0.20670612366E+03  0.12509000000E+03 0.  0.
         25    1    3    3    0    0 -0.72394999018E+02 -0.19946842906E+02 -0.31682781288E+03  0.34880694308E+03  0.12509000000E+03 0.  0.
<mgrwt>
<rscale>  2 0.44500117E+03</rscale>
<asrwt>0</asrwt>
<pdfrwt beam="1">  1       21 0.11483910E-01 0.44500117E+03</pdfrwt>
<pdfrwt beam="2">  1       21 0.93229792E-01 0.44500117E+03</pdfrwt>
<totfact> 0.56574055E+04</totfact>
</mgrwt>
</event>
<event>
 7    0  0.4748297E-002  0.4522328E+03  0.7546771E-02  0.1027058E+00
         21   -1    0    0  502  501  0.00000000000E+00  0.00000000000E+00  0.45060491121E+03  0.45060491121E+03  0.00000000000E+00 0.  1.
         21   -1    0    0  501  502 -0.00000000000E+00 -0.00000000000E+00 -0.11346664749E+03  0.11346664749E+03  0.00000000000E+00 0.  1.
      99926    2    1    2    0    0  0.00000000000E+00 -0.14210854715E-13  0.33713826372E+03  0.56407155869E+03  0.45223281003E+03 0.  0.
      99925    2    3    3    0    0  0.68931941930E+02 -0.85482679084E+02  0.19612514923E+03  0.34591769648E+03  0.26293550071E+03 0.  0.
         25    1    3    3    0    0 -0.68931941930E+02  0.85482679084E+02  0.14101311449E+03  0.21815386222E+03  0.12509000000E+03 0.  0.
         25    1    4    4    0    0  0.50536029564E+02 -0.65781177991E+02  0.67807446160E+02  0.16470097606E+03  0.12509000000E+03 0.  0.
         25    1    4    4    0    0  0.18395912366E+02 -0.19701501093E+02  0.12831770307E+03  0.18121672041E+03  0.12509000000E+03 0.  0.
<mgrwt>
<rscale>  2 0.45223281E+03</rscale>
<asrwt>0</asrwt>
<pdfrwt beam="1">  1       21 0.66265427E-01 0.45223281E+03</pdfrwt>
<pdfrwt beam="2">  1       21 0.16686272E-01 0.45223281E+03</pdfrwt>
<totfact> 0.62298409E+04</totfact>
</mgrwt>
</event>
<event>
 7    0  0.4748297E-002  0.4597270E+03  0.7546771E-02  0.1024860E+00
         21   -1    0    0  502  501  0.00000000000E+00  0.00000000000E+00  0.41579574099E+03  0.41579574099E+03  0.00000000000E+00 0.  1.
         21   -1    0    0  501  502 -0.00000000000E+00 -0.00000000000E+00 -0.12707496244E+03  0.12707496244E+03  0.00000000000E+00 0.  1.
      99926    2    1    2    0    0  0.00000000000E+00 -0.14210854715E-13  0.28872077855E+03  0.54287070343E+03  0.45972699798E+03 0.  0.
      99925    2    3    3    0    0  0.44635810458E+02 -0.10061004133E+03  0.13221688771E+03  0.31427562049E+03  0.26300784066E+03 0.  0.
         25    1    4    4    0    0  0.34722407388E+02 -0.90253216930E+02  0.59898731306E+02  0.16907588490E+03  0.12509000000E+03 0.  0.
         25    1    3    3    0    0 -0.44635810458E+02  0.10061004133E+03  0.15650389084E+03  0.22859508293E+03  0.12509000000E+03 0.  0.
         25    1    4    4    0    0  0.99134030695E+01 -0.10356824402E+02  0.72318156400E+02  0.14519973560E+03  0.12509000000E+03 0.  0.
<mgrwt>
<rscale>  2 0.45972700E+03</rscale>
<asrwt>0</asrwt>
<pdfrwt beam="1">  1       21 0.61146432E-01 0.45972700E+03</pdfrwt>
<pdfrwt beam="2">  1       21 0.18687495E-01 0.45972700E+03</pdfrwt>
<totfact> 0.60061648E+04</totfact>
</mgrwt>
</event>
<event>
 7    0  0.4748297E-002  0.4507308E+03  0.7546771E-02  0.1027504E+00
         21   -1    0    0  502  501  0.00000000000E+00  0.00000000000E+00  0.31764799487E+03  0.31764799487E+03  0.00000000000E+00 0. -1.
         21   -1    0    0  501  502 -0.00000000000E+00 -0.00000000000E+00 -0.15989259297E+03  0.15989259297E+03  0.00000000000E+00 0. -1.
      99926    2    1    2    0    0 -0.14210854715E-13  0.15543122345E-14  0.15775540190E+03  0.47754058784E+03  0.45073079128E+03 0.  0.
      99925    2    3    3    0    0 -0.91593489626E+02  0.12233219116E+01  0.16249149235E+03  0.32242513887E+03  0.26298977400E+03 0.  0.
         25    1    3    3    0    0  0.91593489626E+02 -0.12233219116E+01 -0.47360904464E+01  0.15511544898E+03  0.12509000000E+03 0.  0.
         25    1    4    4    0    0 -0.27608625876E+02 -0.35702724510E+02  0.84167868265E+02  0.15738061796E+03  0.12509000000E+03 0.  0.
         25    1    4    4    0    0 -0.63984863750E+02  0.36926046422E+02  0.78323624082E+02  0.16504452091E+03  0.12509000000E+03 0.  0.
<mgrwt>
<rscale>  2 0.45073079E+03</rscale>
<asrwt>0</asrwt>
<pdfrwt beam="1">  1       21 0.46712941E-01 0.45073079E+03</pdfrwt>
<pdfrwt beam="2">  1       21 0.23513617E-01 0.45073079E+03</pdfrwt>
<totfact> 0.69194776E+04</totfact>
</mgrwt>
</event>
<event>
 7    0  0.4748297E-002  0.4590797E+03  0.7546771E-02  0.1025048E+00
         21   -1    0    0  502  501  0.00000000000E+00  0.00000000000E+00  0.70025188729E+02  0.70025188729E+02  0.00000000000E+00 0.  1.
         21   -1    0    0  501  502 -0.00000000000E+00 -0.00000000000E+00 -0.75242277397E+03  0.75242277397E+03  0.00000000000E+00 0.  1.
      99926    2    1    2    0    0  0.00000000000E+00 -0.88817841970E-15 -0.68239758524E+03  0.82244796270E+03  0.45907971748E+03 0.  0.
      99925    2    3    3    0    0 -0.11274605238E+03  0.69478092520E+01 -0.38055209439E+03  0.47673398724E+03  0.26399896527E+03 0.  0.
         25    1    4    4    0    0 -0.90858097314E+02  0.21725743277E+02 -0.17360676054E+03  0.23348237016E+03  0.12509000000E+03 0.  0.
         25    1    4    4    0    0 -0.21887955070E+02 -0.14777934025E+02 -0.20694533385E+03  0.24325161708E+03  0.12509000000E+03 0.  0.
         25    1    3    3    0    0  0.11274605238E+03 -0.69478092520E+01 -0.30184549085E+03  0.34571397546E+03  0.12509000000E+03 0.  0.
<mgrwt>
<rscale>  2 0.45907972E+03</rscale>
<asrwt>0</asrwt>
<pdfrwt beam="1">  1       21 0.10297822E-01 0.45907972E+03</pdfrwt>
<pdfrwt beam="2">  1       21 0.11065041E+00 0.45907972E+03</pdfrwt>
<totfact> 0.45232675E+04</totfact>
</mgrwt>
</event>
<event>
 7    0  0.4748297E-002  0.4383326E+03  0.7546771E-02  0.1031260E+00
         21   -1    0    0  502  501  0.00000000000E+00  0.00000000000E+00  0.69185904555E+03  0.69185904555E+03  0.00000000000E+00 0. -1.
         21   -1    0    0  501  502 -0.00000000000E+00 -0.00000000000E+00 -0.69427254979E+02  0.69427254979E+02  0.00000000000E+00 0. -1.
      99926    2    1    2    0    0  0.00000000000E+00  0.00000000000E+00  0.62243179057E+03  0.76128630053E+03  0.43833263335E+03 0.  0.
      99925    2    3    3    0    0 -0.72289341849E+02  0.64199459719E+02  0.40253453247E+03  0.49045492902E+03  0.26299176412E+03 0.  0.
         25    1    4    4    0    0 -0.67049706488E+02  0.32442506388E+02  0.16479465653E+03  0.21989307920E+03  0.12509000000E+03 0.  0.
         25    1    3    3    0    0  0.72289341849E+02 -0.64199459719E+02  0.21989725809E+03  0.27083137150E+03  0.12509000000E+03 0.  0.
         25    1    4    4    0    0 -0.52396353604E+01  0.31756953331E+02  0.23773987595E+03  0.27056184982E+03  0.12509000000E+03 0.  0.
<mgrwt>
<rscale>  2 0.43833263E+03</rscale>
<asrwt>0</asrwt>
<pdfrwt beam="1">  1       21 0.10174397E+00 0.43833263E+03</pdfrwt>
<pdfrwt beam="2">  1       21 0.10209891E-01 0.43833263E+03</pdfrwt>
<totfact> 0.56765882E+04</totfact>
</mgrwt>
</event>
<event>
 7    0  0.4748297E-002  0.4512674E+03  0.7546771E-02  0.1027345E+00
         21   -1    0    0  502  501  0.00000000000E+00  0.00000000000E+00  0.11300156149E+03  0.11300156149E+03  0.00000000000E+00 0.  1.
         21   -1    0    0  501  502 -0.00000000000E+00 -0.00000000000E+00 -0.45052985424E+03  0.45052985424E+03  0.00000000000E+00 0.  1.
      99926    2    1    2    0    0  0.00000000000E+00 -0.71054273576E-14 -0.33752829275E+03  0.56353141573E+03  0.45126744632E+03 0.  0.
      99925    2    3    3    0    0 -0.20757231143E+02  0.58701427048E+02 -0.32574735054E+03  0.42330652892E+03  0.26305961465E+03 0.  0.
         25    1    4    4    0    0  0.11188813220E+02  0.42685438158E+02 -0.11457391763E+03  0.17527671515E+03  0.12509000000E+03 0.  0.
         25    1    3    3    0    0  0.20757231143E+02 -0.58701427048E+02 -0.11780942212E+02  0.14022488681E+03  0.12509000000E+03 0.  0.
         25    1    4    4    0    0 -0.31946044363E+02  0.16015988890E+02 -0.21117343292E+03  0.24802981377E+03  0.12509000000E+03 0.  0.
<mgrwt>
<rscale>  2 0.45126745E+03</rscale>
<asrwt>0</asrwt>
<pdfrwt beam="1">  1       21 0.16617877E-01 0.45126745E+03</pdfrwt>
<pdfrwt beam="2">  1       21 0.66254391E-01 0.45126745E+03</pdfrwt>
<totfact> 0.62815036E+04</totfact>
</mgrwt>
</event>
<event>
 7    0  0.4748297E-002  0.4167024E+03  0.7546771E-02  0.1038145E+00
         21   -1    0    0  502  501  0.00000000000E+00  0.00000000000E+00  0.66517926257E+02  0.66517926257E+02  0.00000000000E+00 0.  1.
         21   -1    0    0  501  502 -0.00000000000E+00 -0.00000000000E+00 -0.65260947882E+03  0.65260947882E+03  0.00000000000E+00 0.  1.
      99926    2    1    2    0    0  0.00000000000E+00  0.00000000000E+00 -0.58609155257E+03  0.71912740508E+03  0.41670243190E+03 0.  0.
      99925    2    3    3    0    0 -0.29562227727E+02  0.59023672651E+02 -0.43043621153E+03  0.50880904513E+03  0.26316077398E+03 0.  0.
         25    1    3    3    0    0  0.29562227727E+02 -0.59023672651E+02 -0.15565534103E+03  0.21031835995E+03  0.12509000000E+03 0.  0.
         25    1    4    4    0    0 -0.25495306552E+01  0.16893651758E+02 -0.27825542676E+03  0.30555766428E+03  0.12509000000E+03 0.  0.
         25    1    4    4    0    0 -0.27012697072E+02  0.42130020893E+02 -0.15218078477E+03  0.20325138085E+03  0.12509000000E+03 0.  0.
<mgrwt>
<rscale>  2 0.41670243E+03</rscale>
<asrwt>0</asrwt>
<pdfrwt beam="1">  1       21 0.97820484E-02 0.41670243E+03</pdfrwt>
<pdfrwt beam="2">  1       21 0.95971978E-01 0.41670243E+03</pdfrwt>
<totfact> 0.70955470E+04</totfact>
</mgrwt>
</event>
<event>
 7    0  0.4748297E-002  0.4552216E+03  0.7546771E-02  0.1026176E+00
         21   -1    0    0  502  501  0.00000000000E+00  0.00000000000E+00  0.11554495437E+03  0.11554495437E+03  0.00000000000E+00 0. -1.
         21   -1    0    0  501  502 -0.00000000000E+00 -0.00000000000E+00 -0.44836813487E+03  0.44836813487E+03  0.00000000000E+00 0. -1.
      99926    2    1    2    0    0  0.35527136788E-14  0.00000000000E+00 -0.33282318050E+03  0.56391308924E+03  0.45522159740E+03 0.  0.
      99925    2    3    3    0    0  0.24491427503E+02 -0.44241380660E+02 -0.82451156455E+02  0.27950002992E+03  0.26223070709E+03 0.  0.
         25    1    4    4    0    0 -0.95776106643E+01  0.11365265603E+02 -0.40750415565E+02  0.13239714633E+03  0.12509000000E+03 0.  0.
         25    1    4    4    0    0  0.34069038167E+02 -0.55606646263E+02 -0.41700740890E+02  0.14710288359E+03  0.12509000000E+03 0.  0.
         25    1    3    3    0    0 -0.24491427503E+02  0.44241380660E+02 -0.25037202404E+03  0.28441305931E+03  0.12509000000E+03 0.  0.
<mgrwt>
<rscale>  2 0.45522160E+03</rscale>
<asrwt>0</asrwt>
<pdfrwt beam="1">  1       21 0.16991905E-01 0.45522160E+03</pdfrwt>
<pdfrwt beam="2">  1       21 0.65936490E-01 0.45522160E+03</pdfrwt>
<totfact> 0.60849662E+04</totfact>
</mgrwt>
</event>
<event>
 7    0  0.4748297E-002  0.4522268E+03  0.7546771E-02  0.1027060E+00
         21   -1    0    0  502  501  0.00000000000E+00  0.00000000000E+00  0.14761151196E+03  0.14761151196E+03  0.00000000000E+00 0.  1.
         21   -1    0    0  501  502 -0.00000000000E+00 -0.00000000000E+00 -0.34636367334E+03  0.34636367334E+03  0.00000000000E+00 0.  1.
      99926    2    1    2    0    0  0.00000000000E+00  0.00000000000E+00 -0.19875216138E+03  0.49397518531E+03  0.45222678165E+03 0.  0.
      99925    2    3    3    0    0 -0.34257205545E+02  0.10452309226E+03 -0.11403943710E+03  0.30709986135E+03  0.26307166074E+03 0.  0.
         25    1    3    3    0    0  0.34257205545E+02 -0.10452309226E+03 -0.84712724284E+02  0.18687532395E+03  0.12509000000E+03 0.  0.
         25    1    4    4    0    0 -0.28577346862E+02  0.94218556362E+02 -0.70820127107E+02  0.17423202811E+03  0.12509000000E+03 0.  0.
         25    1    4    4    0    0 -0.56798586837E+01  0.10304535894E+02 -0.43219309988E+02  0.13286783324E+03  0.12509000000E+03 0.  0.
<mgrwt>
<rscale>  2 0.45222678E+03</rscale>
<asrwt>0</asrwt>
<pdfrwt beam="1">  1       21 0.21707576E-01 0.45222678E+03</pdfrwt>
<pdfrwt beam="2">  1       21 0.50935834E-01 0.45222678E+03</pdfrwt>
<totfact> 0.67162485E+04</totfact>
</mgrwt>
</event>
<event>
 7    0  0.4748297E-002  0.4926079E+03  0.7546771E-02  0.1015727E+00
         21   -1    0    0  502  501  0.00000000000E+00  0.00000000000E+00  0.12865555706E+03  0.12865555706E+03  0.00000000000E+00 0. -1.
         21   -1    0    0  501  502 -0.00000000000E+00 -0.00000000000E+00 -0.47153538130E+03  0.47153538130E+03  0.00000000000E+00 0. -1.
      99926    2    1    2    0    0 -0.14210854715E-13  0.14210854715E-13 -0.34287982425E+03  0.60019093836E+03  0.49260794616E+03 0.  0.
      99925    2    3    3    0    0  0.92876826793E+02 -0.10387127562E+03 -0.25959743250E+03  0.39525482215E+03  0.26347713491E+03 0.  0.
         25    1    4    4    0    0  0.33006493191E+02 -0.50412491550E+02 -0.73531071625E+02  0.15711516315E+03  0.12509000000E+03 0.  0.
         25    1    4    4    0    0  0.59870333602E+02 -0.53458784066E+02 -0.18606636088E+03  0.23813965900E+03  0.12509000000E+03 0.  0.
         25    1    3    3    0    0 -0.92876826793E+02  0.10387127562E+03 -0.83282391742E+02  0.20493611621E+03  0.12509000000E+03 0.  0.
<mgrwt>
<rscale>  2 0.49260795E+03</rscale>
<asrwt>0</asrwt>
<pdfrwt beam="1">  1       21 0.18919935E-01 0.49260795E+03</pdfrwt>
<pdfrwt beam="2">  1       21 0.69343438E-01 0.49260795E+03</pdfrwt>
<totfact> 0.44042025E+04</totfact>
</mgrwt>
</event>
<event>
 7    0  0.4748297E-002  0.4592829E+03  0.7546771E-02  0.1024989E+00
         21   -1    0    0  502  501  0.00000000000E+00  0.00000000000E+00  0.32806001503E+02  0.32806001503E+02  0.00000000000E+00 0.  1.
         21   -1    0    0  501  502 -0.00000000000E+00 -0.00000000000E+00 -0.16074865752E+04  0.16074865752E+04  0.00000000000E+00 0.  1.
      99926    2    1    2    0    0  0.00000000000E+00  0.00000000000E+00 -0.15746805737E+04  0.16402925767E+04  0.45928294984E+03 0.  0.
      99925    2    3    3    0    0  0.48042677142E+02  0.99046546018E+02 -0.84400600507E+03  0.89085869007E+03  0.26299192376E+03 0.  0.
         25    1    3    3    0    0 -0.48042677142E+02 -0.99046546018E+02 -0.73067456864E+03  0.74943388665E+03  0.12509000000E+03 0.  0.
         25    1    4    4    0    0  0.60501074165E+02  0.66049236507E+02 -0.49925170181E+03  0.52241999529E+03  0.12509000000E+03 0.  0.
         25    1    4    4    0    0 -0.12458397023E+02  0.32997309511E+02 -0.34475430326E+03  0.36843869478E+03  0.12509000000E+03 0.  0.
<mgrwt>
<rscale>  2 0.45928295E+03</rscale>
<asrwt>0</asrwt>
<pdfrwt beam="1">  1       21 0.48244092E-02 0.45928295E+03</pdfrwt>
<pdfrwt beam="2">  1       21 0.23639522E+00 0.45928295E+03</pdfrwt>
<totfact> 0.19865488E+04</totfact>
</mgrwt>
</event>
<event>
 7    0  0.4748297E-002  0.4500264E+03  0.7546771E-02  0.1027714E+00
         21   -1    0    0  502  501  0.00000000000E+00  0.00000000000E+00  0.54776937213E+02  0.54776937213E+02  0.00000000000E+00 0.  1.
         21   -1    0    0  501  502 -0.00000000000E+00 -0.00000000000E+00 -0.92431141153E+03  0.92431141153E+03  0.00000000000E+00 0.  1.
      99926    2    1    2    0    0 -0.14210854715E-13  0.00000000000E+00 -0.86953447431E+03  0.97908834874E+03  0.45002643546E+03 0.  0.
      99925    2    3    3    0    0  0.77998744431E+02  0.74236404758E+02 -0.57892658820E+03  0.64487988162E+03  0.26290534279E+03 0.  0.
         25    1    3    3    0    0 -0.77998744431E+02 -0.74236404758E+02 -0.29060788611E+03  0.33420846712E+03  0.12509000000E+03 0.  0.
         25    1    4    4    0    0  0.12313548394E+02  0.46458194939E+02 -0.34594930129E+03  0.37099651550E+03  0.12509000000E+03 0.  0.
         25    1    4    4    0    0  0.65685196037E+02  0.27778209819E+02 -0.23297728691E+03  0.27388336611E+03  0.12509000000E+03 0.  0.
<mgrwt>
<rscale>  2 0.45002644E+03</rscale>
<asrwt>0</asrwt>
<pdfrwt beam="1">  1       21 0.80554331E-02 0.45002644E+03</pdfrwt>
<pdfrwt beam="2">  1       21 0.13592813E+00 0.45002644E+03</pdfrwt>
<totfact> 0.41577820E+04</totfact>
</mgrwt>
</event>
<event>
 7    0  0.4748297E-002  0.4471446E+03  0.7546771E-02  0.1028577E+00
         21   -1    0    0  502  501  0.00000000000E+00  0.00000000000E+00  0.11048204414E+03  0.11048204414E+03  0.00000000000E+00 0.  1.
         21   -1    0    0  501  502 -0.00000000000E+00 -0.00000000000E+00 -0.45242268432E+03  0.45242268432E+03  0.00000000000E+00 0.  1.
      99926    2    1    2    0    0  0.00000000000E+00 -0.22204460493E-15 -0.34194064018E+03  0.56290472847E+03  0.44714464318E+03 0.  0.
      99925    2    3    3    0    0  0.64514576071E+02  0.19274332059E+01 -0.11139921490E+03  0.29278863788E+03  0.26296303137E+03 0.  0.
         25    1    3    3    0    0 -0.64514576071E+02 -0.19274332059E+01 -0.23054142528E+03  0.27011609059E+03  0.12509000000E+03 0.  0.
         25    1    4    4    0    0  0.34248108951E+02  0.15403350598E+01 -0.99630889024E+02  0.16355160576E+03  0.12509000000E+03 0.  0.
         25    1    4    4    0    0  0.30266467120E+02  0.38709814608E+00 -0.11768325875E+02  0.12923703212E+03  0.12509000000E+03 0.  0.
<mgrwt>
<rscale>  2 0.44714464E+03</rscale>
<asrwt>0</asrwt>
<pdfrwt beam="1">  1       21 0.16247359E-01 0.44714464E+03</pdfrwt>
<pdfrwt beam="2">  1       21 0.66532749E-01 0.44714464E+03</pdfrwt>
<totfact> 0.64964840E+04</totfact>
</mgrwt>
</event>
<event>
 7    0  0.4748297E-002  0.4581579E+03  0.7546771E-02  0.1025317E+00
         21   -1    0    0  502  501  0.00000000000E+00  0.00000000000E+00  0.46944387689E+02  0.46944387689E+02  0.00000000000E+00 0.  1.
         21   -1    0    0  501  502 -0.00000000000E+00 -0.00000000000E+00 -0.11178582227E+04  0.11178582227E+04  0.00000000000E+00 0.  1.
      99926    2    1    2    0    0  0.00000000000E+00  0.00000000000E+00 -0.10709138350E+04  0.11648026103E+04  0.45815791944E+03 0.  0.
      99925    2    3    3    0    0 -0.10934188601E+03  0.31298385770E+02 -0.73234795119E+03  0.78637216397E+03  0.26289241462E+03 0.  0.
         25    1    3    3    0    0  0.10934188601E+03 -0.31298385770E+02 -0.33856588378E+03  0.37843044638E+03  0.12509000000E+03 0.  0.
         25    1    4    4    0    0 -0.70065541116E+02  0.83345350097E+01 -0.48061666887E+03  0.50161592381E+03  0.12509000000E+03 0.  0.
         25    1    4    4    0    0 -0.39276344892E+02  0.22963850760E+02 -0.25173128232E+03  0.28475624016E+03  0.12509000000E+03 0.  0.
<mgrwt>
<rscale>  2 0.45815792E+03</rscale>
<asrwt>0</asrwt>
<pdfrwt beam="1">  1       21 0.69035871E-02 0.45815792E+03</pdfrwt>
<pdfrwt beam="2">  1       21 0.16439090E+00 0.45815792E+03</pdfrwt>
<totfact> 0.32485173E+04</totfact>
</mgrwt>
</event>
<event>
 7    0  0.4748297E-002  0.4567004E+03  0.7546771E-02  0.1025743E+00
         21   -1    0    0  502  501  0.00000000000E+00  0.00000000000E+00  0.77569031128E+02  0.77569031128E+02  0.00000000000E+00 0. -1.
         21   -1    0    0  501  502 -0.00000000000E+00 -0.00000000000E+00 -0.67222451469E+03  0.67222451469E+03  0.00000000000E+00 0. -1.
      99926    2    1    2    0    0  0.14210854715E-13  0.00000000000E+00 -0.59465548356E+03  0.74979354582E+03  0.45670035824E+03 0.  0.
      99925    2    3    3    0    0  0.70397153196E+02  0.32669331871E+02 -0.51221684466E+03  0.58107282478E+03  0.26316627315E+03 0.  0.
         25    1    3    3    0    0 -0.70397153196E+02 -0.32669331871E+02 -0.82438638899E+02  0.16872072103E+03  0.12509000000E+03 0.  0.
         25    1    4    4    0    0 -0.61260519483E+01  0.21505193821E+02 -0.22550188543E+03  0.25884089767E+03  0.12509000000E+03 0.  0.
         25    1    4    4    0    0  0.76523205144E+02  0.11164138050E+02 -0.28671495923E+03  0.32223192711E+03  0.12509000000E+03 0.  0.
<mgrwt>
<rscale>  2 0.45670036E+03</rscale>
<asrwt>0</asrwt>
<pdfrwt beam="1">  1       21 0.11407211E-01 0.45670036E+03</pdfrwt>
<pdfrwt beam="2">  1       21 0.98856541E-01 0.45670036E+03</pdfrwt>
<totfact> 0.49615080E+04</totfact>
</mgrwt>
</event>
<event>
 7    0  0.4748297E-002  0.4617929E+03  0.7546771E-02  0.1024263E+00
         21   -1    0    0  502  501  0.00000000000E+00  0.00000000000E+00  0.54525274584E+02  0.54525274584E+02  0.00000000000E+00 0. -1.
         21   -1    0    0  501  502 -0.00000000000E+00 -0.00000000000E+00 -0.97776967696E+03  0.97776967696E+03  0.00000000000E+00 0. -1.
      99926    2    1    2    0    0  0.35527136788E-14  0.44408920985E-15 -0.92324440237E+03  0.10322949515E+04  0.46179285450E+03 0.  0.
      99925    2    3    3    0    0  0.30986938740E+02  0.39876237300E+01 -0.83521735986E+03  0.87617845712E+03  0.26291549783E+03 0.  0.
         25    1    3    3    0    0 -0.30986938740E+02 -0.39876237300E+01 -0.88027042514E+02  0.15611649442E+03  0.12509000000E+03 0.  0.
         25    1    4    4    0    0  0.47430890639E+02 -0.52400698296E+01 -0.34973916695E+03  0.37448917304E+03  0.12509000000E+03 0.  0.
         25    1    4    4    0    0 -0.16443951899E+02  0.92276935595E+01 -0.48547819291E+03  0.50168928409E+03  0.12509000000E+03 0.  0.
<mgrwt>
<rscale>  2 0.46179285E+03</rscale>
<asrwt>0</asrwt>
<pdfrwt beam="1">  1       21 0.80184232E-02 0.46179285E+03</pdfrwt>
<pdfrwt beam="2">  1       21 0.14378965E+00 0.46179285E+03</pdfrwt>
<totfact> 0.35987199E+04</totfact>
</mgrwt>
</event>
<event>
 7    0  0.4748297E-002  0.4556186E+03  0.7546771E-02  0.1026060E+00
         21   -1    0    0  502  501  0.00000000000E+00  0.00000000000E+00  0.87023842275E+03  0.87023842275E+03  0.00000000000E+00 0.  1.
         21   -1    0    0  501  502 -0.00000000000E+00 -0.00000000000E+00 -0.59635470865E+02  0.59635470865E+02  0.00000000000E+00 0.  1.
      99926    2    1    2    0    0 -0.71054273576E-14  0.00000000000E+00  0.81060295188E+03  0.92987389361E+03  0.45561860412E+03 0.  0.
      99925    2    3    3    0    0  0.58569821258E+02  0.12029622432E+02  0.31241845611E+03  0.41275646429E+03  0.26303511423E+03 0.  0.
         25    1    4    4    0    0  0.30476481318E+01  0.50227148823E+01  0.19777702858E+03  0.23408924999E+03  0.12509000000E+03 0.  0.
         25    1    3    3    0    0 -0.58569821258E+02 -0.12029622432E+02  0.49818449577E+03  0.51711742932E+03  0.12509000000E+03 0.  0.
         25    1    4    4    0    0  0.55522173127E+02  0.70069075498E+01  0.11464142752E+03  0.17866721430E+03  0.12509000000E+03 0.  0.
<mgrwt>
<rscale>  2 0.45561860E+03</rscale>
<asrwt>0</asrwt>
<pdfrwt beam="1">  1       21 0.12797623E+00 0.45561860E+03</pdfrwt>
<pdfrwt beam="2">  1       21 0.87699227E-02 0.45561860E+03</pdfrwt>
<totfact> 0.41764287E+04</totfact>
</mgrwt>
</event>
<event>
 7    0  0.4748297E-002  0.4558193E+03  0.7546771E-02  0.1026001E+00
         21   -1    0    0  502  501  0.00000000000E+00  0.00000000000E+00  0.58801936961E+03  0.58801936961E+03  0.00000000000E+00 0.  1.
         21   -1    0    0  501  502 -0.00000000000E+00 -0.00000000000E+00 -0.88335189026E+02  0.88335189026E+02  0.00000000000E+00 0.  1.
      99926    2    1    2    0    0  0.88817841970E-15  0.00000000000E+00  0.49968418058E+03  0.67635455864E+03  0.45581927193E+03 0.  0.
      99925    2    3    3    0    0  0.70926287331E+01  0.70690768472E+02  0.44633000565E+03  0.52292162145E+03  0.26303813053E+03 0.  0.
         25    1    4    4    0    0  0.38233413466E+02  0.54353999291E+02  0.25368387632E+03  0.29054976914E+03  0.12509000000E+03 0.  0.
         25    1    4    4    0    0 -0.31140784733E+02  0.16336769181E+02  0.19264612933E+03  0.23237185231E+03  0.12509000000E+03 0.  0.
         25    1    3    3    0    0 -0.70926287331E+01 -0.70690768472E+02  0.53354174936E+02  0.15343293718E+03  0.12509000000E+03 0.  0.
<mgrwt>
<rscale>  2 0.45581927E+03</rscale>
<asrwt>0</asrwt>
<pdfrwt beam="1">  1       21 0.86473435E-01 0.45581927E+03</pdfrwt>
<pdfrwt beam="2">  1       21 0.12990469E-01 0.45581927E+03</pdfrwt>
<totfact> 0.53857552E+04</totfact>
</mgrwt>
</event>
<event>
 7    0  0.4748297E-002  0.4507951E+03  0.7546771E-02  0.1027485E+00
         21   -1    0    0  502  501  0.00000000000E+00  0.00000000000E+00  0.11371125020E+03  0.11371125020E+03  0.00000000000E+00 0.  1.
         21   -1    0    0  501  502 -0.00000000000E+00 -0.00000000000E+00 -0.44678121577E+03  0.44678121577E+03  0.00000000000E+00 0.  1.
      99926    2    1    2    0    0 -0.17763568394E-14  0.00000000000E+00 -0.33306996557E+03  0.56049246597E+03  0.45079507811E+03 0.  0.
      99925    2    3    3    0    0 -0.66982478024E+01  0.66949476695E+02 -0.10356609459E+03  0.29059131027E+03  0.26304044310E+03 0.  0.
         25    1    4    4    0    0 -0.20117457167E+02  0.63608864615E+01 -0.77157338086E+02  0.14847873881E+03  0.12509000000E+03 0.  0.
         25    1    4    4    0    0  0.13419209364E+02  0.60588590234E+02 -0.26408756503E+02  0.14211257146E+03  0.12509000000E+03 0.  0.
         25    1    3    3    0    0  0.66982478024E+01 -0.66949476695E+02 -0.22950387098E+03  0.26990115570E+03  0.12509000000E+03 0.  0.
<mgrwt>
<rscale>  2 0.45079508E+03</rscale>
<asrwt>0</asrwt>
<pdfrwt beam="1">  1       21 0.16722243E-01 0.45079508E+03</pdfrwt>
<pdfrwt beam="2">  1       21 0.65703119E-01 0.45079508E+03</pdfrwt>
<totfact> 0.63256219E+04</totfact>
</mgrwt>
</event>
<event>
 7    0  0.4748297E-002  0.4620079E+03  0.7546771E-02  0.1024200E+00
         21   -1    0    0  502  501  0.00000000000E+00  0.00000000000E+00  0.79859986004E+02  0.79859986004E+02  0.00000000000E+00 0. -1.
         21   -1    0    0  501  502 -0.00000000000E+00 -0.00000000000E+00 -0.66820470658E+03  0.66820470658E+03  0.00000000000E+00 0. -1.
      99926    2    1    2    0    0 -0.17763568394E-14  0.17763568394E-14 -0.58834472057E+03  0.74806469258E+03  0.46200787229E+03 0.  0.
      99925    2    3    3    0    0 -0.14870820199E+02  0.11711124757E+02 -0.17662942443E+03  0.31734983921E+03  0.26297276501E+03 0.  0.
         25    1    4    4    0    0 -0.41474703267E+02  0.22616275620E+02 -0.72712469923E+02  0.15220465931E+03  0.12509000000E+03 0.  0.
         25    1    4    4    0    0  0.26603883069E+02 -0.10905150863E+02 -0.10391695451E+03  0.16514517990E+03  0.12509000000E+03 0.  0.
         25    1    3    3    0    0  0.14870820199E+02 -0.11711124757E+02 -0.41171529614E+03  0.43071485337E+03  0.12509000000E+03 0.  0.
<mgrwt>
<rscale>  2 0.46200787E+03</rscale>
<asrwt>0</asrwt>
<pdfrwt beam="1">  1       21 0.11744115E-01 0.46200787E+03</pdfrwt>
<pdfrwt beam="2">  1       21 0.98265400E-01 0.46200787E+03</pdfrwt>
<totfact> 0.47688287E+04</totfact>
</mgrwt>
</event>
<event>
 7    0  0.4748297E-002  0.4548478E+03  0.7546771E-02  0.1026286E+00
         21   -1    0    0  502  501  0.00000000000E+00  0.00000000000E+00  0.16776454943E+03  0.16776454943E+03  0.00000000000E+00 0. -1.
         21   -1    0    0  501  502 -0.00000000000E+00 -0.00000000000E+00 -0.30829891371E+03  0.30829891371E+03  0.00000000000E+00 0. -1.
      99926    2    1    2    0    0 -0.15543122345E-14  0.14210854715E-13 -0.14053436429E+03  0.47606346314E+03  0.45484779145E+03 0.  0.
      99925    2    3    3    0    0 -0.14015597955E+01 -0.74615234144E+02  0.41836208601E+00  0.27337015613E+03  0.26298606369E+03 0.  0.
         25    1    4    4    0    0 -0.15380978867E+02 -0.11439197280E+02 -0.28209675753E+02  0.12965617475E+03  0.12509000000E+03 0.  0.
         25    1    4    4    0    0  0.13979419072E+02 -0.63176036865E+02  0.28628037839E+02  0.14371398137E+03  0.12509000000E+03 0.  0.
         25    1    3    3    0    0  0.14015597955E+01  0.74615234144E+02 -0.14095272637E+03  0.20269330701E+03  0.12509000000E+03 0.  0.
<mgrwt>
<rscale>  2 0.45484779E+03</rscale>
<asrwt>0</asrwt>
<pdfrwt beam="1">  1       21 0.24671258E-01 0.45484779E+03</pdfrwt>
<pdfrwt beam="2">  1       21 0.45338075E-01 0.45484779E+03</pdfrwt>
<totfact> 0.67068764E+04</totfact>
</mgrwt>
</event>
<event>
 7    0  0.4748297E-002  0.4549372E+03  0.7546771E-02  0.1026260E+00
         21   -1    0    0  502  501  0.00000000000E+00  0.00000000000E+00  0.91939973691E+02  0.91939973691E+02  0.00000000000E+00 0.  1.
         21   -1    0    0  501  502 -0.00000000000E+00 -0.00000000000E+00 -0.56277982373E+03  0.56277982373E+03  0.00000000000E+00 0.  1.
      99926    2    1    2    0    0  0.71054273576E-14  0.00000000000E+00 -0.47083985004E+03  0.65471979742E+03  0.45493719209E+03 0.  0.
      99925    2    3    3    0    0 -0.60804584006E+02 -0.88386858329E+02 -0.24301764748E+03  0.37354387697E+03  0.26261762484E+03 0.  0.
         25    1    3    3    0    0  0.60804584006E+02  0.88386858329E+02 -0.22782220256E+03  0.28117592045E+03  0.12509000000E+03 0.  0.
         25    1    4    4    0    0 -0.60287782701E+02 -0.45261426456E+02 -0.16323648408E+03  0.21903623285E+03  0.12509000000E+03 0.  0.
         25    1    4    4    0    0 -0.51680130547E+00 -0.43125431873E+02 -0.79781163402E+02  0.15450764412E+03  0.12509000000E+03 0.  0.
<mgrwt>
<rscale>  2 0.45493719E+03</rscale>
<asrwt>0</asrwt>
<pdfrwt beam="1">  1       21 0.13520585E-01 0.45493719E+03</pdfrwt>
<pdfrwt beam="2">  1       21 0.82761736E-01 0.45493719E+03</pdfrwt>
<totfact> 0.55457874E+04</totfact>
</mgrwt>
</event>
<event>
 7    0  0.4748297E-002  0.4561601E+03  0.7546771E-02  0.1025901E+00
         21   -1    0    0  502  501  0.00000000000E+00  0.00000000000E+00  0.17940911172E+03  0.17940911172E+03  0.00000000000E+00 0. -1.
         21   -1    0    0  501  502 -0.00000000000E+00 -0.00000000000E+00 -0.28995472389E+03  0.28995472389E+03  0.00000000000E+00 0. -1.
      99926    2    1    2    0    0  0.00000000000E+00 -0.88817841970E-15 -0.11054561217E+03  0.46936383561E+03  0.45616014491E+03 0.  0.
      99925    2    3    3    0    0 -0.11206657054E+03  0.78483025353E+01 -0.48374343891E+02  0.29010623665E+03  0.26306090419E+03 0.  0.
         25    1    4    4    0    0 -0.33956073184E+02  0.21811228251E+02  0.78201129922E+01  0.13167158711E+03  0.12509000000E+03 0.  0.
         25    1    3    3    0    0  0.11206657054E+03 -0.78483025353E+01 -0.62171268281E+02  0.17925759896E+03  0.12509000000E+03 0.  0.
         25    1    4    4    0    0 -0.78110497352E+02 -0.13962925716E+02 -0.56194456883E+02  0.15843464954E+03  0.12509000000E+03 0.  0.
<mgrwt>
<rscale>  2 0.45616014E+03</rscale>
<asrwt>0</asrwt>
<pdfrwt beam="1">  1       21 0.26383693E-01 0.45616014E+03</pdfrwt>
<pdfrwt beam="2">  1       21 0.42640400E-01 0.45616014E+03</pdfrwt>
<totfact> 0.66865662E+04</totfact>
</mgrwt>
</event>
<event>
 7    0  0.4748297E-002  0.4526730E+03  0.7546771E-02  0.1026928E+00
         21   -1    0    0  502  501  0.00000000000E+00  0.00000000000E+00  0.49474710522E+02  0.49474710522E+02  0.00000000000E+00 0. -1.
         21   -1    0    0  501  502 -0.00000000000E+00 -0.00000000000E+00 -0.10354425761E+04  0.10354425761E+04  0.00000000000E+00 0. -1.
      99926    2    1    2    0    0  0.00000000000E+00  0.00000000000E+00 -0.98596786558E+03  0.10849172866E+04  0.45267304631E+03 0.  0.
      99925    2    3    3    0    0 -0.70230438763E+02  0.85778064445E+02 -0.63490400610E+03  0.69609402035E+03  0.26297071572E+03 0.  0.
         25    1    4    4    0    0 -0.73747473408E+01  0.11649605005E+02 -0.25067385878E+03  0.28049062688E+03  0.12509000000E+03 0.  0.
         25    1    4    4    0    0 -0.62855691422E+02  0.74128459440E+02 -0.38423014733E+03  0.41560339347E+03  0.12509000000E+03 0.  0.
         25    1    3    3    0    0  0.70230438763E+02 -0.85778064445E+02 -0.35106385948E+03  0.38882326628E+03  0.12509000000E+03 0.  0.
<mgrwt>
<rscale>  2 0.45267305E+03</rscale>
<asrwt>0</asrwt>
<pdfrwt beam="1">  1       21 0.72756925E-02 0.45267305E+03</pdfrwt>
<pdfrwt beam="2">  1       21 0.15227097E+00 0.45267305E+03</pdfrwt>
<totfact> 0.36683134E+04</totfact>
</mgrwt>
</event>
<event>
 7    0  0.4748297E-002  0.4558092E+03  0.7546771E-02  0.1026004E+00
         21   -1    0    0  502  501  0.00000000000E+00  0.00000000000E+00  0.24505312460E+02  0.24505312460E+02  0.00000000000E+00 0. -1.
         21   -1    0    0  501  502 -0.00000000000E+00 -0.00000000000E+00 -0.21195608165E+04  0.21195608165E+04  0.00000000000E+00 0. -1.
      99926    2    1    2    0    0  0.00000000000E+00  0.00000000000E+00 -0.20950555040E+04  0.21440661289E+04  0.45580917097E+03 0.  0.
      99925    2    3    3    0    0 -0.70753979261E+02 -0.74839273237E+02 -0.15461719985E+04  0.15717658117E+04  0.26304538663E+03 0.  0.
         25    1    3    3    0    0  0.70753979261E+02  0.74839273237E+02 -0.54888350551E+03  0.57230031725E+03  0.12509000000E+03 0.  0.
         25    1    4    4    0    0 -0.87231178304E+01 -0.19747283203E+02 -0.86400286056E+03  0.87327801939E+03  0.12509000000E+03 0.  0.
         25    1    4    4    0    0 -0.62030861431E+02 -0.55091990034E+02 -0.68216913793E+03  0.69848779229E+03  0.12509000000E+03 0.  0.
<mgrwt>
<rscale>  2 0.45580917E+03</rscale>
<asrwt>0</asrwt>
<pdfrwt beam="1">  1       21 0.36037225E-02 0.45580917E+03</pdfrwt>
<pdfrwt beam="2">  1       21 0.31170011E+00 0.45580917E+03</pdfrwt>
<totfact> 0.11425099E+04</totfact>
</mgrwt>
</event>
<event>
 7    0  0.4748297E-002  0.4570994E+03  0.7546771E-02  0.1025626E+00
         21   -1    0    0  502  501  0.00000000000E+00  0.00000000000E+00  0.30667000467E+03  0.30667000467E+03  0.00000000000E+00 0.  1.
         21   -1    0    0  501  502 -0.00000000000E+00 -0.00000000000E+00 -0.17032957647E+03  0.17032957647E+03  0.00000000000E+00 0.  1.
      99926    2    1    2    0    0  0.26645352591E-14  0.00000000000E+00  0.13634042821E+03  0.47699958114E+03  0.45709942905E+03 0.  0.
      99925    2    3    3    0    0 -0.62212961475E+01  0.98335015413E+02  0.23542933111E+02  0.28186049540E+03  0.26302583407E+03 0.  0.
         25    1    3    3    0    0  0.62212961475E+01 -0.98335015413E+02  0.11279749510E+03  0.19513908574E+03  0.12509000000E+03 0.  0.
         25    1    4    4    0    0  0.25612547303E+02  0.73574361626E+02 -0.46538465758E+01  0.14743932873E+03  0.12509000000E+03 0.  0.
         25    1    4    4    0    0 -0.31833843451E+02  0.24760653787E+02  0.28196779687E+02  0.13442116667E+03  0.12509000000E+03 0.  0.
<mgrwt>
<rscale>  2 0.45709943E+03</rscale>
<asrwt>0</asrwt>
<pdfrwt beam="1">  1       21 0.45098530E-01 0.45709943E+03</pdfrwt>
<pdfrwt beam="2">  1       21 0.25048467E-01 0.45709943E+03</pdfrwt>
<totfact> 0.65815734E+04</totfact>
</mgrwt>
</event>
<event>
 7    0  0.4748297E-002  0.4545361E+03  0.7546771E-02  0.1026378E+00
         21   -1    0    0  502  501  0.00000000000E+00  0.00000000000E+00  0.49263809824E+02  0.49263809824E+02  0.00000000000E+00 0. -1.
         21   -1    0    0  501  502 -0.00000000000E+00 -0.00000000000E+00 -0.10484523592E+04  0.10484523592E+04  0.00000000000E+00 0. -1.
      99926    2    1    2    0    0  0.14210854715E-13  0.00000000000E+00 -0.99918854942E+03  0.10977161691E+04  0.45453606077E+03 0.  0.
      99925    2    3    3    0    0 -0.74916963286E+02 -0.59508761141E+02 -0.48444478900E+03  0.55942025506E+03  0.26288861548E+03 0.  0.
         25    1    3    3    0    0  0.74916963286E+02  0.59508761141E+02 -0.51474376042E+03  0.53829591401E+03  0.12509000000E+03 0.  0.
         25    1    4    4    0    0 -0.76328857892E+02 -0.17574818318E+02 -0.26706906365E+03  0.30513662783E+03  0.12509000000E+03 0.  0.
         25    1    4    4    0    0  0.14118946054E+01 -0.41933942823E+02 -0.21737572535E+03  0.25428362723E+03  0.12509000000E+03 0.  0.
<mgrwt>
<rscale>  2 0.45453606E+03</rscale>
<asrwt>0</asrwt>
<pdfrwt beam="1">  1       21 0.72446789E-02 0.45453606E+03</pdfrwt>
<pdfrwt beam="2">  1       21 0.15418415E+00 0.45453606E+03</pdfrwt>
<totfact> 0.35702592E+04</totfact>
</mgrwt>
</event>
<event>
 7    0  0.4748297E-002  0.4569265E+03  0.7546771E-02  0.1025676E+00
         21   -1    0    0  502  501  0.00000000000E+00  0.00000000000E+00  0.16666139039E+03  0.16666139039E+03  0.00000000000E+00 0. -1.
         21   -1    0    0  501  502 -0.00000000000E+00 -0.00000000000E+00 -0.31318270842E+03  0.31318270842E+03  0.00000000000E+00 0. -1.
      99926    2    1    2    0    0  0.00000000000E+00  0.00000000000E+00 -0.14652131804E+03  0.47984409881E+03  0.45692653953E+03 0.  0.
      99925    2    3    3    0    0  0.29125025955E+02 -0.76473851421E+02 -0.82242538454E+01  0.27620200308E+03  0.26367288648E+03 0.  0.
         25    1    3    3    0    0 -0.29125025955E+02  0.76473851421E+02 -0.13829706419E+03  0.20364209573E+03  0.12509000000E+03 0.  0.
         25    1    4    4    0    0  0.55679266450E+02 -0.45487839015E+02 -0.98217421653E+01  0.14461431094E+03  0.12509000000E+03 0.  0.
         25    1    4    4    0    0 -0.26554240495E+02 -0.30986012406E+02  0.15974883199E+01  0.13158769214E+03  0.12509000000E+03 0.  0.
<mgrwt>
<rscale>  2 0.45692654E+03</rscale>
<asrwt>0</asrwt>
<pdfrwt beam="1">  1       21 0.24509028E-01 0.45692654E+03</pdfrwt>
<pdfrwt beam="2">  1       21 0.46056281E-01 0.45692654E+03</pdfrwt>
<totfact> 0.65701040E+04</totfact>
</mgrwt>
</event>
<event>
 7    0  0.4748297E-002  0.4512251E+03  0.7546771E-02  0.1027357E+00
         21   -1    0    0  502  501  0.00000000000E+00  0.00000000000E+00  0.13682463256E+04  0.13682463256E+04  0.00000000000E+00 0.  1.
         21   -1    0    0  501  502 -0.00000000000E+00 -0.00000000000E+00 -0.37201658422E+02  0.37201658422E+02  0.00000000000E+00 0.  1.
      99926    2    1    2    0    0  0.00000000000E+00  0.00000000000E+00  0.13310446672E+04  0.14054479840E+04  0.45122514310E+03 0.  0.
      99925    2    3    3    0    0  0.18912032985E+01  0.96902067353E+02  0.10006733328E+04  0.10391334826E+04  0.26278829554E+03 0.  0.
         25    1    4    4    0    0  0.38169295157E+01  0.99786278886E+01  0.38804140730E+03  0.40784529401E+03  0.12509000000E+03 0.  0.
         25    1    4    4    0    0 -0.19257262171E+01  0.86923439465E+02  0.61263192554E+03  0.63128818858E+03  0.12509000000E+03 0.  0.
         25    1    3    3    0    0 -0.18912032985E+01 -0.96902067353E+02  0.33037133432E+03  0.36631450142E+03  0.12509000000E+03 0.  0.
<mgrwt>
<rscale>  2 0.45122514E+03</rscale>
<asrwt>0</asrwt>
<pdfrwt beam="1">  1       21 0.20121266E+00 0.45122514E+03</pdfrwt>
<pdfrwt beam="2">  1       21 0.54708330E-02 0.45122514E+03</pdfrwt>
<totfact> 0.26969700E+04</totfact>
</mgrwt>
</event>
<event>
 7    0  0.4748297E-002  0.4468526E+03  0.7546771E-02  0.1028665E+00
         21   -1    0    0  502  501  0.00000000000E+00  0.00000000000E+00  0.14925318818E+04  0.14925318818E+04  0.00000000000E+00 0.  1.
         21   -1    0    0  501  502 -0.00000000000E+00 -0.00000000000E+00 -0.33446063616E+02  0.33446063616E+02  0.00000000000E+00 0.  1.
      99926    2    1    2    0    0  0.00000000000E+00  0.00000000000E+00  0.14590858182E+04  0.15259779455E+04  0.44685262120E+03 0.  0.
      99925    2    3    3    0    0  0.86373723864E+02 -0.36814264258E+02  0.76165005793E+03  0.81121934420E+03  0.26296445280E+03 0.  0.
         25    1    4    4    0    0  0.64948782353E+02 -0.49809257714E+01  0.48672797916E+03  0.50674923557E+03  0.12509000000E+03 0.  0.
         25    1    4    4    0    0  0.21424941511E+02 -0.31833338486E+02  0.27492207876E+03  0.30447010863E+03  0.12509000000E+03 0.  0.
         25    1    3    3    0    0 -0.86373723864E+02  0.36814264258E+02  0.69743576029E+03  0.71475860125E+03  0.12509000000E+03 0.  0.
<mgrwt>
<rscale>  2 0.44685262E+03</rscale>
<asrwt>0</asrwt>
<pdfrwt beam="1">  1       21 0.21948994E+00 0.44685262E+03</pdfrwt>
<pdfrwt beam="2">  1       21 0.49185398E-02 0.44685262E+03</pdfrwt>
<totfact> 0.24674428E+04</totfact>
</mgrwt>
</event>
<event>
 7    0  0.4748297E-002  0.4560675E+03  0.7546771E-02  0.1025928E+00
         21   -1    0    0  502  501  0.00000000000E+00  0.00000000000E+00  0.16718604161E+04  0.16718604161E+04  0.00000000000E+00 0. -1.
         21   -1    0    0  501  502 -0.00000000000E+00 -0.00000000000E+00 -0.31102712062E+02  0.31102712062E+02  0.00000000000E+00 0. -1.
      99926    2    1    2    0    0  0.00000000000E+00  0.35527136788E-14  0.16407577040E+04  0.17029631282E+04  0.45606750873E+03 0.  0.
      99925    2    3    3    0    0  0.11106798588E+03  0.16044106899E+02  0.94026611867E+03  0.98259552747E+03  0.26229770459E+03 0.  0.
         25    1    4    4    0    0  0.38134412589E+02  0.43668291214E+02  0.44971946701E+03  0.47037884752E+03  0.12509000000E+03 0.  0.
         25    1    3    3    0    0 -0.11106798588E+03 -0.16044106899E+02  0.70049158537E+03  0.72036760069E+03  0.12509000000E+03 0.  0.
         25    1    4    4    0    0  0.72933573287E+02 -0.27624184315E+02  0.49054665166E+03  0.51221667995E+03  0.12509000000E+03 0.  0.
<mgrwt>
<rscale>  2 0.45606751E+03</rscale>
<asrwt>0</asrwt>
<pdfrwt beam="1">  1       21 0.24586176E+00 0.45606751E+03</pdfrwt>
<pdfrwt beam="2">  1       21 0.45739294E-02 0.45606751E+03</pdfrwt>
<totfact> 0.19041803E+04</totfact>
</mgrwt>
</event>
<event>
 7    0  0.4748297E-002  0.4575508E+03  0.7546771E-02  0.1025494E+00
         21   -1    0    0  502  501  0.00000000000E+00  0.00000000000E+00  0.46554980011E+02  0.46554980011E+02  0.00000000000E+00 0. -1.
         21   -1    0    0  501  502 -0.00000000000E+00 -0.00000000000E+00 -0.11242232967E+04  0.11242232967E+04  0.00000000000E+00 0. -1.
      99926    2    1    2    0    0  0.00000000000E+00 -0.71054273576E-14 -0.10776683167E+04  0.11707782767E+04  0.45755084135E+03 0.  0.
      99925    2    3    3    0    0  0.23827061097E+02 -0.41863984969E+02 -0.94550077904E+03  0.98253352064E+03  0.26283088466E+03 0.  0.
         25    1    4    4    0    0  0.12688027853E+02  0.40510898072E+01 -0.57614952669E+03  0.58972297105E+03  0.12509000000E+03 0.  0.
         25    1    4    4    0    0  0.11139033244E+02 -0.45915074777E+02 -0.36935125234E+03  0.39281054958E+03  0.12509000000E+03 0.  0.
         25    1    3    3    0    0 -0.23827061097E+02  0.41863984969E+02 -0.13216753762E+03  0.18824475605E+03  0.12509000000E+03 0.  0.
<mgrwt>
<rscale>  2 0.45755084E+03</rscale>
<asrwt>0</asrwt>
<pdfrwt beam="1">  1       21 0.68463217E-02 0.45755084E+03</pdfrwt>
<pdfrwt beam="2">  1       21 0.16532693E+00 0.45755084E+03</pdfrwt>
<totfact> 0.32446423E+04</totfact>
</mgrwt>
</event>
<event>
 7    0  0.4748297E-002  0.4490880E+03  0.7546771E-02  0.1027994E+00
         21   -1    0    0  502  501  0.00000000000E+00  0.00000000000E+00  0.16993997284E+03  0.16993997284E+03  0.00000000000E+00 0. -1.
         21   -1    0    0  501  502 -0.00000000000E+00 -0.00000000000E+00 -0.29669300926E+03  0.29669300926E+03  0.00000000000E+00 0. -1.
      99926    2    1    2    0    0  0.00000000000E+00  0.00000000000E+00 -0.12675303642E+03  0.46663298210E+03  0.44908797328E+03 0.  0.
      99925    2    3    3    0    0 -0.78752855548E+02  0.34608768317E+02 -0.14717557201E+03  0.31345215053E+03  0.26304338535E+03 0.  0.
         25    1    4    4    0    0 -0.44705104909E+02  0.41456563920E+01 -0.30406645357E+02  0.13633710080E+03  0.12509000000E+03 0.  0.
         25    1    4    4    0    0 -0.34047750639E+02  0.30463111925E+02 -0.11676892665E+03  0.17711504974E+03  0.12509000000E+03 0.  0.
         25    1    3    3    0    0  0.78752855548E+02 -0.34608768317E+02  0.20422535587E+02  0.15318083157E+03  0.12509000000E+03 0.  0.
<mgrwt>
<rscale>  2 0.44908797E+03</rscale>
<asrwt>0</asrwt>
<pdfrwt beam="1">  1       21 0.24991173E-01 0.44908797E+03</pdfrwt>
<pdfrwt beam="2">  1       21 0.43631324E-01 0.44908797E+03</pdfrwt>
<totfact> 0.70957061E+04</totfact>
</mgrwt>
</event>
<event>
 7    0  0.4748297E-002  0.4575090E+03  0.7546771E-02  0.1025506E+00
         21   -1    0    0  502  501  0.00000000000E+00  0.00000000000E+00  0.24950250216E+03  0.24950250216E+03  0.00000000000E+00 0. -1.
         21   -1    0    0  501  502 -0.00000000000E+00 -0.00000000000E+00 -0.20973180469E+03  0.20973180469E+03  0.00000000000E+00 0. -1.
      99926    2    1    2    0    0 -0.14210854715E-13 -0.17763568394E-14  0.39770697470E+02  0.45923430684E+03  0.45750895095E+03 0.  0.
      99925    2    3    3    0    0 -0.67589941747E+02 -0.12048185509E+02 -0.68071059036E+02  0.28037427345E+03  0.26317770638E+03 0.  0.
         25    1    3    3    0    0  0.67589941747E+02  0.12048185509E+02  0.10784175651E+03  0.17886003339E+03  0.12509000000E+03 0.  0.
         25    1    4    4    0    0 -0.48119529027E+02  0.50203904206E+01  0.30768214229E+01  0.13415538872E+03  0.12509000000E+03 0.  0.
         25    1    4    4    0    0 -0.19470412720E+02 -0.17068575930E+02 -0.71147880459E+02  0.14621888472E+03  0.12509000000E+03 0.  0.
<mgrwt>
<rscale>  2 0.45750895E+03</rscale>
<asrwt>0</asrwt>
<pdfrwt beam="1">  1       21 0.36691545E-01 0.45750895E+03</pdfrwt>
<pdfrwt beam="2">  1       21 0.30842912E-01 0.45750895E+03</pdfrwt>
<totfact> 0.66887697E+04</totfact>
</mgrwt>
</event>
<event>
 7    0  0.4748297E-002  0.4457718E+03  0.7546771E-02  0.1028990E+00
         21   -1    0    0  502  501  0.00000000000E+00  0.00000000000E+00  0.53370960625E+03  0.53370960625E+03  0.00000000000E+00 0. -1.
         21   -1    0    0  501  502 -0.00000000000E+00 -0.00000000000E+00 -0.93080807329E+02  0.93080807329E+02  0.00000000000E+00 0. -1.
      99926    2    1    2    0    0  0.00000000000E+00  0.00000000000E+00  0.44062879892E+03  0.62679041357E+03  0.44577178479E+03 0.  0.
      99925    2    3    3    0    0  0.25435410614E+02 -0.95201419819E+02  0.23782474968E+03  0.36893917558E+03  0.26428248763E+03 0.  0.
         25    1    4    4    0    0 -0.23285650791E+02 -0.47490441405E+02  0.86077613076E+02  0.16079311904E+03  0.12509000000E+03 0.  0.
         25    1    4    4    0    0  0.48721061404E+02 -0.47710978414E+02  0.15174713661E+03  0.20814605654E+03  0.12509000000E+03 0.  0.
         25    1    3    3    0    0 -0.25435410614E+02  0.95201419819E+02  0.20280404923E+03  0.25785123799E+03  0.12509000000E+03 0.  0.
<mgrwt>
<rscale>  2 0.44577178E+03</rscale>
<asrwt>0</asrwt>
<pdfrwt beam="1">  1       21 0.78486705E-01 0.44577178E+03</pdfrwt>
<pdfrwt beam="2">  1       21 0.13688354E-01 0.44577178E+03</pdfrwt>
<totfact> 0.61411929E+04</totfact>
</mgrwt>
</event>
<event>
 7    0  0.4748297E-002  0.4627386E+03  0.7546771E-02  0.1023990E+00
         21   -1    0    0  502  501  0.00000000000E+00  0.00000000000E+00  0.67486731060E+03  0.67486731060E+03  0.00000000000E+00 0. -1.
         21   -1    0    0  501  502 -0.00000000000E+00 -0.00000000000E+00 -0.79321892883E+02  0.79321892883E+02  0.00000000000E+00 0. -1.
      99926    2    1    2    0    0  0.00000000000E+00 -0.14210854715E-13  0.59554541772E+03  0.75418920348E+03  0.46273859801E+03 0.  0.
      99925    2    3    3    0    0  0.87063199433E+02  0.82892113857E+02  0.36618620486E+03  0.46660572020E+03  0.26301607985E+03 0.  0.
         25    1    4    4    0    0  0.16239474822E+02  0.34114153839E+02  0.12017257924E+03  0.17752873833E+03  0.12509000000E+03 0.  0.
         25    1    4    4    0    0  0.70823724610E+02  0.48777960017E+02  0.24601362563E+03  0.28907698187E+03  0.12509000000E+03 0.  0.
         25    1    3    3    0    0 -0.87063199433E+02 -0.82892113857E+02  0.22935921285E+03  0.28758348328E+03  0.12509000000E+03 0.  0.
<mgrwt>
<rscale>  2 0.46273860E+03</rscale>
<asrwt>0</asrwt>
<pdfrwt beam="1">  1       21 0.99245189E-01 0.46273860E+03</pdfrwt>
<pdfrwt beam="2">  1       21 0.11664985E-01 0.46273860E+03</pdfrwt>
<totfact> 0.47125615E+04</totfact>
</mgrwt>
</event>
<event>
 7    0  0.4748297E-002  0.4572912E+03  0.7546771E-02  0.1025570E+00
         21   -1    0    0  502  501  0.00000000000E+00  0.00000000000E+00  0.27032411892E+03  0.27032411892E+03  0.00000000000E+00 0.  1.
         21   -1    0    0  501  502 -0.00000000000E+00 -0.00000000000E+00 -0.19339310022E+03  0.19339310022E+03  0.00000000000E+00 0.  1.
      99926    2    1    2    0    0  0.00000000000E+00  0.35527136788E-14  0.76931018697E+02  0.46371721914E+03  0.45729123946E+03 0.  0.
      99925    2    3    3    0    0 -0.42048639913E+02 -0.25971436868E+02 -0.57394110722E+02  0.27362947060E+03  0.26293801472E+03 0.  0.
         25    1    4    4    0    0  0.19040338749E+02 -0.20049513403E+02 -0.31181230672E+02  0.13184951548E+03  0.12509000000E+03 0.  0.
         25    1    4    4    0    0 -0.61088978662E+02 -0.59219234652E+01 -0.26212880049E+02  0.14177995511E+03  0.12509000000E+03 0.  0.
         25    1    3    3    0    0  0.42048639913E+02  0.25971436868E+02  0.13432512942E+03  0.19008774854E+03  0.12509000000E+03 0.  0.
<mgrwt>
<rscale>  2 0.45729124E+03</rscale>
<asrwt>0</asrwt>
<pdfrwt beam="1">  1       21 0.39753547E-01 0.45729124E+03</pdfrwt>
<pdfrwt beam="2">  1       21 0.28440162E-01 0.45729124E+03</pdfrwt>
<totfact> 0.66682566E+04</totfact>
</mgrwt>
</event>
<event>
 7    0  0.4748297E-002  0.4887457E+03  0.7546771E-02  0.1016759E+00
         21   -1    0    0  502  501  0.00000000000E+00  0.00000000000E+00  0.78144789668E+03  0.78144789668E+03  0.00000000000E+00 0. -1.
         21   -1    0    0  501  502 -0.00000000000E+00 -0.00000000000E+00 -0.76419806350E+02  0.76419806350E+02  0.00000000000E+00 0. -1.
      99926    2    1    2    0    0  0.00000000000E+00 -0.14210854715E-13  0.70502809033E+03  0.85786770303E+03  0.48874572913E+03 0.  0.
      99925    2    3    3    0    0  0.64924506885E+02 -0.93832849613E+02  0.28152840856E+03  0.40177639220E+03  0.26295670601E+03 0.  0.
         25    1    4    4    0    0  0.73946054120E+02 -0.51540778025E+02  0.14591106928E+03  0.21227816411E+03  0.12509000000E+03 0.  0.
         25    1    4    4    0    0 -0.90215472350E+01 -0.42292071588E+02  0.13561733928E+03  0.18949822809E+03  0.12509000000E+03 0.  0.
         25    1    3    3    0    0 -0.64924506885E+02  0.93832849613E+02  0.42349968177E+03  0.45609131083E+03  0.12509000000E+03 0.  0.
<mgrwt>
<rscale>  2 0.48874573E+03</rscale>
<asrwt>0</asrwt>
<pdfrwt beam="1">  1       21 0.11491880E+00 0.48874573E+03</pdfrwt>
<pdfrwt beam="2">  1       21 0.11238207E-01 0.48874573E+03</pdfrwt>
<totfact> 0.34893541E+04</totfact>
</mgrwt>
</event>
<event>
 7    0  0.4748297E-002  0.4434389E+03  0.7546771E-02  0.1029697E+00
         21   -1    0    0  502  501  0.00000000000E+00  0.00000000000E+00  0.41170918436E+03  0.41170918436E+03  0.00000000000E+00 0.  1.
         21   -1    0    0  501  502 -0.00000000000E+00 -0.00000000000E+00 -0.11940351008E+03  0.11940351008E+03  0.00000000000E+00 0.  1.
      99926    2    1    2    0    0  0.00000000000E+00  0.35527136788E-14  0.29230567428E+03  0.53111269444E+03  0.44343893264E+03 0.  0.
      99925    2    3    3    0    0 -0.33355633385E+01 -0.16414208444E+02  0.65422794583E+02  0.27149008098E+03  0.26295659299E+03 0.  0.
         25    1    4    4    0    0  0.77948449488E+00 -0.46044730605E+02  0.48105084454E+02  0.14171214508E+03  0.12509000000E+03 0.  0.
         25    1    3    3    0    0  0.33355633385E+01  0.16414208444E+02  0.22688287969E+03  0.25962261346E+03  0.12509000000E+03 0.  0.
         25    1    4    4    0    0 -0.41150478333E+01  0.29630522161E+02  0.17317710129E+02  0.12977793590E+03  0.12509000000E+03 0.  0.
<mgrwt>
<rscale>  2 0.44343893E+03</rscale>
<asrwt>0</asrwt>
<pdfrwt beam="1">  1       21 0.60545468E-01 0.44343893E+03</pdfrwt>
<pdfrwt beam="2">  1       21 0.17559340E-01 0.44343893E+03</pdfrwt>
<totfact> 0.69255600E+04</totfact>
</mgrwt>
</event>
<event>
 7    0  0.4748297E-002  0.4463339E+03  0.7546771E-02  0.1028821E+00
         21   -1    0    0  502  501  0.00000000000E+00  0.00000000000E+00  0.11527389224E+03  0.11527389224E+03  0.00000000000E+00 0.  1.
         21   -1    0    0  501  502 -0.00000000000E+00 -0.00000000000E+00 -0.43204479685E+03  0.43204479685E+03  0.00000000000E+00 0.  1.
      99926    2    1    2    0    0  0.88817841970E-15  0.00000000000E+00 -0.31677090461E+03  0.54731868910E+03  0.44633389007E+03 0.  0.
      99925    2    3    3    0    0  0.59835277619E+01  0.74692641039E+02 -0.29130111968E+03  0.39929500425E+03  0.26261257560E+03 0.  0.
         25    1    3    3    0    0 -0.59835277619E+01 -0.74692641039E+02 -0.25469784924E+02  0.14802368484E+03  0.12509000000E+03 0.  0.
         25    1    4    4    0    0  0.19656081176E+02  0.16201386257E+02 -0.96047122657E+02  0.15975419968E+03  0.12509000000E+03 0.  0.
         25    1    4    4    0    0 -0.13672553414E+02  0.58491254782E+02 -0.19525399703E+03  0.23954080458E+03  0.12509000000E+03 0.  0.
<mgrwt>
<rscale>  2 0.44633389E+03</rscale>
<asrwt>0</asrwt>
<pdfrwt beam="1">  1       21 0.16952043E-01 0.44633389E+03</pdfrwt>
<pdfrwt beam="2">  1       21 0.63535999E-01 0.44633389E+03</pdfrwt>
<totfact> 0.66487069E+04</totfact>
</mgrwt>
</event>
<event>
 7    0  0.4748297E-002  0.4622042E+03  0.7546771E-02  0.1024144E+00
         21   -1    0    0  502  501  0.00000000000E+00  0.00000000000E+00  0.32296188992E+03  0.32296188992E+03  0.00000000000E+00 0.  1.
         21   -1    0    0  501  502 -0.00000000000E+00 -0.00000000000E+00 -0.16536994380E+03  0.16536994380E+03  0.00000000000E+00 0.  1.
      99926    2    1    2    0    0  0.71054273576E-14  0.14210854715E-13  0.15759194612E+03  0.48833183372E+03  0.46220423878E+03 0.  0.
      99925    2    3    3    0    0  0.50170194886E+02  0.10199968991E+03  0.58565493861E+02  0.29243713869E+03  0.26299919737E+03 0.  0.
         25    1    3    3    0    0 -0.50170194886E+02 -0.10199968991E+03  0.99026452258E+02  0.19589469504E+03  0.12509000000E+03 0.  0.
         25    1    4    4    0    0 -0.27229574129E+01  0.72957006793E+02  0.95248511776E+01  0.14514947546E+03  0.12509000000E+03 0.  0.
         25    1    4    4    0    0  0.52893152299E+02  0.29042683117E+02  0.49040642684E+02  0.14728766322E+03  0.12509000000E+03 0.  0.
<mgrwt>
<rscale>  2 0.46220424E+03</rscale>
<asrwt>0</asrwt>
<pdfrwt beam="1">  1       21 0.47494396E-01 0.46220424E+03</pdfrwt>
<pdfrwt beam="2">  1       21 0.24319109E-01 0.46220424E+03</pdfrwt>
<totfact> 0.62449851E+04</totfact>
</mgrwt>
</event>
<event>
 7    0  0.4748297E-002  0.4398433E+03  0.7546771E-02  0.1030795E+00
         21   -1    0    0  502  501  0.00000000000E+00  0.00000000000E+00  0.53006036182E+03  0.53006036182E+03  0.00000000000E+00 0. -1.
         21   -1    0    0  501  502 -0.00000000000E+00 -0.00000000000E+00 -0.91245348166E+02  0.91245348166E+02  0.00000000000E+00 0. -1.
      99926    2    1    2    0    0  0.00000000000E+00  0.71054273576E-14  0.43881501365E+03  0.62130570999E+03  0.43984334604E+03 0.  0.
      99925    2    3    3    0    0  0.68749524784E+02 -0.42625680947E+02  0.20168021695E+03  0.34126309583E+03  0.26313902187E+03 0.  0.
         25    1    4    4    0    0  0.28578006367E+02  0.12024405670E+02  0.12537873100E+03  0.17980162143E+03  0.12509000000E+03 0.  0.
         25    1    4    4    0    0  0.40171518417E+02 -0.54650086617E+02  0.76301485944E+02  0.16146147440E+03  0.12509000000E+03 0.  0.
         25    1    3    3    0    0 -0.68749524784E+02  0.42625680947E+02  0.23713479671E+03  0.28004261416E+03  0.12509000000E+03 0.  0.
<mgrwt>
<rscale>  2 0.43984335E+03</rscale>
<asrwt>0</asrwt>
<pdfrwt beam="1">  1       21 0.77950052E-01 0.43984335E+03</pdfrwt>
<pdfrwt beam="2">  1       21 0.13418434E-01 0.43984335E+03</pdfrwt>
<totfact> 0.64798768E+04</totfact>
</mgrwt>
</event>
<event>
 7    0  0.4748297E-002  0.4526319E+03  0.7546771E-02  0.1026940E+00
         21   -1    0    0  502  501  0.00000000000E+00  0.00000000000E+00  0.52685224470E+03  0.52685224470E+03  0.00000000000E+00 0. -1.
         21   -1    0    0  501  502 -0.00000000000E+00 -0.00000000000E+00 -0.97216841261E+02  0.97216841261E+02  0.00000000000E+00 0. -1.
      99926    2    1    2    0    0 -0.71054273576E-14  0.00000000000E+00  0.42963540344E+03  0.62406908596E+03  0.45263190803E+03 0.  0.
      99925    2    3    3    0    0  0.59813587965E+02  0.39790334305E+02  0.15419779380E+03  0.31314414178E+03  0.26290941008E+03 0.  0.
         25    1    4    4    0    0 -0.11021707233E+02  0.17911964723E+02  0.79094521602E+02  0.14948500914E+03  0.12509000000E+03 0.  0.
         25    1    4    4    0    0  0.70835295198E+02  0.21878369582E+02  0.75103272198E+02  0.16365913264E+03  0.12509000000E+03 0.  0.
         25    1    3    3    0    0 -0.59813587965E+02 -0.39790334305E+02  0.27543760964E+03  0.31092494418E+03  0.12509000000E+03 0.  0.
<mgrwt>
<rscale>  2 0.45263191E+03</rscale>
<asrwt>0</asrwt>
<pdfrwt beam="1">  1       21 0.77478270E-01 0.45263191E+03</pdfrwt>
<pdfrwt beam="2">  1       21 0.14296595E-01 0.45263191E+03</pdfrwt>
<totfact> 0.58303156E+04</totfact>
</mgrwt>
</event>
<event>
 7    0  0.4748297E-002  0.4585021E+03  0.7546771E-02  0.1025217E+00
         21   -1    0    0  502  501  0.00000000000E+00  0.00000000000E+00  0.21863960019E+03  0.21863960019E+03  0.00000000000E+00 0. -1.
         21   -1    0    0  501  502 -0.00000000000E+00 -0.00000000000E+00 -0.24037754175E+03  0.24037754175E+03  0.00000000000E+00 0. -1.
      99926    2    1    2    0    0 -0.17763568394E-14  0.00000000000E+00 -0.21737941560E+02  0.45901714195E+03  0.45850212486E+03 0.  0.
      99925    2    3    3    0    0 -0.11831822004E+02 -0.69895296824E+02  0.78642858663E+02  0.28366276452E+03  0.26316253576E+03 0.  0.
         25    1    4    4    0    0 -0.42258967117E+02 -0.20234640849E+02  0.50720370967E+02  0.14288220716E+03  0.12509000000E+03 0.  0.
         25    1    3    3    0    0  0.11831822004E+02  0.69895296824E+02 -0.10038080022E+03  0.17535437743E+03  0.12509000000E+03 0.  0.
         25    1    4    4    0    0  0.30427145113E+02 -0.49660655974E+02  0.27922487697E+02  0.14078055736E+03  0.12509000000E+03 0.  0.
<mgrwt>
<rscale>  2 0.45850212E+03</rscale>
<asrwt>0</asrwt>
<pdfrwt beam="1">  1       21 0.32152882E-01 0.45850212E+03</pdfrwt>
<pdfrwt beam="2">  1       21 0.35349639E-01 0.45850212E+03</pdfrwt>
<totfact> 0.66378234E+04</totfact>
</mgrwt>
</event>
<event>
 7    0  0.4748297E-002  0.4478459E+03  0.7546771E-02  0.1028366E+00
         21   -1    0    0  502  501  0.00000000000E+00  0.00000000000E+00  0.31815501650E+02  0.31815501650E+02  0.00000000000E+00 0.  1.
         21   -1    0    0  501  502 -0.00000000000E+00 -0.00000000000E+00 -0.15760082794E+04  0.15760082794E+04  0.00000000000E+00 0.  1.
      99926    2    1    2    0    0 -0.14210854715E-13  0.00000000000E+00 -0.15441927778E+04  0.16078237811E+04  0.44784592893E+03 0.  0.
      99925    2    3    3    0    0  0.77416202416E+02  0.64375453813E+02 -0.11015068156E+04  0.11369141967E+04  0.26290522702E+03 0.  0.
         25    1    3    3    0    0 -0.77416202416E+02 -0.64375453813E+02 -0.44268596218E+03  0.47090958438E+03  0.12509000000E+03 0.  0.
         25    1    4    4    0    0  0.49863372769E+02 -0.51694897211E+01 -0.57749860199E+03  0.59301367857E+03  0.12509000000E+03 0.  0.
         25    1    4    4    0    0  0.27552829647E+02  0.69544943534E+02 -0.52400821359E+03  0.54390051811E+03  0.12509000000E+03 0.  0.
<mgrwt>
<rscale>  2 0.44784593E+03</rscale>
<asrwt>0</asrwt>
<pdfrwt beam="1">  1       21 0.46787478E-02 0.44784593E+03</pdfrwt>
<pdfrwt beam="2">  1       21 0.23176604E+00 0.44784593E+03</pdfrwt>
<totfact> 0.22476449E+04</totfact>
</mgrwt>
</event>
<event>
 7    0  0.4748297E-002  0.4587423E+03  0.7546771E-02  0.1025147E+00
         21   -1    0    0  502  501  0.00000000000E+00  0.00000000000E+00  0.60134250660E+03  0.60134250660E+03  0.00000000000E+00 0. -1.
         21   -1    0    0  501  502 -0.00000000000E+00 -0.00000000000E+00 -0.87489453952E+02  0.87489453952E+02  0.00000000000E+00 0. -1.
      99926    2    1    2    0    0  0.00000000000E+00  0.14210854715E-13  0.51385305264E+03  0.68883196055E+03  0.45874231346E+03 0.  0.
      99925    2    3    3    0    0  0.19946486917E+02 -0.10448163099E+03  0.39417917523E+03  0.48564825404E+03  0.26298808131E+03 0.  0.
         25    1    4    4    0    0  0.10119054098E+02 -0.87479724194E+02  0.25601220772E+03  0.29823624194E+03  0.12509000000E+03 0.  0.
         25    1    3    3    0    0 -0.19946486917E+02  0.10448163099E+03  0.11967387742E+03  0.20318370651E+03  0.12509000000E+03 0.  0.
         25    1    4    4    0    0  0.98274328183E+01 -0.17001906801E+02  0.13816696750E+03  0.18741201210E+03  0.12509000000E+03 0.  0.
<mgrwt>
<rscale>  2 0.45874231E+03</rscale>
<asrwt>0</asrwt>
<pdfrwt beam="1">  1       21 0.88432719E-01 0.45874231E+03</pdfrwt>
<pdfrwt beam="2">  1       21 0.12866097E-01 0.45874231E+03</pdfrwt>
<totfact> 0.51965688E+04</totfact>
</mgrwt>
</event>
<event>
 7    0  0.4748297E-002  0.4548564E+03  0.7546771E-02  0.1026284E+00
         21   -1    0    0  502  501  0.00000000000E+00  0.00000000000E+00  0.14237545465E+03  0.14237545465E+03  0.00000000000E+00 0. -1.
         21   -1    0    0  501  502 -0.00000000000E+00 -0.00000000000E+00 -0.36328997374E+03  0.36328997374E+03  0.00000000000E+00 0. -1.
      99926    2    1    2    0    0  0.35527136788E-14  0.00000000000E+00 -0.22091451908E+03  0.50566542839E+03  0.45485635175E+03 0.  0.
      99925    2    3    3    0    0 -0.22511372809E+02  0.82022389260E+02 -0.22185222998E+03  0.35439473841E+03  0.26295015577E+03 0.  0.
         25    1    4    4    0    0 -0.46437224013E+02  0.42490579890E+02 -0.87639476539E+02  0.16519700694E+03  0.12509000000E+03 0.  0.
         25    1    3    3    0    0  0.22511372809E+02 -0.82022389260E+02  0.93771089626E+00  0.15127068998E+03  0.12509000000E+03 0.  0.
         25    1    4    4    0    0  0.23925851203E+02  0.39531809370E+02 -0.13421275344E+03  0.18919773147E+03  0.12509000000E+03 0.  0.
<mgrwt>
<rscale>  2 0.45485635E+03</rscale>
<asrwt>0</asrwt>
<pdfrwt beam="1">  1       21 0.20937567E-01 0.45485635E+03</pdfrwt>
<pdfrwt beam="2">  1       21 0.53424996E-01 0.45485635E+03</pdfrwt>
<totfact> 0.64948474E+04</totfact>
</mgrwt>
</event>
<event>
 7    0  0.4748297E-002  0.4768346E+03  0.7546771E-02  0.1020009E+00
         21   -1    0    0  502  501  0.00000000000E+00  0.00000000000E+00  0.64379375959E+02  0.64379375959E+02  0.00000000000E+00 0.  1.
         21   -1    0    0  501  502 -0.00000000000E+00 -0.00000000000E+00 -0.88293517067E+03  0.88293517067E+03  0.00000000000E+00 0.  1.
      99926    2    1    2    0    0 -0.14210854715E-13  0.00000000000E+00 -0.81855579471E+03  0.94731454663E+03  0.47683462668E+03 0.  0.
      99925    2    3    3    0    0 -0.65498948837E+02  0.83972995883E+02 -0.35106321143E+03  0.45179623227E+03  0.26369088104E+03 0.  0.
         25    1    4    4    0    0 -0.45352333417E+02  0.19732952060E+01 -0.17633876419E+03  0.22091535913E+03  0.12509000000E+03 0.  0.
         25    1    3    3    0    0  0.65498948837E+02 -0.83972995883E+02 -0.46749258328E+03  0.49551831435E+03  0.12509000000E+03 0.  0.
         25    1    4    4    0    0 -0.20146615420E+02  0.81999700677E+02 -0.17472444723E+03  0.23088087315E+03  0.12509000000E+03 0.  0.
<mgrwt>
<rscale>  2 0.47683463E+03</rscale>
<asrwt>0</asrwt>
<pdfrwt beam="1">  1       21 0.94675560E-02 0.47683463E+03</pdfrwt>
<pdfrwt beam="2">  1       21 0.12984340E+00 0.47683463E+03</pdfrwt>
<totfact> 0.34895955E+04</totfact>
</mgrwt>
</event>
<event>
 7    0  0.4748297E-002  0.4452922E+03  0.7546771E-02  0.1029135E+00
         21   -1    0    0  502  501  0.00000000000E+00  0.00000000000E+00  0.43239768279E+03  0.43239768279E+03  0.00000000000E+00 0.  1.
         21   -1    0    0  501  502 -0.00000000000E+00 -0.00000000000E+00 -0.11464280373E+03  0.11464280373E+03  0.00000000000E+00 0.  1.
      99926    2    1    2    0    0  0.17763568394E-14  0.00000000000E+00  0.31775487906E+03  0.54704048652E+03  0.44529218579E+03 0.  0.
      99925    2    3    3    0    0  0.86646184079E+01 -0.10173974350E+03  0.17878561045E+03  0.33400054487E+03  0.26299433159E+03 0.  0.
         25    1    4    4    0    0 -0.21199880855E+02 -0.41144046266E+02  0.12250288195E+03  0.18109867939E+03  0.12509000000E+03 0.  0.
         25    1    3    3    0    0 -0.86646184079E+01  0.10173974350E+03  0.13896926861E+03  0.21303994165E+03  0.12509000000E+03 0.  0.
         25    1    4    4    0    0  0.29864499263E+02 -0.60595697231E+02  0.56282728500E+02  0.15290186548E+03  0.12509000000E+03 0.  0.
<mgrwt>
<rscale>  2 0.44529219E+03</rscale>
<asrwt>0</asrwt>
<pdfrwt beam="1">  1       21 0.63587894E-01 0.44529219E+03</pdfrwt>
<pdfrwt beam="2">  1       21 0.16859236E-01 0.44529219E+03</pdfrwt>
<totfact> 0.67067538E+04</totfact>
</mgrwt>
</event>
<event>
 7    0  0.4748297E-002  0.4506526E+03  0.7546771E-02  0.1027528E+00
         21   -1    0    0  502  501  0.00000000000E+00  0.00000000000E+00  0.19272879427E+04  0.19272879427E+04  0.00000000000E+00 0. -1.
         21   -1    0    0  501  502 -0.00000000000E+00 -0.00000000000E+00 -0.26343725594E+02  0.26343725594E+02  0.00000000000E+00 0. -1.
      99926    2    1    2    0    0  0.71054273576E-14 -0.14210854715E-13  0.19009442171E+04  0.19536316683E+04  0.45065261435E+03 0.  0.
      99925    2    3    3    0    0 -0.53829276609E+02  0.71002887935E+02  0.92833790839E+03  0.96897460060E+03  0.26298574739E+03 0.  0.
         25    1    3    3    0    0  0.53829276609E+02 -0.71002887935E+02  0.97260630875E+03  0.98465706773E+03  0.12509000000E+03 0.  0.
         25    1    4    4    0    0 -0.25060262764E+02  0.76998522968E+02  0.51500370127E+03  0.53612788561E+03  0.12509000000E+03 0.  0.
         25    1    4    4    0    0 -0.28769013845E+02 -0.59956350331E+01  0.41333420712E+03  0.43284671498E+03  0.12509000000E+03 0.  0.
<mgrwt>
<rscale>  2 0.45065261E+03</rscale>
<asrwt>0</asrwt>
<pdfrwt beam="1">  1       21 0.28342460E+00 0.45065261E+03</pdfrwt>
<pdfrwt beam="2">  1       21 0.38740786E-02 0.45065261E+03</pdfrwt>
<totfact> 0.14981087E+04</totfact>
</mgrwt>
</event>
<event>
 7    0  0.4748297E-002  0.4572171E+03  0.7546771E-02  0.1025591E+00
         21   -1    0    0  502  501  0.00000000000E+00  0.00000000000E+00  0.37601639742E+03  0.37601639742E+03  0.00000000000E+00 0.  1.
         21   -1    0    0  501  502 -0.00000000000E+00 -0.00000000000E+00 -0.13898826118E+03  0.13898826118E+03  0.00000000000E+00 0.  1.
      99926    2    1    2    0    0  0.14210854715E-13 -0.35527136788E-14  0.23702813624E+03  0.51500465860E+03  0.45721708303E+03 0.  0.
      99925    2    3    3    0    0  0.95634514638E+02 -0.30214864559E+02  0.21265321666E+03  0.35283023635E+03  0.26307581929E+03 0.  0.
         25    1    3    3    0    0 -0.95634514638E+02  0.30214864559E+02  0.24374919581E+02  0.16217442226E+03  0.12509000000E+03 0.  0.
         25    1    4    4    0    0  0.24798508405E+02 -0.48886701543E+02  0.10464171537E+03  0.17205310896E+03  0.12509000000E+03 0.  0.
         25    1    4    4    0    0  0.70836006233E+02  0.18671836984E+02  0.10801150129E+03  0.18077712739E+03  0.12509000000E+03 0.  0.
<mgrwt>
<rscale>  2 0.45721708E+03</rscale>
<asrwt>0</asrwt>
<pdfrwt beam="1">  1       21 0.55296529E-01 0.45721708E+03</pdfrwt>
<pdfrwt beam="2">  1       21 0.20439450E-01 0.45721708E+03</pdfrwt>
<totfact> 0.63111207E+04</totfact>
</mgrwt>
</event>
<event>
 7    0  0.4748297E-002  0.4414426E+03  0.7546771E-02  0.1030305E+00
         21   -1    0    0  502  501  0.00000000000E+00  0.00000000000E+00  0.61090749727E+03  0.61090749727E+03  0.00000000000E+00 0. -1.
         21   -1    0    0  501  502 -0.00000000000E+00 -0.00000000000E+00 -0.79746751053E+02  0.79746751053E+02  0.00000000000E+00 0. -1.
      99926    2    1    2    0    0  0.00000000000E+00  0.00000000000E+00  0.53116074622E+03  0.69065424833E+03  0.44144258110E+03 0.  0.
      99925    2    3    3    0    0 -0.24969216904E+02  0.25233464360E+02  0.19212955890E+03  0.32754291059E+03  0.26288857213E+03 0.  0.
         25    1    4    4    0    0 -0.12163281855E+02  0.38307602554E+02  0.13638298090E+03  0.18937593147E+03  0.12509000000E+03 0.  0.
         25    1    4    4    0    0 -0.12805935049E+02 -0.13074138193E+02  0.55746577998E+02  0.13816697912E+03  0.12509000000E+03 0.  0.
         25    1    3    3    0    0  0.24969216904E+02 -0.25233464360E+02  0.33903118732E+03  0.36311133774E+03  0.12509000000E+03 0.  0.
<mgrwt>
<rscale>  2 0.44144258E+03</rscale>
<asrwt>0</asrwt>
<pdfrwt beam="1">  1       21 0.89839336E-01 0.44144258E+03</pdfrwt>
<pdfrwt beam="2">  1       21 0.11727464E-01 0.44144258E+03</pdfrwt>
<totfact> 0.59514963E+04</totfact>
</mgrwt>
</event>
<event>
 7    0  0.4748297E-002  0.4541151E+03  0.7546771E-02  0.1026502E+00
         21   -1    0    0  502  501  0.00000000000E+00  0.00000000000E+00  0.72655663947E+03  0.72655663947E+03  0.00000000000E+00 0. -1.
         21   -1    0    0  501  502 -0.00000000000E+00 -0.00000000000E+00 -0.70958173794E+02  0.70958173794E+02  0.00000000000E+00 0. -1.
      99926    2    1    2    0    0  0.00000000000E+00 -0.35527136788E-14  0.65559846568E+03  0.79751481327E+03  0.45411510565E+03 0.  0.
      99925    2    3    3    0    0 -0.10378516836E+03 -0.28555160283E+02  0.35713295290E+03  0.45646360191E+03  0.26311274289E+03 0.  0.
         25    1    3    3    0    0  0.10378516836E+03  0.28555160283E+02  0.29846551278E+03  0.34105121136E+03  0.12509000000E+03 0.  0.
         25    1    4    4    0    0 -0.63837464011E+02  0.24464268584E+02  0.18561485497E+03  0.23403868213E+03  0.12509000000E+03 0.  0.
         25    1    4    4    0    0 -0.39947704349E+02 -0.53019428867E+02  0.17151809793E+03  0.22242491978E+03  0.12509000000E+03 0.  0.
<mgrwt>
<rscale>  2 0.45411511E+03</rscale>
<asrwt>0</asrwt>
<pdfrwt beam="1">  1       21 0.10684656E+00 0.45411511E+03</pdfrwt>
<pdfrwt beam="2">  1       21 0.10435026E-01 0.45411511E+03</pdfrwt>
<totfact> 0.48219245E+04</totfact>
</mgrwt>
</event>
<event>
 7    0  0.4748297E-002  0.4454175E+03  0.7546771E-02  0.1029097E+00
         21   -1    0    0  502  501  0.00000000000E+00  0.00000000000E+00  0.34218454833E+03  0.34218454833E+03  0.00000000000E+00 0. -1.
         21   -1    0    0  501  502 -0.00000000000E+00 -0.00000000000E+00 -0.14494863974E+03  0.14494863974E+03  0.00000000000E+00 0. -1.
      99926    2    1    2    0    0  0.00000000000E+00  0.00000000000E+00  0.19723590859E+03  0.48713318807E+03  0.44541748875E+03 0.  0.
      99925    2    3    3    0    0  0.92977385441E+02 -0.40900696339E+02  0.14868559145E+03  0.31884087524E+03  0.26312437639E+03 0.  0.
         25    1    4    4    0    0  0.73317543636E+02 -0.54031642691E+02  0.80107394026E+02  0.17424001634E+03  0.12509000000E+03 0.  0.
         25    1    4    4    0    0  0.19659841805E+02  0.13130946351E+02  0.68578197428E+02  0.14460085890E+03  0.12509000000E+03 0.  0.
         25    1    3    3    0    0 -0.92977385441E+02  0.40900696339E+02  0.48550317137E+02  0.16829231283E+03  0.12509000000E+03 0.  0.
<mgrwt>
<rscale>  2 0.44541749E+03</rscale>
<asrwt>0</asrwt>
<pdfrwt beam="1">  1       21 0.50321257E-01 0.44541749E+03</pdfrwt>
<pdfrwt beam="2">  1       21 0.21315976E-01 0.44541749E+03</pdfrwt>
<totfact> 0.71468362E+04</totfact>
</mgrwt>
</event>
<event>
 7    0  0.4748297E-002  0.4539778E+03  0.7546771E-02  0.1026542E+00
         21   -1    0    0  502  501  0.00000000000E+00  0.00000000000E+00  0.51209454034E+03  0.51209454034E+03  0.00000000000E+00 0.  1.
         21   -1    0    0  501  502 -0.00000000000E+00 -0.00000000000E+00 -0.10061417465E+03  0.10061417465E+03  0.00000000000E+00 0.  1.
      99926    2    1    2    0    0  0.14210854715E-13 -0.17763568394E-14  0.41148036570E+03  0.61270871499E+03  0.45397783874E+03 0.  0.
      99925    2    3    3    0    0  0.87961162170E+02  0.14215275689E+02  0.35102142912E+03  0.44765711328E+03  0.26313800041E+03 0.  0.
         25    1    4    4    0    0  0.44876303491E+02 -0.28332202141E+02  0.20614346359E+03  0.24689923445E+03  0.12509000000E+03 0.  0.
         25    1    4    4    0    0  0.43084858679E+02  0.42547477831E+02  0.14487796553E+03  0.20075787883E+03  0.12509000000E+03 0.  0.
         25    1    3    3    0    0 -0.87961162170E+02 -0.14215275689E+02  0.60458936577E+02  0.16505160170E+03  0.12509000000E+03 0.  0.
<mgrwt>
<rscale>  2 0.45397784E+03</rscale>
<asrwt>0</asrwt>
<pdfrwt beam="1">  1       21 0.75308019E-01 0.45397784E+03</pdfrwt>
<pdfrwt beam="2">  1       21 0.14796202E-01 0.45397784E+03</pdfrwt>
<totfact> 0.58372589E+04</totfact>
</mgrwt>
</event>
<event>
 7    0  0.4748297E-002  0.4540842E+03  0.7546771E-02  0.1026511E+00
         21   -1    0    0  502  501  0.00000000000E+00  0.00000000000E+00  0.12674377957E+04  0.12674377957E+04  0.00000000000E+00 0.  1.
         21   -1    0    0  501  502 -0.00000000000E+00 -0.00000000000E+00 -0.40671128517E+02  0.40671128517E+02  0.00000000000E+00 0.  1.
      99926    2    1    2    0    0  0.00000000000E+00  0.00000000000E+00  0.12267666672E+04  0.13081089242E+04  0.45408424539E+03 0.  0.
      99925    2    3    3    0    0  0.54125384070E+01  0.78846924026E+01  0.45049494208E+03  0.52176500249E+03  0.26306189583E+03 0.  0.
         25    1    4    4    0    0  0.23356319182E+02 -0.25990770066E+02  0.26048430472E+03  0.29106806571E+03  0.12509000000E+03 0.  0.
         25    1    4    4    0    0 -0.17943780775E+02  0.33875462469E+02  0.19001063736E+03  0.23069693677E+03  0.12509000000E+03 0.  0.
         25    1    3    3    0    0 -0.54125384070E+01 -0.78846924026E+01  0.77627172512E+03  0.78634392174E+03  0.12509000000E+03 0.  0.
<mgrwt>
<rscale>  2 0.45408425E+03</rscale>
<asrwt>0</asrwt>
<pdfrwt beam="1">  1       21 0.18638789E+00 0.45408425E+03</pdfrwt>
<pdfrwt beam="2">  1       21 0.59810491E-02 0.45408425E+03</pdfrwt>
<totfact> 0.29086682E+04</totfact>
</mgrwt>
</event>
<event>
 7    0  0.4748297E-002  0.4575424E+03  0.7546771E-02  0.1025496E+00
         21   -1    0    0  502  501  0.00000000000E+00  0.00000000000E+00  0.13325494300E+03  0.13325494300E+03  0.00000000000E+00 0.  1.
         21   -1    0    0  501  502 -0.00000000000E+00 -0.00000000000E+00 -0.39275280434E+03  0.39275280434E+03  0.00000000000E+00 0.  1.
      99926    2    1    2    0    0 -0.17763568394E-14 -0.35527136788E-14 -0.25949786134E+03  0.52600774734E+03  0.45754235893E+03 0.  0.
      99925    2    3    3    0    0  0.61055061869E+01  0.29165549617E+02 -0.34464185307E+02  0.26682524419E+03  0.26290687396E+03 0.  0.
         25    1    4    4    0    0  0.21892103106E+02  0.46343879627E+02 -0.74113626797E+00  0.13518534218E+03  0.12509000000E+03 0.  0.
         25    1    3    3    0    0 -0.61055061869E+01 -0.29165549617E+02 -0.22503367603E+03  0.25918250315E+03  0.12509000000E+03 0.  0.
         25    1    4    4    0    0 -0.15786596920E+02 -0.17178330011E+02 -0.33723049039E+02  0.13163990201E+03  0.12509000000E+03 0.  0.
<mgrwt>
<rscale>  2 0.45754236E+03</rscale>
<asrwt>0</asrwt>
<pdfrwt beam="1">  1       21 0.19596315E-01 0.45754236E+03</pdfrwt>
<pdfrwt beam="2">  1       21 0.57757767E-01 0.45754236E+03</pdfrwt>
<totfact> 0.62214208E+04</totfact>
</mgrwt>
</event>
<event>
 7    0  0.4748297E-002  0.4529266E+03  0.7546771E-02  0.1026853E+00
         21   -1    0    0  502  501  0.00000000000E+00  0.00000000000E+00  0.31849537468E+03  0.31849537468E+03  0.00000000000E+00 0. -1.
         21   -1    0    0  501  502 -0.00000000000E+00 -0.00000000000E+00 -0.16102470900E+03  0.16102470900E+03  0.00000000000E+00 0. -1.
      99926    2    1    2    0    0 -0.71054273576E-14  0.00000000000E+00  0.15747066567E+03  0.47952008368E+03  0.45292659461E+03 0.  0.
      99925    2    3    3    0    0 -0.53954488508E+02 -0.97263708078E+02  0.95826518341E+02  0.30114176453E+03  0.26293026640E+03 0.  0.
         25    1    3    3    0    0  0.53954488508E+02  0.97263708078E+02  0.61644147334E+02  0.17837831914E+03  0.12509000000E+03 0.  0.
         25    1    4    4    0    0 -0.66964721068E+02 -0.62129230510E+02  0.53542425293E+02  0.16388598036E+03  0.12509000000E+03 0.  0.
         25    1    4    4    0    0  0.13010232559E+02 -0.35134477568E+02  0.42284093049E+02  0.13725578418E+03  0.12509000000E+03 0.  0.
<mgrwt>
<rscale>  2 0.45292659E+03</rscale>
<asrwt>0</asrwt>
<pdfrwt beam="1">  1       21 0.46837555E-01 0.45292659E+03</pdfrwt>
<pdfrwt beam="2">  1       21 0.23680104E-01 0.45292659E+03</pdfrwt>
<totfact> 0.67844774E+04</totfact>
</mgrwt>
</event>
<event>
 7    0  0.4748297E-002  0.4524407E+03  0.7546771E-02  0.1026997E+00
         21   -1    0    0  502  501  0.00000000000E+00  0.00000000000E+00  0.29844961357E+02  0.29844961357E+02  0.00000000000E+00 0.  1.
         21   -1    0    0  501  502 -0.00000000000E+00 -0.00000000000E+00 -0.17147161863E+04  0.17147161863E+04  0.00000000000E+00 0.  1.
      99926    2    1    2    0    0  0.00000000000E+00  0.00000000000E+00 -0.16848712250E+04  0.17445611477E+04  0.45244066271E+03 0.  0.
      99925    2    3    3    0    0  0.64623570879E+02  0.81216269122E+02 -0.12130585342E+04  0.12455350847E+04  0.26281999828E+03 0.  0.
         25    1    4    4    0    0  0.28540788773E+02  0.53431128253E+02 -0.78651824343E+03  0.79870389848E+03  0.12509000000E+03 0.  0.
         25    1    4    4    0    0  0.36082782106E+02  0.27785140869E+02 -0.42654029078E+03  0.44683118621E+03  0.12509000000E+03 0.  0.
         25    1    3    3    0    0 -0.64623570879E+02 -0.81216269122E+02 -0.47181269075E+03  0.49902606298E+03  0.12509000000E+03 0.  0.
<mgrwt>
<rscale>  2 0.45244066E+03</rscale>
<asrwt>0</asrwt>
<pdfrwt beam="1">  1       21 0.43889648E-02 0.45244066E+03</pdfrwt>
<pdfrwt beam="2">  1       21 0.25216415E+00 0.45244066E+03</pdfrwt>
<totfact> 0.18718620E+04</totfact>
</mgrwt>
</event>
<event>
 7    0  0.4748297E-002  0.4680400E+03  0.7546771E-02  0.1022475E+00
         21   -1    0    0  502  501  0.00000000000E+00  0.00000000000E+00  0.22083547357E+03  0.22083547357E+03  0.00000000000E+00 0.  1.
         21   -1    0    0  501  502 -0.00000000000E+00 -0.00000000000E+00 -0.24799164678E+03  0.24799164678E+03  0.00000000000E+00 0.  1.
      99926    2    1    2    0    0  0.00000000000E+00  0.00000000000E+00 -0.27156173209E+02  0.46882712034E+03  0.46803996734E+03 0.  0.
      99925    2    3    3    0    0  0.83121073801E+02  0.93455044179E+02 -0.15685299645E+02  0.29156446993E+03  0.26290845043E+03 0.  0.
         25    1    4    4    0    0  0.48782965955E+02  0.55943975482E+02 -0.47167160697E+02  0.15291093914E+03  0.12509000000E+03 0.  0.
         25    1    3    3    0    0 -0.83121073801E+02 -0.93455044179E+02 -0.11470873564E+02  0.17726265042E+03  0.12509000000E+03 0.  0.
         25    1    4    4    0    0  0.34338107846E+02  0.37511068697E+02  0.31481861051E+02  0.13865353079E+03  0.12509000000E+03 0.  0.
<mgrwt>
<rscale>  2 0.46803997E+03</rscale>
<asrwt>0</asrwt>
<pdfrwt beam="1">  1       21 0.32475805E-01 0.46803997E+03</pdfrwt>
<pdfrwt beam="2">  1       21 0.36469360E-01 0.46803997E+03</pdfrwt>
<totfact> 0.60951699E+04</totfact>
</mgrwt>
</event>
<event>
 7    0  0.4748297E-002  0.4585993E+03  0.7546771E-02  0.1025188E+00
         21   -1    0    0  502  501  0.00000000000E+00  0.00000000000E+00  0.27302327516E+02  0.27302327516E+02  0.00000000000E+00 0. -1.
         21   -1    0    0  501  502 -0.00000000000E+00 -0.00000000000E+00 -0.19257820630E+04  0.19257820630E+04  0.00000000000E+00 0. -1.
      99926    2    1    2    0    0  0.00000000000E+00  0.00000000000E+00 -0.18984797355E+04  0.19530843905E+04  0.45859931360E+03 0.  0.
      99925    2    3    3    0    0 -0.77061232950E+02  0.34441142658E+02 -0.84610729606E+03  0.88994757652E+03  0.26264901782E+03 0.  0.
         25    1    4    4    0    0 -0.33413519944E+02  0.53291132330E+02 -0.48653642183E+03  0.50628214068E+03  0.12509000000E+03 0.  0.
         25    1    3    3    0    0  0.77061232950E+02 -0.34441142658E+02 -0.10523724394E+04  0.10631368140E+04  0.12509000000E+03 0.  0.
         25    1    4    4    0    0 -0.43647713007E+02 -0.18849989672E+02 -0.35957087423E+03  0.38366543584E+03  0.12509000000E+03 0.  0.
<mgrwt>
<rscale>  2 0.45859931E+03</rscale>
<asrwt>0</asrwt>
<pdfrwt beam="1">  1       21 0.40150465E-02 0.45859931E+03</pdfrwt>
<pdfrwt beam="2">  1       21 0.28320336E+00 0.45859931E+03</pdfrwt>
<totfact> 0.14093355E+04</totfact>
</mgrwt>
</event>
<event>
 7    0  0.4748297E-002  0.4581295E+03  0.7546771E-02  0.1025325E+00
         21   -1    0    0  502  501  0.00000000000E+00  0.00000000000E+00  0.27389435691E+02  0.27389435691E+02  0.00000000000E+00 0.  1.
         21   -1    0    0  501  502 -0.00000000000E+00 -0.00000000000E+00 -0.19157259039E+04  0.19157259039E+04  0.00000000000E+00 0.  1.
      99926    2    1    2    0    0  0.00000000000E+00 -0.71054273576E-14 -0.18883364682E+04  0.19431153396E+04  0.45812946400E+03 0.  0.
      99925    2    3    3    0    0 -0.50297828521E+02  0.38118730763E+02 -0.77042606629E+03  0.81645918796E+03  0.26280481882E+03 0.  0.
         25    1    4    4    0    0 -0.37024346877E+02  0.44577759814E+02 -0.49039154156E+03  0.50940097278E+03  0.12509000000E+03 0.  0.
         25    1    3    3    0    0  0.50297828521E+02 -0.38118730763E+02 -0.11179104019E+04  0.11266561516E+04  0.12509000000E+03 0.  0.
         25    1    4    4    0    0 -0.13273481644E+02 -0.64590290507E+01 -0.28003452473E+03  0.30705821518E+03  0.12509000000E+03 0.  0.
<mgrwt>
<rscale>  2 0.45812946E+03</rscale>
<asrwt>0</asrwt>
<pdfrwt beam="1">  1       21 0.40278565E-02 0.45812946E+03</pdfrwt>
<pdfrwt beam="2">  1       21 0.28172452E+00 0.45812946E+03</pdfrwt>
<totfact> 0.14310224E+04</totfact>
</mgrwt>
</event>
<event>
 7    0  0.4748297E-002  0.4609241E+03  0.7546771E-02  0.1024514E+00
         21   -1    0    0  502  501  0.00000000000E+00  0.00000000000E+00  0.76886849167E+03  0.76886849167E+03  0.00000000000E+00 0. -1.
         21   -1    0    0  501  502 -0.00000000000E+00 -0.00000000000E+00 -0.69079111286E+02  0.69079111286E+02  0.00000000000E+00 0. -1.
      99926    2    1    2    0    0  0.00000000000E+00  0.00000000000E+00  0.69978938039E+03  0.83794760296E+03  0.46092408095E+03 0.  0.
      99925    2    3    3    0    0 -0.17704249189E+02  0.39645306954E+02  0.23733403509E+03  0.35690951165E+03  0.26300525563E+03 0.  0.
         25    1    3    3    0    0  0.17704249189E+02 -0.39645306954E+02  0.46245534529E+03  0.48103809131E+03  0.12509000000E+03 0.  0.
         25    1    4    4    0    0  0.22791212494E+02  0.36001049096E+02  0.92752597133E+02  0.16144989092E+03  0.12509000000E+03 0.  0.
         25    1    4    4    0    0 -0.40495461683E+02  0.36442578579E+01  0.14458143796E+03  0.19545962073E+03  0.12509000000E+03 0.  0.
<mgrwt>
<rscale>  2 0.46092408E+03</rscale>
<asrwt>0</asrwt>
<pdfrwt beam="1">  1       21 0.11306889E+00 0.46092408E+03</pdfrwt>
<pdfrwt beam="2">  1       21 0.10158693E-01 0.46092408E+03</pdfrwt>
<totfact> 0.43906877E+04</totfact>
</mgrwt>
</event>
<event>
 7    0  0.4748297E-002  0.4531171E+03  0.7546771E-02  0.1026797E+00
         21   -1    0    0  502  501  0.00000000000E+00  0.00000000000E+00  0.11281563042E+04  0.11281563042E+04  0.00000000000E+00 0.  1.
         21   -1    0    0  501  502 -0.00000000000E+00 -0.00000000000E+00 -0.45497921756E+02  0.45497921756E+02  0.00000000000E+00 0.  1.
      99926    2    1    2    0    0  0.35527136788E-14 -0.14210854715E-13  0.10826583825E+04  0.11736542260E+04  0.45311705886E+03 0.  0.
      99925    2    3    3    0    0  0.31330972492E+02 -0.10670199785E+03  0.66494561828E+03  0.72365599527E+03  0.26297980536E+03 0.  0.
         25    1    3    3    0    0 -0.31330972492E+02  0.10670199785E+03  0.41771276418E+03  0.44999823071E+03  0.12509000000E+03 0.  0.
         25    1    4    4    0    0  0.26684156594E+02 -0.92612502119E+02  0.33090191287E+03  0.36665065635E+03  0.12509000000E+03 0.  0.
         25    1    4    4    0    0  0.46468158978E+01 -0.14089495731E+02  0.33404370541E+03  0.35700533891E+03  0.12509000000E+03 0.  0.
<mgrwt>
<rscale>  2 0.45311706E+03</rscale>
<asrwt>0</asrwt>
<pdfrwt beam="1">  1       21 0.16590532E+00 0.45311706E+03</pdfrwt>
<pdfrwt beam="2">  1       21 0.66908716E-02 0.45311706E+03</pdfrwt>
<totfact> 0.33491025E+04</totfact>
</mgrwt>
</event>
<event>
 7    0  0.4748297E-002  0.4357198E+03  0.7546771E-02  0.1032068E+00
         21   -1    0    0  502  501  0.00000000000E+00  0.00000000000E+00  0.10737225097E+03  0.10737225097E+03  0.00000000000E+00 0.  1.
         21   -1    0    0  501  502 -0.00000000000E+00 -0.00000000000E+00 -0.44204093164E+03  0.44204093164E+03  0.00000000000E+00 0.  1.
      99926    2    1    2    0    0  0.00000000000E+00 -0.71054273576E-14 -0.33466868067E+03  0.54941318262E+03  0.43571977165E+03 0.  0.
      99925    2    3    3    0    0 -0.57516002284E+02 -0.62224207580E+02 -0.26583638900E+03  0.38338506751E+03  0.26293569889E+03 0.  0.
         25    1    4    4    0    0 -0.47329007364E+02 -0.20489963459E+02 -0.86648626237E+02  0.16067160941E+03  0.12509000000E+03 0.  0.
         25    1    4    4    0    0 -0.10186994920E+02 -0.41734244121E+02 -0.17918776276E+03  0.22271345811E+03  0.12509000000E+03 0.  0.
         25    1    3    3    0    0  0.57516002284E+02  0.62224207580E+02 -0.68832291671E+02  0.16602811510E+03  0.12509000000E+03 0.  0.
<mgrwt>
<rscale>  2 0.43571977E+03</rscale>
<asrwt>0</asrwt>
<pdfrwt beam="1">  1       21 0.15790037E-01 0.43571977E+03</pdfrwt>
<pdfrwt beam="2">  1       21 0.65006021E-01 0.43571977E+03</pdfrwt>
<totfact> 0.72322115E+04</totfact>
</mgrwt>
</event>
<event>
 7    0  0.4748297E-002  0.4580810E+03  0.7546771E-02  0.1025339E+00
         21   -1    0    0  502  501  0.00000000000E+00  0.00000000000E+00  0.17561241233E+03  0.17561241233E+03  0.00000000000E+00 0.  1.
         21   -1    0    0  501  502 -0.00000000000E+00 -0.00000000000E+00 -0.29872353695E+03  0.29872353695E+03  0.00000000000E+00 0.  1.
      99926    2    1    2    0    0  0.14210854715E-13  0.00000000000E+00 -0.12311112462E+03  0.47433594928E+03  0.45808104498E+03 0.  0.
      99925    2    3    3    0    0  0.89356753486E+02 -0.66992184246E+02 -0.44397731178E+02  0.28909046741E+03  0.26292500389E+03 0.  0.
         25    1    4    4    0    0  0.18519105990E+02 -0.84928302335E+01 -0.43153182574E+02  0.13388349681E+03  0.12509000000E+03 0.  0.
         25    1    3    3    0    0 -0.89356753486E+02  0.66992184246E+02 -0.78713393440E+02  0.18524548186E+03  0.12509000000E+03 0.  0.
         25    1    4    4    0    0  0.70837647496E+02 -0.58499354013E+02 -0.12445486039E+01  0.15520697060E+03  0.12509000000E+03 0.  0.
<mgrwt>
<rscale>  2 0.45808104E+03</rscale>
<asrwt>0</asrwt>
<pdfrwt beam="1">  1       21 0.25825355E-01 0.45808104E+03</pdfrwt>
<pdfrwt beam="2">  1       21 0.43929932E-01 0.45808104E+03</pdfrwt>
<totfact> 0.65498857E+04</totfact>
</mgrwt>
</event>
<event>
 7    0  0.4748297E-002  0.4521366E+03  0.7546771E-02  0.1027087E+00
         21   -1    0    0  502  501  0.00000000000E+00  0.00000000000E+00  0.50016059341E+03  0.50016059341E+03  0.00000000000E+00 0.  1.
         21   -1    0    0  501  502 -0.00000000000E+00 -0.00000000000E+00 -0.10218091615E+03  0.10218091615E+03  0.00000000000E+00 0.  1.
      99926    2    1    2    0    0  0.00000000000E+00 -0.14210854715E-13  0.39797967726E+03  0.60234150957E+03  0.45213656193E+03 0.  0.
      99925    2    3    3    0    0 -0.54170716985E+02  0.95605652054E+02  0.23372930949E+03  0.36845991838E+03  0.26278967646E+03 0.  0.
         25    1    3    3    0    0  0.54170716985E+02 -0.95605652054E+02  0.16425036777E+03  0.23388159119E+03  0.12509000000E+03 0.  0.
         25    1    4    4    0    0 -0.32818789224E+02  0.89746730645E+02  0.13890707313E+03  0.20993863783E+03  0.12509000000E+03 0.  0.
         25    1    4    4    0    0 -0.21351927761E+02  0.58589214093E+01  0.94822236366E+02  0.15852128055E+03  0.12509000000E+03 0.  0.
<mgrwt>
<rscale>  2 0.45213656E+03</rscale>
<asrwt>0</asrwt>
<pdfrwt beam="1">  1       21 0.73553028E-01 0.45213656E+03</pdfrwt>
<pdfrwt beam="2">  1       21 0.15026606E-01 0.45213656E+03</pdfrwt>
<totfact> 0.59877522E+04</totfact>
</mgrwt>
</event>
<event>
 7    0  0.4748297E-002  0.4531621E+03  0.7546771E-02  0.1026783E+00
         21   -1    0    0  502  501  0.00000000000E+00  0.00000000000E+00  0.12707386959E+04  0.12707386959E+04  0.00000000000E+00 0. -1.
         21   -1    0    0  501  502 -0.00000000000E+00 -0.00000000000E+00 -0.40400882125E+02  0.40400882125E+02  0.00000000000E+00 0. -1.
      99926    2    1    2    0    0  0.00000000000E+00  0.35527136788E-14  0.12303378138E+04  0.13111395781E+04  0.45316206490E+03 0.  0.
      99925    2    3    3    0    0 -0.94709976649E+02  0.27220729862E+02  0.92592951053E+03  0.96759500888E+03  0.26302793563E+03 0.  0.
         25    1    4    4    0    0 -0.61292546868E+02 -0.10865532322E+02  0.36958506087E+03  0.39511449152E+03  0.12509000000E+03 0.  0.
         25    1    3    3    0    0  0.94709976649E+02 -0.27220729862E+02  0.30440830329E+03  0.34354456920E+03  0.12509000000E+03 0.  0.
         25    1    4    4    0    0 -0.33417429781E+02  0.38086262185E+02  0.55634444966E+03  0.57248051735E+03  0.12509000000E+03 0.  0.
<mgrwt>
<rscale>  2 0.45316206E+03</rscale>
<asrwt>0</asrwt>
<pdfrwt beam="1">  1       21 0.18687331E+00 0.45316206E+03</pdfrwt>
<pdfrwt beam="2">  1       21 0.59413070E-02 0.45316206E+03</pdfrwt>
<totfact> 0.29208117E+04</totfact>
</mgrwt>
</event>
<event>
 7    0  0.4748297E-002  0.4590045E+03  0.7546771E-02  0.1025070E+00
         21   -1    0    0  502  501  0.00000000000E+00  0.00000000000E+00  0.63818076982E+02  0.63818076982E+02  0.00000000000E+00 0.  1.
         21   -1    0    0  501  502 -0.00000000000E+00 -0.00000000000E+00 -0.82533469453E+03  0.82533469453E+03  0.00000000000E+00 0.  1.
      99926    2    1    2    0    0  0.00000000000E+00  0.00000000000E+00 -0.76151661755E+03  0.88915277151E+03  0.45900445781E+03 0.  0.
      99925    2    3    3    0    0  0.34131212652E+02  0.53804185245E+02 -0.66740183069E+03  0.72014114105E+03  0.26290346022E+03 0.  0.
         25    1    4    4    0    0  0.50381737894E+02  0.50973589253E+02 -0.34298129405E+03  0.37204879046E+03  0.12509000000E+03 0.  0.
         25    1    3    3    0    0 -0.34131212652E+02 -0.53804185245E+02 -0.94114786859E+02  0.16901163047E+03  0.12509000000E+03 0.  0.
         25    1    4    4    0    0 -0.16250525242E+02  0.28305959918E+01 -0.32442053664E+03  0.34809235059E+03  0.12509000000E+03 0.  0.
<mgrwt>
<rscale>  2 0.45900446E+03</rscale>
<asrwt>0</asrwt>
<pdfrwt beam="1">  1       21 0.93850115E-02 0.45900446E+03</pdfrwt>
<pdfrwt beam="2">  1       21 0.12137275E+00 0.45900446E+03</pdfrwt>
<totfact> 0.42361922E+04</totfact>
</mgrwt>
</event>
<event>
 7    0  0.4748297E-002  0.4634799E+03  0.7546771E-02  0.1023777E+00
         21   -1    0    0  502  501  0.00000000000E+00  0.00000000000E+00  0.19683533152E+03  0.19683533152E+03  0.00000000000E+00 0.  1.
         21   -1    0    0  501  502 -0.00000000000E+00 -0.00000000000E+00 -0.27283421706E+03  0.27283421706E+03  0.00000000000E+00 0.  1.
      99926    2    1    2    0    0  0.00000000000E+00  0.00000000000E+00 -0.75998885534E+02  0.46966954858E+03  0.46347993944E+03 0.  0.
      99925    2    3    3    0    0  0.11909782616E+03  0.14510901868E+02 -0.23583756518E+02  0.28859025016E+03  0.26140635120E+03 0.  0.
         25    1    4    4    0    0  0.34199677480E+02  0.22890217215E+02  0.14447055731E+02  0.13247567891E+03  0.12509000000E+03 0.  0.
         25    1    3    3    0    0 -0.11909782616E+03 -0.14510901868E+02 -0.52415129016E+02  0.18107929843E+03  0.12509000000E+03 0.  0.
         25    1    4    4    0    0  0.84898148679E+02 -0.83793153469E+01 -0.38030812249E+02  0.15611457125E+03  0.12509000000E+03 0.  0.
<mgrwt>
<rscale>  2 0.46347994E+03</rscale>
<asrwt>0</asrwt>
<pdfrwt beam="1">  1       21 0.28946373E-01 0.46347994E+03</pdfrwt>
<pdfrwt beam="2">  1       21 0.40122679E-01 0.46347994E+03</pdfrwt>
<totfact> 0.63102636E+04</totfact>
</mgrwt>
</event>
<event>
 7    0  0.4748297E-002  0.4546607E+03  0.7546771E-02  0.1026341E+00
         21   -1    0    0  502  501  0.00000000000E+00  0.00000000000E+00  0.45121440497E+03  0.45121440497E+03  0.00000000000E+00 0. -1.
         21   -1    0    0  501  502 -0.00000000000E+00 -0.00000000000E+00 -0.11453334673E+03  0.11453334673E+03  0.00000000000E+00 0. -1.
      99926    2    1    2    0    0 -0.17763568394E-14  0.14210854715E-13  0.33668105825E+03  0.56574775170E+03  0.45466073459E+03 0.  0.
      99925    2    3    3    0    0  0.12306826303E+02 -0.83513102701E+02  0.11865175975E+03  0.30058708456E+03  0.26296094580E+03 0.  0.
         25    1    4    4    0    0 -0.23942140402E+02 -0.13024008114E+02  0.51770810419E+02  0.13809625551E+03  0.12509000000E+03 0.  0.
         25    1    3    3    0    0 -0.12306826303E+02  0.83513102701E+02  0.21802929850E+03  0.26516066714E+03  0.12509000000E+03 0.  0.
         25    1    4    4    0    0  0.36248966705E+02 -0.70489094587E+02  0.66880949329E+02  0.16249082905E+03  0.12509000000E+03 0.  0.
<mgrwt>
<rscale>  2 0.45466073E+03</rscale>
<asrwt>0</asrwt>
<pdfrwt beam="1">  1       21 0.66355059E-01 0.45466073E+03</pdfrwt>
<pdfrwt beam="2">  1       21 0.16843139E-01 0.45466073E+03</pdfrwt>
<totfact> 0.61001237E+04</totfact>
</mgrwt>
</event>
<event>
 7    0  0.4748297E-002  0.4683208E+03  0.7546771E-02  0.1022395E+00
         21   -1    0    0  502  501  0.00000000000E+00  0.00000000000E+00  0.33761240840E+02  0.33761240840E+02  0.00000000000E+00 0. -1.
         21   -1    0    0  501  502 -0.00000000000E+00 -0.00000000000E+00 -0.16240838665E+04  0.16240838665E+04  0.00000000000E+00 0. -1.
      99926    2    1    2    0    0 -0.17763568394E-14  0.00000000000E+00 -0.15903226256E+04  0.16578451073E+04  0.46832077281E+03 0.  0.
      99925    2    3    3    0    0 -0.81982022906E+01  0.36129621463E+02 -0.14127034393E+04  0.14374621599E+04  0.26304732196E+03 0.  0.
         25    1    3    3    0    0  0.81982022906E+01 -0.36129621463E+02 -0.17761918632E+03  0.22038294743E+03  0.12509000000E+03 0.  0.
         25    1    4    4    0    0  0.32227018486E+02  0.55819604519E+01 -0.76466339805E+03  0.77551747847E+03  0.12509000000E+03 0.  0.
         25    1    4    4    0    0 -0.40425220777E+02  0.30547661012E+02 -0.64804004127E+03  0.66194468142E+03  0.12509000000E+03 0.  0.
<mgrwt>
<rscale>  2 0.46832077E+03</rscale>
<asrwt>0</asrwt>
<pdfrwt beam="1">  1       21 0.49648878E-02 0.46832077E+03</pdfrwt>
<pdfrwt beam="2">  1       21 0.23883589E+00 0.46832077E+03</pdfrwt>
<totfact> 0.18197542E+04</totfact>
</mgrwt>
</event>
<event>
 7    0  0.4748297E-002  0.4584514E+03  0.7546771E-02  0.1025231E+00
         21   -1    0    0  502  501  0.00000000000E+00  0.00000000000E+00  0.28867271344E+02  0.28867271344E+02  0.00000000000E+00 0.  1.
         21   -1    0    0  501  502 -0.00000000000E+00 -0.00000000000E+00 -0.18202071855E+04  0.18202071855E+04  0.00000000000E+00 0.  1.
      99926    2    1    2    0    0  0.00000000000E+00 -0.35527136788E-14 -0.17913399142E+04  0.18490744568E+04  0.45845137027E+03 0.  0.
      99925    2    3    3    0    0  0.34314804193E+02 -0.20807617899E+02 -0.15644127656E+04  0.15868648048E+04  0.26294893979E+03 0.  0.
         25    1    4    4    0    0  0.40812239950E+02 -0.41150724148E+02 -0.73816170413E+03  0.75092558258E+03  0.12509000000E+03 0.  0.
         25    1    3    3    0    0 -0.34314804193E+02  0.20807617899E+02 -0.22692714856E+03  0.26220965200E+03  0.12509000000E+03 0.  0.
         25    1    4    4    0    0 -0.64974357566E+01  0.20343106249E+02 -0.82625106146E+03  0.83593922226E+03  0.12509000000E+03 0.  0.
<mgrwt>
<rscale>  2 0.45845137E+03</rscale>
<asrwt>0</asrwt>
<pdfrwt beam="1">  1       21 0.42451856E-02 0.45845137E+03</pdfrwt>
<pdfrwt beam="2">  1       21 0.26767761E+00 0.45845137E+03</pdfrwt>
<totfact> 0.15904221E+04</totfact>
</mgrwt>
</event>
<event>
 7    0  0.4748297E-002  0.4543759E+03  0.7546771E-02  0.1026425E+00
         21   -1    0    0  502  501  0.00000000000E+00  0.00000000000E+00  0.17924095830E+03  0.17924095830E+03  0.00000000000E+00 0. -1.
         21   -1    0    0  501  502 -0.00000000000E+00 -0.00000000000E+00 -0.28796081627E+03  0.28796081627E+03  0.00000000000E+00 0. -1.
      99926    2    1    2    0    0  0.00000000000E+00  0.14210854715E-13 -0.10871985797E+03  0.46720177457E+03  0.45437593537E+03 0.  0.
      99925    2    3    3    0    0 -0.27413650056E+02  0.67095812963E+02  0.20134517054E+02  0.27354146788E+03  0.26299463786E+03 0.  0.
         25    1    4    4    0    0 -0.16937221907E+02  0.73245038395E+02 -0.18523086703E+01  0.14595425408E+03  0.12509000000E+03 0.  0.
         25    1    4    4    0    0 -0.10476428149E+02 -0.61492254323E+01  0.21986825724E+02  0.12758721380E+03  0.12509000000E+03 0.  0.
         25    1    3    3    0    0  0.27413650056E+02 -0.67095812963E+02 -0.12885437503E+03  0.19366030670E+03  0.12509000000E+03 0.  0.
<mgrwt>
<rscale>  2 0.45437594E+03</rscale>
<asrwt>0</asrwt>
<pdfrwt beam="1">  1       21 0.26358965E-01 0.45437594E+03</pdfrwt>
<pdfrwt beam="2">  1       21 0.42347179E-01 0.45437594E+03</pdfrwt>
<totfact> 0.67980450E+04</totfact>
</mgrwt>
</event>
<event>
 7    0  0.4748297E-002  0.4716483E+03  0.7546771E-02  0.1021456E+00
         21   -1    0    0  502  501  0.00000000000E+00  0.00000000000E+00  0.49298656234E+03  0.49298656234E+03  0.00000000000E+00 0.  1.
         21   -1    0    0  501  502 -0.00000000000E+00 -0.00000000000E+00 -0.11280840037E+03  0.11280840037E+03  0.00000000000E+00 0.  1.
      99926    2    1    2    0    0 -0.44408920985E-15  0.17763568394E-14  0.38017816197E+03  0.60579496271E+03  0.47164828211E+03 0.  0.
      99925    2    3    3    0    0 -0.35524811879E+01 -0.15529236615E+02  0.71235328960E+02  0.27210804436E+03  0.26213458071E+03 0.  0.
         25    1    4    4    0    0  0.31412193850E+01  0.15545075393E+02  0.67424241494E+02  0.14298619888E+03  0.12509000000E+03 0.  0.
         25    1    3    3    0    0  0.35524811879E+01  0.15529236615E+02  0.30894283301E+03  0.33368691835E+03  0.12509000000E+03 0.  0.
         25    1    4    4    0    0 -0.66937005729E+01 -0.31074312008E+02  0.38110874663E+01  0.12912184549E+03  0.12509000000E+03 0.  0.
<mgrwt>
<rscale>  2 0.47164828E+03</rscale>
<asrwt>0</asrwt>
<pdfrwt beam="1">  1       21 0.72498023E-01 0.47164828E+03</pdfrwt>
<pdfrwt beam="2">  1       21 0.16589471E-01 0.47164828E+03</pdfrwt>
<totfact> 0.51242902E+04</totfact>
</mgrwt>
</event>
<event>
 7    0  0.4748297E-002  0.4441848E+03  0.7546771E-02  0.1029471E+00
         21   -1    0    0  502  501  0.00000000000E+00  0.00000000000E+00  0.10643001014E+03  0.10643001014E+03  0.00000000000E+00 0.  1.
         21   -1    0    0  501  502 -0.00000000000E+00 -0.00000000000E+00 -0.46345049931E+03  0.46345049931E+03  0.00000000000E+00 0.  1.
      99926    2    1    2    0    0 -0.35527136788E-14  0.00000000000E+00 -0.35702048917E+03  0.56988050945E+03  0.44418483243E+03 0.  0.
      99925    2    3    3    0    0 -0.28007086914E+02 -0.20526623370E+02 -0.10258841422E+03  0.28424275276E+03  0.26279996305E+03 0.  0.
         25    1    4    4    0    0 -0.14463255030E+02 -0.56959365043E+01 -0.83191233861E+01  0.12632634465E+03  0.12509000000E+03 0.  0.
         25    1    3    3    0    0  0.28007086914E+02  0.20526623370E+02 -0.25443207495E+03  0.28563775669E+03  0.12509000000E+03 0.  0.
         25    1    4    4    0    0 -0.13543831884E+02 -0.14830686866E+02 -0.94269290835E+02  0.15791640811E+03  0.12509000000E+03 0.  0.
<mgrwt>
<rscale>  2 0.44418483E+03</rscale>
<asrwt>0</asrwt>
<pdfrwt beam="1">  1       21 0.15651472E-01 0.44418483E+03</pdfrwt>
<pdfrwt beam="2">  1       21 0.68154486E-01 0.44418483E+03</pdfrwt>
<totfact> 0.66040940E+04</totfact>
</mgrwt>
</event>
<event>
 7    0  0.4748297E-002  0.4580918E+03  0.7546771E-02  0.1025336E+00
         21   -1    0    0  502  501  0.00000000000E+00  0.00000000000E+00  0.12585732618E+03  0.12585732618E+03  0.00000000000E+00 0. -1.
         21   -1    0    0  501  502 -0.00000000000E+00 -0.00000000000E+00 -0.41683730636E+03  0.41683730636E+03  0.00000000000E+00 0. -1.
      99926    2    1    2    0    0 -0.17763568394E-14  0.71054273576E-14 -0.29097998018E+03  0.54269463255E+03  0.45809181976E+03 0.  0.
      99925    2    3    3    0    0  0.89847792193E+01 -0.51754034738E+02 -0.30529231241E+03  0.40627045095E+03  0.26285561993E+03 0.  0.
         25    1    3    3    0    0 -0.89847792193E+01  0.51754034738E+02  0.14312332234E+02  0.13642418159E+03  0.12509000000E+03 0.  0.
         25    1    4    4    0    0  0.19018506937E+02  0.12099441036E+02 -0.15152560091E+03  0.19777668192E+03  0.12509000000E+03 0.  0.
         25    1    4    4    0    0 -0.10033727718E+02 -0.63853475774E+02 -0.15376671150E+03  0.20849376904E+03  0.12509000000E+03 0.  0.
<mgrwt>
<rscale>  2 0.45809182E+03</rscale>
<asrwt>0</asrwt>
<pdfrwt beam="1">  1       21 0.18508430E-01 0.45809182E+03</pdfrwt>
<pdfrwt beam="2">  1       21 0.61299604E-01 0.45809182E+03</pdfrwt>
<totfact> 0.60849334E+04</totfact>
</mgrwt>
</event>
<event>
 7    0  0.4748297E-002  0.4588507E+03  0.7546771E-02  0.1025115E+00
         21   -1    0    0  502  501  0.00000000000E+00  0.00000000000E+00  0.43584490327E+03  0.43584490327E+03  0.00000000000E+00 0. -1.
         21   -1    0    0  501  502 -0.00000000000E+00 -0.00000000000E+00 -0.12076768953E+03  0.12076768953E+03  0.00000000000E+00 0. -1.
      99926    2    1    2    0    0  0.00000000000E+00  0.00000000000E+00  0.31507721375E+03  0.55661259280E+03  0.45885065963E+03 0.  0.
      99925    2    3    3    0    0 -0.49493713613E+02  0.84820691596E+02  0.27400168605E+03  0.39236009058E+03  0.26310708716E+03 0.  0.
         25    1    4    4    0    0 -0.56151406625E+01  0.60225128463E+01  0.10450694287E+03  0.16320848530E+03  0.12509000000E+03 0.  0.
         25    1    3    3    0    0  0.49493713613E+02 -0.84820691596E+02  0.41075527697E+02  0.16425250222E+03  0.12509000000E+03 0.  0.
         25    1    4    4    0    0 -0.43878572951E+02  0.78798178749E+02  0.16949474317E+03  0.22915160528E+03  0.12509000000E+03 0.  0.
<mgrwt>
<rscale>  2 0.45885066E+03</rscale>
<asrwt>0</asrwt>
<pdfrwt beam="1">  1       21 0.64094838E-01 0.45885066E+03</pdfrwt>
<pdfrwt beam="2">  1       21 0.17759954E-01 0.45885066E+03</pdfrwt>
<totfact> 0.59595449E+04</totfact>
</mgrwt>
</event>
<event>
 7    0  0.4748297E-002  0.4545767E+03  0.7546771E-02  0.1026366E+00
         21   -1    0    0  502  501  0.00000000000E+00  0.00000000000E+00  0.28783538364E+04  0.28783538364E+04  0.00000000000E+00 0. -1.
         21   -1    0    0  501  502 -0.00000000000E+00 -0.00000000000E+00 -0.17947758894E+02  0.17947758894E+02  0.00000000000E+00 0. -1.
      99926    2    1    2    0    0  0.00000000000E+00  0.00000000000E+00  0.28604060775E+04  0.28963015953E+04  0.45457672914E+03 0.  0.
      99925    2    3    3    0    0  0.65125137752E+02  0.91923511287E+02  0.18323339170E+04  0.18545381429E+04  0.26300746089E+03 0.  0.
         25    1    4    4    0    0  0.69106849657E+02  0.29504135331E+02  0.98074739929E+03  0.99154385681E+03  0.12509000000E+03 0.  0.
         25    1    4    4    0    0 -0.39817119049E+01  0.62419375956E+02  0.85158651772E+03  0.86299428607E+03  0.12509000000E+03 0.  0.
         25    1    3    3    0    0 -0.65125137752E+02 -0.91923511287E+02  0.10280721605E+04  0.10417634524E+04  0.12509000000E+03 0.  0.
<mgrwt>
<rscale>  2 0.45457673E+03</rscale>
<asrwt>0</asrwt>
<pdfrwt beam="1">  1       21 0.42328701E+00 0.45457673E+03</pdfrwt>
<pdfrwt beam="2">  1       21 0.26393783E-02 0.45457673E+03</pdfrwt>
<totfact> 0.38799712E+03</totfact>
</mgrwt>
</event>
<event>
 7    0  0.4748297E-002  0.4774804E+03  0.7546771E-02  0.1019830E+00
         21   -1    0    0  502  501  0.00000000000E+00  0.00000000000E+00  0.21521002237E+04  0.21521002237E+04  0.00000000000E+00 0. -1.
         21   -1    0    0  501  502 -0.00000000000E+00 -0.00000000000E+00 -0.26484305324E+02  0.26484305324E+02  0.00000000000E+00 0. -1.
      99926    2    1    2    0    0 -0.14210854715E-13  0.00000000000E+00  0.21256159184E+04  0.21785845291E+04  0.47748038457E+03 0.  0.
      99925    2    3    3    0    0  0.10846037262E+03  0.21651991889E+02  0.16505927583E+04  0.16750699097E+04  0.26300244750E+03 0.  0.
         25    1    4    4    0    0  0.97793393749E+02  0.12137910195E+02  0.94992293086E+03  0.96317805176E+03  0.12509000000E+03 0.  0.
         25    1    3    3    0    0 -0.10846037262E+03 -0.21651991889E+02  0.47502316012E+03  0.50351461938E+03  0.12509000000E+03 0.  0.
         25    1    4    4    0    0  0.10666978874E+02  0.95140816938E+01  0.70066982744E+03  0.71189185792E+03  0.12509000000E+03 0.  0.
<mgrwt>
<rscale>  2 0.47748038E+03</rscale>
<asrwt>0</asrwt>
<pdfrwt beam="1">  1       21 0.31648521E+00 0.47748038E+03</pdfrwt>
<pdfrwt beam="2">  1       21 0.38947522E-02 0.47748038E+03</pdfrwt>
<totfact> 0.92785942E+03</totfact>
</mgrwt>
</event>
<event>
 7    0  0.4748297E-002  0.4578167E+03  0.7546771E-02  0.1025416E+00
         21   -1    0    0  502  501  0.00000000000E+00  0.00000000000E+00  0.78035362782E+02  0.78035362782E+02  0.00000000000E+00 0.  1.
         21   -1    0    0  501  502 -0.00000000000E+00 -0.00000000000E+00 -0.67147803804E+03  0.67147803804E+03  0.00000000000E+00 0.  1.
      99926    2    1    2    0    0  0.00000000000E+00  0.71054273576E-14 -0.59344267526E+03  0.74951340082E+03  0.45781669825E+03 0.  0.
      99925    2    3    3    0    0  0.78603930550E+02  0.51881957448E+02 -0.48280400599E+03  0.55778771490E+03  0.26297739690E+03 0.  0.
         25    1    4    4    0    0  0.45777425568E+02 -0.12975641539E+02 -0.21068547517E+03  0.24959931392E+03  0.12509000000E+03 0.  0.
         25    1    4    4    0    0  0.32826504982E+02  0.64857598987E+02 -0.27211853082E+03  0.30818840097E+03  0.12509000000E+03 0.  0.
         25    1    3    3    0    0 -0.78603930550E+02 -0.51881957448E+02 -0.11063866927E+03  0.19172568593E+03  0.12509000000E+03 0.  0.
<mgrwt>
<rscale>  2 0.45781670E+03</rscale>
<asrwt>0</asrwt>
<pdfrwt beam="1">  1       21 0.11475789E-01 0.45781670E+03</pdfrwt>
<pdfrwt beam="2">  1       21 0.98746769E-01 0.45781670E+03</pdfrwt>
<totfact> 0.49197550E+04</totfact>
</mgrwt>
</event>
<event>
 7    0  0.4748297E-002  0.4637435E+03  0.7546771E-02  0.1023701E+00
         21   -1    0    0  502  501  0.00000000000E+00  0.00000000000E+00  0.15581459918E+04  0.15581459918E+04  0.00000000000E+00 0. -1.
         21   -1    0    0  501  502 -0.00000000000E+00 -0.00000000000E+00 -0.34505430500E+02  0.34505430500E+02  0.00000000000E+00 0. -1.
      99926    2    1    2    0    0  0.00000000000E+00  0.00000000000E+00  0.15236405613E+04  0.15926514223E+04  0.46374345593E+03 0.  0.
      99925    2    3    3    0    0 -0.11640425304E+03 -0.30100197023E+02  0.10025693339E+04  0.10434531847E+04  0.26304620799E+03 0.  0.
         25    1    3    3    0    0  0.11640425304E+03  0.30100197023E+02  0.52107122744E+03  0.54919823757E+03  0.12509000000E+03 0.  0.
         25    1    4    4    0    0 -0.53745253622E+02 -0.52054478081E+01  0.63318621047E+03  0.64767888201E+03  0.12509000000E+03 0.  0.
         25    1    4    4    0    0 -0.62658999418E+02 -0.24894749215E+02  0.36938312340E+03  0.39577430273E+03  0.12509000000E+03 0.  0.
<mgrwt>
<rscale>  2 0.46374346E+03</rscale>
<asrwt>0</asrwt>
<pdfrwt beam="1">  1       21 0.22913907E+00 0.46374346E+03</pdfrwt>
<pdfrwt beam="2">  1       21 0.50743291E-02 0.46374346E+03</pdfrwt>
<totfact> 0.20190403E+04</totfact>
</mgrwt>
</event>
<event>
 7    0  0.4748297E-002  0.4527210E+03  0.7546771E-02  0.1026914E+00
         21   -1    0    0  502  501  0.00000000000E+00  0.00000000000E+00  0.10376137826E+03  0.10376137826E+03  0.00000000000E+00 0.  1.
         21   -1    0    0  501  502 -0.00000000000E+00 -0.00000000000E+00 -0.49381647154E+03  0.49381647154E+03  0.00000000000E+00 0.  1.
      99926    2    1    2    0    0  0.00000000000E+00  0.00000000000E+00 -0.39005509328E+03  0.59757784980E+03  0.45272100767E+03 0.  0.
      99925    2    3    3    0    0 -0.91675247786E+02 -0.48994881087E+02 -0.29789633043E+03  0.41064044023E+03  0.26282788672E+03 0.  0.
         25    1    4    4    0    0 -0.42602504813E+02  0.10090397997E+02 -0.17285148614E+03  0.21781169369E+03  0.12509000000E+03 0.  0.
         25    1    4    4    0    0 -0.49072742973E+02 -0.59085279084E+02 -0.12504484429E+03  0.19282874654E+03  0.12509000000E+03 0.  0.
         25    1    3    3    0    0  0.91675247786E+02  0.48994881087E+02 -0.92158762849E+02  0.18693740958E+03  0.12509000000E+03 0.  0.
<mgrwt>
<rscale>  2 0.45272101E+03</rscale>
<asrwt>0</asrwt>
<pdfrwt beam="1">  1       21 0.15259026E-01 0.45272101E+03</pdfrwt>
<pdfrwt beam="2">  1       21 0.72620069E-01 0.45272101E+03</pdfrwt>
<totfact> 0.59898999E+04</totfact>
</mgrwt>
</event>
<event>
 7    0  0.4748297E-002  0.4463735E+03  0.7546771E-02  0.1028809E+00
         21   -1    0    0  502  501  0.00000000000E+00  0.00000000000E+00  0.73086997953E+03  0.73086997953E+03  0.00000000000E+00 0.  1.
         21   -1    0    0  501  502 -0.00000000000E+00 -0.00000000000E+00 -0.68154852005E+02  0.68154852005E+02  0.00000000000E+00 0.  1.
      99926    2    1    2    0    0 -0.71054273576E-14  0.00000000000E+00  0.66271512753E+03  0.79902483153E+03  0.44637354442E+03 0.  0.
      99925    2    3    3    0    0  0.60353279053E+02  0.42496818933E+02  0.55384685921E+03  0.61750814950E+03  0.26290962958E+03 0.  0.
         25    1    4    4    0    0  0.68983037279E+02  0.15284083788E+02  0.32011766018E+03  0.35087759562E+03  0.12509000000E+03 0.  0.
         25    1    4    4    0    0 -0.86297582264E+01  0.27212735145E+02  0.23372919903E+03  0.26663055388E+03  0.12509000000E+03 0.  0.
         25    1    3    3    0    0 -0.60353279053E+02 -0.42496818933E+02  0.10886826831E+03  0.18151668204E+03  0.12509000000E+03 0.  0.
<mgrwt>
<rscale>  2 0.44637354E+03</rscale>
<asrwt>0</asrwt>
<pdfrwt beam="1">  1       21 0.10748088E+00 0.44637354E+03</pdfrwt>
<pdfrwt beam="2">  1       21 0.10022773E-01 0.44637354E+03</pdfrwt>
<totfact> 0.51190621E+04</totfact>
</mgrwt>
</event>
<event>
 7    0  0.4748297E-002  0.4541632E+03  0.7546771E-02  0.1026488E+00
         21   -1    0    0  502  501  0.00000000000E+00  0.00000000000E+00  0.54108888603E+02  0.54108888603E+02  0.00000000000E+00 0.  1.
         21   -1    0    0  501  502 -0.00000000000E+00 -0.00000000000E+00 -0.95300505130E+03  0.95300505130E+03  0.00000000000E+00 0.  1.
      99926    2    1    2    0    0  0.00000000000E+00  0.00000000000E+00 -0.89889616270E+03  0.10071139399E+04  0.45416316081E+03 0.  0.
      99925    2    3    3    0    0  0.39707379946E+02 -0.91846918426E+02 -0.67966333044E+03  0.73559400456E+03  0.26295201912E+03 0.  0.
         25    1    3    3    0    0 -0.39707379946E+02  0.91846918426E+02 -0.21923283226E+03  0.27151993534E+03  0.12509000000E+03 0.  0.
         25    1    4    4    0    0  0.34526121452E+02 -0.77570437760E+02 -0.30707379489E+03  0.34227335491E+03  0.12509000000E+03 0.  0.
         25    1    4    4    0    0  0.51812584942E+01 -0.14276480665E+02 -0.37258953555E+03  0.39332064965E+03  0.12509000000E+03 0.  0.
<mgrwt>
<rscale>  2 0.45416316E+03</rscale>
<asrwt>0</asrwt>
<pdfrwt beam="1">  1       21 0.79571889E-02 0.45416316E+03</pdfrwt>
<pdfrwt beam="2">  1       21 0.14014781E+00 0.45416316E+03</pdfrwt>
<totfact> 0.39146414E+04</totfact>
</mgrwt>
</event>
<event>
 7    0  0.4748297E-002  0.4540674E+03  0.7546771E-02  0.1026516E+00
         21   -1    0    0  502  501  0.00000000000E+00  0.00000000000E+00  0.15974627809E+03  0.15974627809E+03  0.00000000000E+00 0.  1.
         21   -1    0    0  501  502 -0.00000000000E+00 -0.00000000000E+00 -0.32266354881E+03  0.32266354881E+03  0.00000000000E+00 0.  1.
      99926    2    1    2    0    0  0.14210854715E-13 -0.35527136788E-14 -0.16291727072E+03  0.48240982690E+03  0.45406740027E+03 0.  0.
      99925    2    3    3    0    0  0.10814625862E+03 -0.23985296204E+02 -0.12219842554E+03  0.31043180464E+03  0.26299152542E+03 0.  0.
         25    1    4    4    0    0  0.84763344090E+02 -0.41997036085E+02 -0.68606490425E+02  0.17118099827E+03  0.12509000000E+03 0.  0.
         25    1    3    3    0    0 -0.10814625862E+03  0.23985296204E+02 -0.40718845174E+02  0.17197802226E+03  0.12509000000E+03 0.  0.
         25    1    4    4    0    0  0.23382914527E+02  0.18011739882E+02 -0.53591935117E+02  0.13925080637E+03  0.12509000000E+03 0.  0.
<mgrwt>
<rscale>  2 0.45406740E+03</rscale>
<asrwt>0</asrwt>
<pdfrwt beam="1">  1       21 0.23492100E-01 0.45406740E+03</pdfrwt>
<pdfrwt beam="2">  1       21 0.47450521E-01 0.45406740E+03</pdfrwt>
<totfact> 0.67019877E+04</totfact>
</mgrwt>
</event>
<event>
 7    0  0.4748297E-002  0.4557302E+03  0.7546771E-02  0.1026027E+00
         21   -1    0    0  502  501  0.00000000000E+00  0.00000000000E+00  0.11574897955E+04  0.11574897955E+04  0.00000000000E+00 0.  1.
         21   -1    0    0  501  502 -0.00000000000E+00 -0.00000000000E+00 -0.44857853827E+02  0.44857853827E+02  0.00000000000E+00 0.  1.
      99926    2    1    2    0    0  0.00000000000E+00  0.00000000000E+00  0.11126319417E+04  0.12023476494E+04  0.45573021868E+03 0.  0.
      99925    2    3    3    0    0 -0.11166585294E+03  0.86127811812E+01  0.75412578852E+03  0.80647189526E+03  0.26295963611E+03 0.  0.
         25    1    4    4    0    0 -0.64275034819E+02  0.35308941430E+02  0.45876679980E+03  0.48113666057E+03  0.12509000000E+03 0.  0.
         25    1    3    3    0    0  0.11166585294E+03 -0.86127811812E+01  0.35850615320E+03  0.39587575411E+03  0.12509000000E+03 0.  0.
         25    1    4    4    0    0 -0.47390818119E+02 -0.26696160249E+02  0.29535898872E+03  0.32533523469E+03  0.12509000000E+03 0.  0.
<mgrwt>
<rscale>  2 0.45573022E+03</rscale>
<asrwt>0</asrwt>
<pdfrwt beam="1">  1       21 0.17021907E+00 0.45573022E+03</pdfrwt>
<pdfrwt beam="2">  1       21 0.65967439E-02 0.45573022E+03</pdfrwt>
<totfact> 0.31899792E+04</totfact>
</mgrwt>
</event>
<event>
 7    0  0.4748297E-002  0.4554414E+03  0.7546771E-02  0.1026112E+00
         21   -1    0    0  502  501  0.00000000000E+00  0.00000000000E+00  0.62254852856E+02  0.62254852856E+02  0.00000000000E+00 0.  1.
         21   -1    0    0  501  502 -0.00000000000E+00 -0.00000000000E+00 -0.83297485222E+03  0.83297485222E+03  0.00000000000E+00 0.  1.
      99926    2    1    2    0    0  0.00000000000E+00 -0.35527136788E-14 -0.77071999937E+03  0.89522970508E+03  0.45544144237E+03 0.  0.
      99925    2    3    3    0    0  0.90181816026E+02 -0.17791086405E+02 -0.61583343258E+03  0.67594304482E+03  0.26305683883E+03 0.  0.
         25    1    3    3    0    0 -0.90181816026E+02  0.17791086405E+02 -0.15488656678E+03  0.21928666026E+03  0.12509000000E+03 0.  0.
         25    1    4    4    0    0  0.45536867498E+01 -0.65400972286E+01 -0.24609247727E+03  0.27617480769E+03  0.12509000000E+03 0.  0.
         25    1    4    4    0    0  0.85628129276E+02 -0.11250989176E+02 -0.36974095531E+03  0.39976823713E+03  0.12509000000E+03 0.  0.
<mgrwt>
<rscale>  2 0.45544144E+03</rscale>
<asrwt>0</asrwt>
<pdfrwt beam="1">  1       21 0.91551257E-02 0.45544144E+03</pdfrwt>
<pdfrwt beam="2">  1       21 0.12249630E+00 0.45544144E+03</pdfrwt>
<totfact> 0.43290748E+04</totfact>
</mgrwt>
</event>
<event>
 7    0  0.4748297E-002  0.4550844E+03  0.7546771E-02  0.1026217E+00
         21   -1    0    0  502  501  0.00000000000E+00  0.00000000000E+00  0.10598291800E+03  0.10598291800E+03  0.00000000000E+00 0. -1.
         21   -1    0    0  501  502 -0.00000000000E+00 -0.00000000000E+00 -0.48852647053E+03  0.48852647053E+03  0.00000000000E+00 0. -1.
      99926    2    1    2    0    0  0.00000000000E+00  0.00000000000E+00 -0.38254355253E+03  0.59450938854E+03  0.45508443555E+03 0.  0.
      99925    2    3    3    0    0 -0.89012718840E+02 -0.67643145528E+02 -0.21841093035E+03  0.35980556451E+03  0.26316886309E+03 0.  0.
         25    1    3    3    0    0  0.89012718840E+02  0.67643145528E+02 -0.16413262218E+03  0.23470382403E+03  0.12509000000E+03 0.  0.
         25    1    4    4    0    0 -0.65356168796E+02 -0.47574352336E+02 -0.74197758687E+02  0.16639580311E+03  0.12509000000E+03 0.  0.
         25    1    4    4    0    0 -0.23656550044E+02 -0.20068793192E+02 -0.14421317166E+03  0.19340976139E+03  0.12509000000E+03 0.  0.
<mgrwt>
<rscale>  2 0.45508444E+03</rscale>
<asrwt>0</asrwt>
<pdfrwt beam="1">  1       21 0.15585724E-01 0.45508444E+03</pdfrwt>
<pdfrwt beam="2">  1       21 0.71842126E-01 0.45508444E+03</pdfrwt>
<totfact> 0.58978144E+04</totfact>
</mgrwt>
</event>
<event>
 7    0  0.4748297E-002  0.4529097E+03  0.7546771E-02  0.1026858E+00
         21   -1    0    0  502  501  0.00000000000E+00  0.00000000000E+00  0.76580900849E+03  0.76580900849E+03  0.00000000000E+00 0. -1.
         21   -1    0    0  501  502 -0.00000000000E+00 -0.00000000000E+00 -0.66964225009E+02  0.66964225009E+02  0.00000000000E+00 0. -1.
      99926    2    1    2    0    0  0.00000000000E+00  0.35527136788E-14  0.69884478348E+03  0.83277323350E+03  0.45290973387E+03 0.  0.
      99925    2    3    3    0    0  0.17396771395E+02 -0.26041871212E+02  0.63677509790E+03  0.68966145663E+03  0.26300108886E+03 0.  0.
         25    1    4    4    0    0 -0.31089225150E+02 -0.20839404493E+02  0.31922855426E+03  0.34489882379E+03  0.12509000000E+03 0.  0.
         25    1    4    4    0    0  0.48485996545E+02 -0.52024667188E+01  0.31754654364E+03  0.34476263283E+03  0.12509000000E+03 0.  0.
         25    1    3    3    0    0 -0.17396771395E+02  0.26041871212E+02  0.62069685585E+02  0.14311177687E+03  0.12509000000E+03 0.  0.
<mgrwt>
<rscale>  2 0.45290973E+03</rscale>
<asrwt>0</asrwt>
<pdfrwt beam="1">  1       21 0.11261897E+00 0.45290973E+03</pdfrwt>
<pdfrwt beam="2">  1       21 0.98476806E-02 0.45290973E+03</pdfrwt>
<totfact> 0.46985940E+04</totfact>
</mgrwt>
</event>
<event>
 7    0  0.4748297E-002  0.4519007E+03  0.7546771E-02  0.1027157E+00
         21   -1    0    0  502  501  0.00000000000E+00  0.00000000000E+00  0.32918853317E+02  0.32918853317E+02  0.00000000000E+00 0.  1.
         21   -1    0    0  501  502 -0.00000000000E+00 -0.00000000000E+00 -0.15508912349E+04  0.15508912349E+04  0.00000000000E+00 0.  1.
      99926    2    1    2    0    0  0.00000000000E+00 -0.14210854715E-13 -0.15179723816E+04  0.15838100882E+04  0.45190070179E+03 0.  0.
      99925    2    3    3    0    0 -0.21649352081E+02 -0.97659756962E+02 -0.11190056051E+04  0.11538936784E+04  0.26323175012E+03 0.  0.
         25    1    4    4    0    0 -0.14468257760E+02 -0.92329722609E+02 -0.63046411893E+03  0.64951260305E+03  0.12509000000E+03 0.  0.
         25    1    3    3    0    0  0.21649352081E+02  0.97659756962E+02 -0.39896677646E+03  0.42991640977E+03  0.12509000000E+03 0.  0.
         25    1    4    4    0    0 -0.71810943215E+01 -0.53300343534E+01 -0.48854148617E+03  0.50438107537E+03  0.12509000000E+03 0.  0.
<mgrwt>
<rscale>  2 0.45190070E+03</rscale>
<asrwt>0</asrwt>
<pdfrwt beam="1">  1       21 0.48410083E-02 0.45190070E+03</pdfrwt>
<pdfrwt beam="2">  1       21 0.22807222E+00 0.45190070E+03</pdfrwt>
<totfact> 0.22330373E+04</totfact>
</mgrwt>
</event>
<event>
 7    0  0.4748297E-002  0.4736722E+03  0.7546771E-02  0.1020889E+00
         21   -1    0    0  502  501  0.00000000000E+00  0.00000000000E+00  0.11650852915E+03  0.11650852915E+03  0.00000000000E+00 0. -1.
         21   -1    0    0  501  502 -0.00000000000E+00 -0.00000000000E+00 -0.48143554173E+03  0.48143554173E+03  0.00000000000E+00 0. -1.
      99926    2    1    2    0    0  0.00000000000E+00  0.00000000000E+00 -0.36492701258E+03  0.59794407088E+03  0.47367223625E+03 0.  0.
      99925    2    3    3    0    0 -0.95345230892E+01  0.64968351855E+02 -0.36746566088E+03  0.45664387022E+03  0.26302246749E+03 0.  0.
         25    1    3    3    0    0  0.95345230892E+01 -0.64968351855E+02  0.25386483063E+01  0.14130020067E+03  0.12509000000E+03 0.  0.
         25    1    4    4    0    0 -0.22503035168E+02  0.29920677259E+02 -0.24509644088E+03  0.27770741249E+03  0.12509000000E+03 0.  0.
         25    1    4    4    0    0  0.12968512079E+02  0.35047674597E+02 -0.12236922001E+03  0.17893645773E+03  0.12509000000E+03 0.  0.
<mgrwt>
<rscale>  2 0.47367224E+03</rscale>
<asrwt>0</asrwt>
<pdfrwt beam="1">  1       21 0.17133607E-01 0.47367224E+03</pdfrwt>
<pdfrwt beam="2">  1       21 0.70799343E-01 0.47367224E+03</pdfrwt>
<totfact> 0.50872483E+04</totfact>
</mgrwt>
</event>
<event>
 7    0  0.4748297E-002  0.4479615E+03  0.7546771E-02  0.1028332E+00
         21   -1    0    0  502  501  0.00000000000E+00  0.00000000000E+00  0.85807047291E+03  0.85807047291E+03  0.00000000000E+00 0.  1.
         21   -1    0    0  501  502 -0.00000000000E+00 -0.00000000000E+00 -0.58465328973E+02  0.58465328973E+02  0.00000000000E+00 0.  1.
      99926    2    1    2    0    0  0.14210854715E-13  0.00000000000E+00  0.79960514393E+03  0.91653580188E+03  0.44796148263E+03 0.  0.
      99925    2    3    3    0    0 -0.76612891281E+02  0.71446716551E+02  0.47219579939E+03  0.55072361590E+03  0.26335045041E+03 0.  0.
         25    1    3    3    0    0  0.76612891281E+02 -0.71446716551E+02  0.32740934455E+03  0.36581218598E+03  0.12509000000E+03 0.  0.
         25    1    4    4    0    0 -0.77916749919E+01  0.44357148483E+01  0.22167997310E+03  0.25469570931E+03  0.12509000000E+03 0.  0.
         25    1    4    4    0    0 -0.68821216289E+02  0.67011001702E+02  0.25051582629E+03  0.29602790659E+03  0.12509000000E+03 0.  0.
<mgrwt>
<rscale>  2 0.44796148E+03</rscale>
<asrwt>0</asrwt>
<pdfrwt beam="1">  1       21 0.12618683E+00 0.44796148E+03</pdfrwt>
<pdfrwt beam="2">  1       21 0.85978430E-02 0.44796148E+03</pdfrwt>
<totfact> 0.44950925E+04</totfact>
</mgrwt>
</event>
<event>
 7    0  0.4748297E-002  0.4629577E+03  0.7546771E-02  0.1023927E+00
         21   -1    0    0  502  501  0.00000000000E+00  0.00000000000E+00  0.17409783716E+04  0.17409783716E+04  0.00000000000E+00 0. -1.
         21   -1    0    0  501  502 -0.00000000000E+00 -0.00000000000E+00 -0.30777214797E+02  0.30777214797E+02  0.00000000000E+00 0. -1.
      99926    2    1    2    0    0  0.00000000000E+00  0.00000000000E+00  0.17102011569E+04  0.17717555864E+04  0.46295773155E+03 0.  0.
      99925    2    3    3    0    0 -0.92319311501E+02  0.71270405755E+02  0.11839967754E+04  0.12184555908E+04  0.26302725448E+03 0.  0.
         25    1    3    3    0    0  0.92319311501E+02 -0.71270405755E+02  0.52620438141E+03  0.55329999560E+03  0.12509000000E+03 0.  0.
         25    1    4    4    0    0 -0.68478417348E+02  0.66058909679E+02  0.74136884806E+03  0.75784454222E+03  0.12509000000E+03 0.  0.
         25    1    4    4    0    0 -0.23840894152E+02  0.52114960760E+01  0.44262792737E+03  0.46061104863E+03  0.12509000000E+03 0.  0.
<mgrwt>
<rscale>  2 0.46295773E+03</rscale>
<asrwt>0</asrwt>
<pdfrwt beam="1">  1       21 0.25602616E+00 0.46295773E+03</pdfrwt>
<pdfrwt beam="2">  1       21 0.45260622E-02 0.46295773E+03</pdfrwt>
<totfact> 0.16749612E+04</totfact>
</mgrwt>
</event>
<event>
 6    0  0.4748297E-002  0.4524552E+03  0.7546771E-02  0.1026992E+00
         21   -1    0    0  502  501  0.00000000000E+00  0.00000000000E+00  0.14876290785E+03  0.14876290785E+03  0.00000000000E+00 0. -1.
         21   -1    0    0  501  502 -0.00000000000E+00 -0.00000000000E+00 -0.34403015283E+03  0.34403015283E+03  0.00000000000E+00 0. -1.
      99926    2    1    2    0    0 -0.17763568394E-14  0.71054273576E-14 -0.19526724498E+03  0.49279306069E+03  0.45245519524E+03 0.  0.
         25    1    3    3    0    0  0.51551917182E+02 -0.55954745776E+02  0.10568782843E+01  0.14641433957E+03  0.12509000000E+03 0.  0.
         25    1    3    3    0    0 -0.42908028939E+02 -0.68576493699E+01 -0.44510400263E+02  0.13970257741E+03  0.12509000000E+03 0.  0.
         25    1    3    3    0    0 -0.86438882434E+01  0.62812395146E+02 -0.15181372300E+03  0.20667614371E+03  0.12509000000E+03 0.  0.
<mgrwt>
<rscale>  2 0.45245520E+03</rscale>
<asrwt>0</asrwt>
<pdfrwt beam="1">  1       21 0.21876899E-01 0.45245520E+03</pdfrwt>
<pdfrwt beam="2">  1       21 0.50592668E-01 0.45245520E+03</pdfrwt>
<totfact> 0.67125861E+04</totfact>
</mgrwt>
</event>
<event>
 7    0  0.4748297E-002  0.4516699E+03  0.7546771E-02  0.1027225E+00
         21   -1    0    0  502  501  0.00000000000E+00  0.00000000000E+00  0.50156878680E+03  0.50156878680E+03  0.00000000000E+00 0.  1.
         21   -1    0    0  501  502 -0.00000000000E+00 -0.00000000000E+00 -0.10168380763E+03  0.10168380763E+03  0.00000000000E+00 0.  1.
      99926    2    1    2    0    0  0.00000000000E+00  0.00000000000E+00  0.39988497917E+03  0.60325259444E+03  0.45166989730E+03 0.  0.
      99925    2    3    3    0    0  0.26141449394E+02  0.10658699857E+03  0.26021148942E+03  0.38599616650E+03  0.26313277578E+03 0.  0.
         25    1    4    4    0    0  0.24084630159E+02  0.70424666310E+02  0.18573307010E+03  0.23597454198E+03  0.12509000000E+03 0.  0.
         25    1    4    4    0    0  0.20568192345E+01  0.36162332255E+02  0.74478419315E+02  0.15002162452E+03  0.12509000000E+03 0.  0.
         25    1    3    3    0    0 -0.26141449394E+02 -0.10658699857E+03  0.13967348975E+03  0.21725642794E+03  0.12509000000E+03 0.  0.
<mgrwt>
<rscale>  2 0.45166990E+03</rscale>
<asrwt>0</asrwt>
<pdfrwt beam="1">  1       21 0.73760114E-01 0.45166990E+03</pdfrwt>
<pdfrwt beam="2">  1       21 0.14953501E-01 0.45166990E+03</pdfrwt>
<totfact> 0.60042650E+04</totfact>
</mgrwt>
</event>
<event>
 7    0  0.4748297E-002  0.4520664E+03  0.7546771E-02  0.1027108E+00
         21   -1    0    0  502  501  0.00000000000E+00  0.00000000000E+00  0.29340416683E+03  0.29340416683E+03  0.00000000000E+00 0. -1.
         21   -1    0    0  501  502 -0.00000000000E+00 -0.00000000000E+00 -0.17413181932E+03  0.17413181932E+03  0.00000000000E+00 0. -1.
      99926    2    1    2    0    0  0.26645352591E-14 -0.35527136788E-14  0.11927234751E+03  0.46753598615E+03  0.45206637286E+03 0.  0.
      99925    2    3    3    0    0 -0.16436790318E+01  0.22045590594E+02  0.18710329122E+03  0.32353162938E+03  0.26301399939E+03 0.  0.
         25    1    3    3    0    0  0.16436790318E+01 -0.22045590594E+02 -0.67830943714E+02  0.14400435678E+03  0.12509000000E+03 0.  0.
         25    1    4    4    0    0  0.17844959158E+02 -0.22492510599E+02  0.10808298157E+03  0.16779092528E+03  0.12509000000E+03 0.  0.
         25    1    4    4    0    0 -0.19488638190E+02  0.44538101192E+02  0.79020309647E+02  0.15574070410E+03  0.12509000000E+03 0.  0.
<mgrwt>
<rscale>  2 0.45206637E+03</rscale>
<asrwt>0</asrwt>
<pdfrwt beam="1">  1       21 0.43147672E-01 0.45206637E+03</pdfrwt>
<pdfrwt beam="2">  1       21 0.25607620E-01 0.45206637E+03</pdfrwt>
<totfact> 0.69216267E+04</totfact>
</mgrwt>
</event>
<event>
 7    0  0.4748297E-002  0.4523636E+03  0.7546771E-02  0.1027020E+00
         21   -1    0    0  502  501  0.00000000000E+00  0.00000000000E+00  0.62510328214E+03  0.62510328214E+03  0.00000000000E+00 0. -1.
         21   -1    0    0  501  502 -0.00000000000E+00 -0.00000000000E+00 -0.81839596749E+02  0.81839596749E+02  0.00000000000E+00 0. -1.
      99926    2    1    2    0    0 -0.14210854715E-13  0.00000000000E+00  0.54326368539E+03  0.70694287889E+03  0.45236357297E+03 0.  0.
      99925    2    3    3    0    0  0.68883113457E+02 -0.24433350963E+02  0.21416622050E+03  0.34736740495E+03  0.26354330206E+03 0.  0.
         25    1    4    4    0    0 -0.55820864888E+01  0.22832635767E+01  0.10552980842E+03  0.16376941579E+03  0.12509000000E+03 0.  0.
         25    1    3    3    0    0 -0.68883113457E+02  0.24433350963E+02  0.32909746490E+03  0.35957547394E+03  0.12509000000E+03 0.  0.
         25    1    4    4    0    0  0.74465199946E+02 -0.26716614540E+02  0.10863641207E+03  0.18359798916E+03  0.12509000000E+03 0.  0.
<mgrwt>
<rscale>  2 0.45236357E+03</rscale>
<asrwt>0</asrwt>
<pdfrwt beam="1">  1       21 0.91926951E-01 0.45236357E+03</pdfrwt>
<pdfrwt beam="2">  1       21 0.12035235E-01 0.45236357E+03</pdfrwt>
<totfact> 0.53631536E+04</totfact>
</mgrwt>
</event>
<event>
 7    0  0.4748297E-002  0.4468613E+03  0.7546771E-02  0.1028662E+00
         21   -1    0    0  502  501  0.00000000000E+00  0.00000000000E+00  0.16342160870E+03  0.16342160870E+03  0.00000000000E+00 0.  1.
         21   -1    0    0  501  502 -0.00000000000E+00 -0.00000000000E+00 -0.30547529950E+03  0.30547529950E+03  0.00000000000E+00 0.  1.
      99926    2    1    2    0    0  0.00000000000E+00  0.00000000000E+00 -0.14205369080E+03  0.46889690820E+03  0.44686134254E+03 0.  0.
      99925    2    3    3    0    0 -0.42913804488E+02 -0.58099790954E+02 -0.89611142815E+01  0.27248325708E+03  0.26258264127E+03 0.  0.
         25    1    3    3    0    0  0.42913804488E+02  0.58099790954E+02 -0.13309257651E+03  0.19641365112E+03  0.12509000000E+03 0.  0.
         25    1    4    4    0    0  0.16025395870E+02 -0.29330356264E+02  0.10521285999E+02  0.12990492166E+03  0.12509000000E+03 0.  0.
         25    1    4    4    0    0 -0.58939200358E+02 -0.28769434690E+02 -0.19482400280E+02  0.14257833542E+03  0.12509000000E+03 0.  0.
<mgrwt>
<rscale>  2 0.44686134E+03</rscale>
<asrwt>0</asrwt>
<pdfrwt beam="1">  1       21 0.24032590E-01 0.44686134E+03</pdfrwt>
<pdfrwt beam="2">  1       21 0.44922838E-01 0.44686134E+03</pdfrwt>
<totfact> 0.72060236E+04</totfact>
</mgrwt>
</event>
<event>
 7    0  0.4748297E-002  0.4479110E+03  0.7546771E-02  0.1028347E+00
         21   -1    0    0  502  501  0.00000000000E+00  0.00000000000E+00  0.47505253397E+03  0.47505253397E+03  0.00000000000E+00 0. -1.
         21   -1    0    0  501  502 -0.00000000000E+00 -0.00000000000E+00 -0.10558006014E+03  0.10558006014E+03  0.00000000000E+00 0. -1.
      99926    2    1    2    0    0  0.00000000000E+00  0.00000000000E+00  0.36947247384E+03  0.58063259411E+03  0.44791104074E+03 0.  0.
      99925    2    3    3    0    0 -0.18236631722E+02 -0.78801152062E+02  0.14436641944E+03  0.31070215839E+03  0.26296762512E+03 0.  0.
         25    1    3    3    0    0  0.18236631722E+02  0.78801152062E+02  0.22510605439E+03  0.26993043572E+03  0.12509000000E+03 0.  0.
         25    1    4    4    0    0  0.12443958914E+02 -0.79781180971E+01  0.47250122809E+02  0.13453098040E+03  0.12509000000E+03 0.  0.
         25    1    4    4    0    0 -0.30680590635E+02 -0.70823033965E+02  0.97116296633E+02  0.17617117799E+03  0.12509000000E+03 0.  0.
<mgrwt>
<rscale>  2 0.44791104E+03</rscale>
<asrwt>0</asrwt>
<pdfrwt beam="1">  1       21 0.69860666E-01 0.44791104E+03</pdfrwt>
<pdfrwt beam="2">  1       21 0.15526480E-01 0.44791104E+03</pdfrwt>
<totfact> 0.63363494E+04</totfact>
</mgrwt>
</event>
<event>
 7    0  0.4748297E-002  0.4573535E+03  0.7546771E-02  0.1025552E+00
         21   -1    0    0  502  501  0.00000000000E+00  0.00000000000E+00  0.21152499482E+03  0.21152499482E+03  0.00000000000E+00 0. -1.
         21   -1    0    0  501  502 -0.00000000000E+00 -0.00000000000E+00 -0.24721925194E+03  0.24721925194E+03  0.00000000000E+00 0. -1.
      99926    2    1    2    0    0  0.00000000000E+00  0.00000000000E+00 -0.35694257123E+02  0.45874424676E+03  0.45735347811E+03 0.  0.
      99925    2    3    3    0    0 -0.92735033111E+02 -0.57879338415E+02 -0.59249762859E+02  0.29095815040E+03  0.26305190876E+03 0.  0.
         25    1    4    4    0    0 -0.41041305097E+02  0.11398368452E+01 -0.56518815054E+02  0.14327446565E+03  0.12509000000E+03 0.  0.
         25    1    4    4    0    0 -0.51693728014E+02 -0.59019175260E+02 -0.27309478045E+01  0.14768368475E+03  0.12509000000E+03 0.  0.
         25    1    3    3    0    0  0.92735033111E+02  0.57879338415E+02  0.23555505736E+02  0.16778609636E+03  0.12509000000E+03 0.  0.
<mgrwt>
<rscale>  2 0.45735348E+03</rscale>
<asrwt>0</asrwt>
<pdfrwt beam="1">  1       21 0.31106617E-01 0.45735348E+03</pdfrwt>
<pdfrwt beam="2">  1       21 0.36355772E-01 0.45735348E+03</pdfrwt>
<totfact> 0.67005317E+04</totfact>
</mgrwt>
</event>
<event>
 7    0  0.4748297E-002  0.4541901E+03  0.7546771E-02  0.1026480E+00
         21   -1    0    0  502  501  0.00000000000E+00  0.00000000000E+00  0.20898757908E+03  0.20898757908E+03  0.00000000000E+00 0.  1.
         21   -1    0    0  501  502 -0.00000000000E+00 -0.00000000000E+00 -0.24677137159E+03  0.24677137159E+03  0.00000000000E+00 0.  1.
      99926    2    1    2    0    0  0.00000000000E+00 -0.71054273576E-14 -0.37783792516E+02  0.45575895067E+03  0.45419005508E+03 0.  0.
      99925    2    3    3    0    0 -0.98985443585E+02  0.49775017094E+02 -0.42894532647E+02  0.28857851481E+03  0.26298659265E+03 0.  0.
         25    1    4    4    0    0 -0.20623325671E+02  0.51686806555E+02 -0.95744192469E+01  0.13724439929E+03  0.12509000000E+03 0.  0.
         25    1    4    4    0    0 -0.78362117914E+02 -0.19117894611E+01 -0.33320113400E+02  0.15133411552E+03  0.12509000000E+03 0.  0.
         25    1    3    3    0    0  0.98985443585E+02 -0.49775017094E+02  0.51107401315E+01  0.16718043586E+03  0.12509000000E+03 0.  0.
<mgrwt>
<rscale>  2 0.45419006E+03</rscale>
<asrwt>0</asrwt>
<pdfrwt beam="1">  1       21 0.30733468E-01 0.45419006E+03</pdfrwt>
<pdfrwt beam="2">  1       21 0.36289907E-01 0.45419006E+03</pdfrwt>
<totfact> 0.68934657E+04</totfact>
</mgrwt>
</event>
<event>
 7    0  0.4748297E-002  0.4539155E+03  0.7546771E-02  0.1026561E+00
         21   -1    0    0  502  501  0.00000000000E+00  0.00000000000E+00  0.56988729637E+03  0.56988729637E+03  0.00000000000E+00 0. -1.
         21   -1    0    0  501  502 -0.00000000000E+00 -0.00000000000E+00 -0.90385964064E+02  0.90385964064E+02  0.00000000000E+00 0. -1.
      99926    2    1    2    0    0 -0.35527136788E-14 -0.35527136788E-14  0.47950133231E+03  0.66027326043E+03  0.45391546654E+03 0.  0.
      99925    2    3    3    0    0 -0.29225124195E+02 -0.31772590317E+02  0.15104747238E+03  0.30616444724E+03  0.26278836440E+03 0.  0.
         25    1    4    4    0    0 -0.35342309478E+02 -0.38535629634E+01  0.38869084233E+02  0.13572856220E+03  0.12509000000E+03 0.  0.
         25    1    4    4    0    0  0.61171852830E+01 -0.27919027354E+02  0.11217838814E+03  0.17043588504E+03  0.12509000000E+03 0.  0.
         25    1    3    3    0    0  0.29225124195E+02  0.31772590317E+02  0.32845385993E+03  0.35410881319E+03  0.12509000000E+03 0.  0.
<mgrwt>
<rscale>  2 0.45391547E+03</rscale>
<asrwt>0</asrwt>
<pdfrwt beam="1">  1       21 0.83806954E-01 0.45391547E+03</pdfrwt>
<pdfrwt beam="2">  1       21 0.13292054E-01 0.45391547E+03</pdfrwt>
<totfact> 0.55586899E+04</totfact>
</mgrwt>
</event>
<event>
 7    0  0.4748297E-002  0.4602257E+03  0.7546771E-02  0.1024716E+00
         21   -1    0    0  502  501  0.00000000000E+00  0.00000000000E+00  0.10119558825E+04  0.10119558825E+04  0.00000000000E+00 0.  1.
         21   -1    0    0  501  502 -0.00000000000E+00 -0.00000000000E+00 -0.52326321136E+02  0.52326321136E+02  0.00000000000E+00 0.  1.
      99926    2    1    2    0    0 -0.88817841970E-15  0.00000000000E+00  0.95962956138E+03  0.10642822037E+04  0.46022572064E+03 0.  0.
      99925    2    3    3    0    0  0.39874283356E+01 -0.16738442656E+02  0.33079297372E+03  0.42289383680E+03  0.26290517434E+03 0.  0.
         25    1    3    3    0    0 -0.39874283356E+01  0.16738442656E+02  0.62883658766E+03  0.64138836685E+03  0.12509000000E+03 0.  0.
         25    1    4    4    0    0 -0.38117307284E+02 -0.39563840798E+01  0.16080441243E+03  0.20730207246E+03  0.12509000000E+03 0.  0.
         25    1    4    4    0    0  0.42104735620E+02 -0.12782058576E+02  0.16998856129E+03  0.21559176434E+03  0.12509000000E+03 0.  0.
<mgrwt>
<rscale>  2 0.46022572E+03</rscale>
<asrwt>0</asrwt>
<pdfrwt beam="1">  1       21 0.14881703E+00 0.46022572E+03</pdfrwt>
<pdfrwt beam="2">  1       21 0.76950479E-02 0.46022572E+03</pdfrwt>
<totfact> 0.35296091E+04</totfact>
</mgrwt>
</event>
<event>
 7    0  0.4748297E-002  0.4589868E+03  0.7546771E-02  0.1025075E+00
         21   -1    0    0  502  501  0.00000000000E+00  0.00000000000E+00  0.21993334477E+03  0.21993334477E+03  0.00000000000E+00 0.  1.
         21   -1    0    0  501  502 -0.00000000000E+00 -0.00000000000E+00 -0.23946897325E+03  0.23946897325E+03  0.00000000000E+00 0.  1.
      99926    2    1    2    0    0  0.71054273576E-14  0.00000000000E+00 -0.19535628478E+02  0.45940231802E+03  0.45898676345E+03 0.  0.
      99925    2    3    3    0    0 -0.59749282756E+02  0.10909781737E+02  0.87729413745E+02  0.28378256540E+03  0.26295835081E+03 0.  0.
         25    1    4    4    0    0  0.10835183828E+02  0.90639768620E+01  0.33729900595E+02  0.13032563516E+03  0.12509000000E+03 0.  0.
         25    1    3    3    0    0  0.59749282756E+02 -0.10909781737E+02 -0.10726504222E+03  0.17561975262E+03  0.12509000000E+03 0.  0.
         25    1    4    4    0    0 -0.70584466583E+02  0.18458048754E+01  0.53999513151E+02  0.15345693024E+03  0.12509000000E+03 0.  0.
<mgrwt>
<rscale>  2 0.45898676E+03</rscale>
<asrwt>0</asrwt>
<pdfrwt beam="1">  1       21 0.32343139E-01 0.45898676E+03</pdfrwt>
<pdfrwt beam="2">  1       21 0.35216025E-01 0.45898676E+03</pdfrwt>
<totfact> 0.66096809E+04</totfact>
</mgrwt>
</event>
<event>
 7    0  0.4748297E-002  0.4566081E+03  0.7546771E-02  0.1025770E+00
         21   -1    0    0  502  501  0.00000000000E+00  0.00000000000E+00  0.26182421580E+03  0.26182421580E+03  0.00000000000E+00 0. -1.
         21   -1    0    0  501  502 -0.00000000000E+00 -0.00000000000E+00 -0.19907532056E+03  0.19907532056E+03  0.00000000000E+00 0. -1.
      99926    2    1    2    0    0  0.00000000000E+00  0.00000000000E+00  0.62748895240E+02  0.46089953637E+03  0.45660810195E+03 0.  0.
      99925    2    3    3    0    0 -0.10806897166E+03  0.26720289895E+02  0.11688444364E+02  0.28583510745E+03  0.26300610713E+03 0.  0.
         25    1    3    3    0    0  0.10806897166E+03 -0.26720289895E+02  0.51060450876E+02  0.17506442892E+03  0.12509000000E+03 0.  0.
         25    1    4    4    0    0 -0.31562583980E+02 -0.21247676213E+01 -0.26209485061E+02  0.13166304171E+03  0.12509000000E+03 0.  0.
         25    1    4    4    0    0 -0.76506387684E+02  0.28845057517E+02  0.37897929425E+02  0.15417206574E+03  0.12509000000E+03 0.  0.
<mgrwt>
<rscale>  2 0.45660810E+03</rscale>
<asrwt>0</asrwt>
<pdfrwt beam="1">  1       21 0.38503561E-01 0.45660810E+03</pdfrwt>
<pdfrwt beam="2">  1       21 0.29275783E-01 0.45660810E+03</pdfrwt>
<totfact> 0.67248506E+04</totfact>
</mgrwt>
</event>
<event>
 7    0  0.4748297E-002  0.4536103E+03  0.7546771E-02  0.1026651E+00
         21   -1    0    0  502  501  0.00000000000E+00  0.00000000000E+00  0.15974170625E+04  0.15974170625E+04  0.00000000000E+00 0.  1.
         21   -1    0    0  501  502 -0.00000000000E+00 -0.00000000000E+00 -0.32202351493E+02  0.32202351493E+02  0.00000000000E+00 0.  1.
      99926    2    1    2    0    0  0.00000000000E+00  0.00000000000E+00  0.15652147110E+04  0.16296194140E+04  0.45361034260E+03 0.  0.
      99925    2    3    3    0    0  0.43859008368E+02  0.68140022141E+02  0.12631767047E+04  0.12928091699E+04  0.26300853030E+03 0.  0.
         25    1    4    4    0    0  0.81314349069E+01 -0.14847564022E+01  0.66411611240E+03  0.67584468896E+03  0.12509000000E+03 0.  0.
         25    1    4    4    0    0  0.35727573461E+02  0.69624778543E+02  0.59906059234E+03  0.61696448090E+03  0.12509000000E+03 0.  0.
         25    1    3    3    0    0 -0.43859008368E+02 -0.68140022141E+02  0.30203800628E+03  0.33681024416E+03  0.12509000000E+03 0.  0.
<mgrwt>
<rscale>  2 0.45361034E+03</rscale>
<asrwt>0</asrwt>
<pdfrwt beam="1">  1       21 0.23491422E+00 0.45361034E+03</pdfrwt>
<pdfrwt beam="2">  1       21 0.47356410E-02 0.45361034E+03</pdfrwt>
<totfact> 0.20994273E+04</totfact>
</mgrwt>
</event>
<event>
 7    0  0.4748297E-002  0.4561843E+03  0.7546771E-02  0.1025894E+00
         21   -1    0    0  502  501  0.00000000000E+00  0.00000000000E+00  0.12806069908E+04  0.12806069908E+04  0.00000000000E+00 0. -1.
         21   -1    0    0  501  502 -0.00000000000E+00 -0.00000000000E+00 -0.40626063327E+02  0.40626063327E+02  0.00000000000E+00 0. -1.
      99926    2    1    2    0    0  0.14210854715E-13  0.00000000000E+00  0.12399809275E+04  0.13212330542E+04  0.45618426412E+03 0.  0.
      99925    2    3    3    0    0  0.85577835883E+02  0.74300984825E+02  0.82448238348E+03  0.87275702299E+03  0.26284866023E+03 0.  0.
         25    1    4    4    0    0  0.84293169624E+02  0.39654161452E+02  0.42499064974E+03  0.45270559024E+03  0.12509000000E+03 0.  0.
         25    1    4    4    0    0  0.12846662586E+01  0.34646823373E+02  0.39949173373E+03  0.42005143275E+03  0.12509000000E+03 0.  0.
         25    1    3    3    0    0 -0.85577835883E+02 -0.74300984825E+02  0.41549854403E+03  0.44847603116E+03  0.12509000000E+03 0.  0.
<mgrwt>
<rscale>  2 0.45618426E+03</rscale>
<asrwt>0</asrwt>
<pdfrwt beam="1">  1       21 0.18832453E+00 0.45618426E+03</pdfrwt>
<pdfrwt beam="2">  1       21 0.59744219E-02 0.45618426E+03</pdfrwt>
<totfact> 0.28243264E+04</totfact>
</mgrwt>
</event>
<event>
 7    0  0.4748297E-002  0.4551343E+03  0.7546771E-02  0.1026202E+00
         21   -1    0    0  502  501  0.00000000000E+00  0.00000000000E+00  0.20690776739E+03  0.20690776739E+03  0.00000000000E+00 0. -1.
         21   -1    0    0  501  502 -0.00000000000E+00 -0.00000000000E+00 -0.25028930427E+03  0.25028930427E+03  0.00000000000E+00 0. -1.
      99926    2    1    2    0    0  0.00000000000E+00 -0.17763568394E-14 -0.43381536885E+02  0.45719707166E+03  0.45513427095E+03 0.  0.
      99925    2    3    3    0    0 -0.10585643854E+03 -0.13732664973E+02  0.10742984082E+02  0.28407531238E+03  0.26303839972E+03 0.  0.
         25    1    4    4    0    0 -0.23262144577E+02  0.13449327694E+02  0.27338819765E+02  0.13083168940E+03  0.12509000000E+03 0.  0.
         25    1    4    4    0    0 -0.82594293959E+02 -0.27181992667E+02 -0.16595835683E+02  0.15324362297E+03  0.12509000000E+03 0.  0.
         25    1    3    3    0    0  0.10585643854E+03  0.13732664973E+02 -0.54124520967E+02  0.17312175928E+03  0.12509000000E+03 0.  0.
<mgrwt>
<rscale>  2 0.45513427E+03</rscale>
<asrwt>0</asrwt>
<pdfrwt beam="1">  1       21 0.30427613E-01 0.45513427E+03</pdfrwt>
<pdfrwt beam="2">  1       21 0.36807250E-01 0.45513427E+03</pdfrwt>
<totfact> 0.68311930E+04</totfact>
</mgrwt>
</event>
<event>
 7    0  0.4748297E-002  0.4540014E+03  0.7546771E-02  0.1026535E+00
         21   -1    0    0  502  501  0.00000000000E+00  0.00000000000E+00  0.15208095893E+03  0.15208095893E+03  0.00000000000E+00 0. -1.
         21   -1    0    0  501  502 -0.00000000000E+00 -0.00000000000E+00 -0.33882816001E+03  0.33882816001E+03  0.00000000000E+00 0. -1.
      99926    2    1    2    0    0  0.00000000000E+00 -0.17763568394E-14 -0.18674720107E+03  0.49090911894E+03  0.45400137219E+03 0.  0.
      99925    2    3    3    0    0  0.10932738139E+03  0.13396156654E+02 -0.94239656575E+02  0.30028622623E+03  0.26298055338E+03 0.  0.
         25    1    4    4    0    0  0.61475253838E+02 -0.28511692906E+02 -0.27537175905E+02  0.14490661691E+03  0.12509000000E+03 0.  0.
         25    1    4    4    0    0  0.47852127555E+02  0.41907849560E+02 -0.66702480670E+02  0.15537960932E+03  0.12509000000E+03 0.  0.
         25    1    3    3    0    0 -0.10932738139E+03 -0.13396156654E+02 -0.92507544498E+02  0.19062289271E+03  0.12509000000E+03 0.  0.
<mgrwt>
<rscale>  2 0.45400137E+03</rscale>
<asrwt>0</asrwt>
<pdfrwt beam="1">  1       21 0.22364847E-01 0.45400137E+03</pdfrwt>
<pdfrwt beam="2">  1       21 0.49827669E-01 0.45400137E+03</pdfrwt>
<totfact> 0.66439315E+04</totfact>
</mgrwt>
</event>
<event>
 7    0  0.4748297E-002  0.4393613E+03  0.7546771E-02  0.1030943E+00
         21   -1    0    0  502  501  0.00000000000E+00  0.00000000000E+00  0.15118683259E+04  0.15118683259E+04  0.00000000000E+00 0. -1.
         21   -1    0    0  501  502 -0.00000000000E+00 -0.00000000000E+00 -0.31920494464E+02  0.31920494464E+02  0.00000000000E+00 0. -1.
      99926    2    1    2    0    0  0.00000000000E+00  0.00000000000E+00  0.14799478315E+04  0.15437888204E+04  0.43936128427E+03 0.  0.
      99925    2    3    3    0    0  0.34837402728E+02  0.73546402659E+02  0.75491437067E+03  0.80355659646E+03  0.26302999582E+03 0.  0.
         25    1    3    3    0    0 -0.34837402728E+02 -0.73546402659E+02  0.72503346078E+03  0.74023222392E+03  0.12509000000E+03 0.  0.
         25    1    4    4    0    0 -0.17833847319E+02  0.24693178246E+02  0.40851521252E+03  0.42832229235E+03  0.12509000000E+03 0.  0.
         25    1    4    4    0    0  0.52671250047E+02  0.48853224413E+02  0.34639915815E+03  0.37523430411E+03  0.12509000000E+03 0.  0.
<mgrwt>
<rscale>  2 0.43936128E+03</rscale>
<asrwt>0</asrwt>
<pdfrwt beam="1">  1       21 0.22233353E+00 0.43936128E+03</pdfrwt>
<pdfrwt beam="2">  1       21 0.46941914E-02 0.43936128E+03</pdfrwt>
<totfact> 0.25709928E+04</totfact>
</mgrwt>
</event>
<event>
 7    0  0.4748297E-002  0.4460496E+03  0.7546771E-02  0.1028907E+00
         21   -1    0    0  502  501  0.00000000000E+00  0.00000000000E+00  0.42895940588E+03  0.42895940588E+03  0.00000000000E+00 0. -1.
         21   -1    0    0  501  502 -0.00000000000E+00 -0.00000000000E+00 -0.11595515021E+03  0.11595515021E+03  0.00000000000E+00 0. -1.
      99926    2    1    2    0    0 -0.17763568394E-14  0.14210854715E-13  0.31300425567E+03  0.54491455608E+03  0.44604955932E+03 0.  0.
      99925    2    3    3    0    0  0.25114727639E+01  0.97739059230E+02  0.24382022319E+03  0.37172919399E+03  0.26301152300E+03 0.  0.
         25    1    4    4    0    0 -0.21218723180E+02  0.82356965104E+02  0.14815873127E+03  0.21173431858E+03  0.12509000000E+03 0.  0.
         25    1    3    3    0    0 -0.25114727639E+01 -0.97739059230E+02  0.69184032473E+02  0.17318536209E+03  0.12509000000E+03 0.  0.
         25    1    4    4    0    0  0.23730195944E+02  0.15382094126E+02  0.95661491922E+02  0.15999487541E+03  0.12509000000E+03 0.  0.
<mgrwt>
<rscale>  2 0.44604956E+03</rscale>
<asrwt>0</asrwt>
<pdfrwt beam="1">  1       21 0.63082265E-01 0.44604956E+03</pdfrwt>
<pdfrwt beam="2">  1       21 0.17052228E-01 0.44604956E+03</pdfrwt>
<totfact> 0.66811372E+04</totfact>
</mgrwt>
</event>
<event>
 7    0  0.4748297E-002  0.4542850E+03  0.7546771E-02  0.1026452E+00
         21   -1    0    0  502  501  0.00000000000E+00  0.00000000000E+00  0.50048985154E+03  0.50048985154E+03  0.00000000000E+00 0.  1.
         21   -1    0    0  501  502 -0.00000000000E+00 -0.00000000000E+00 -0.10308645900E+03  0.10308645900E+03  0.00000000000E+00 0.  1.
      99926    2    1    2    0    0  0.00000000000E+00  0.35527136788E-14  0.39740339254E+03  0.60357631054E+03  0.45428504954E+03 0.  0.
      99925    2    3    3    0    0 -0.10611731048E+03  0.29804946215E+02  0.28032140989E+03  0.39984875431E+03  0.26296333409E+03 0.  0.
         25    1    4    4    0    0 -0.96534620487E+02  0.19598373613E+02  0.15321897412E+03  0.22096739880E+03  0.12509000000E+03 0.  0.
         25    1    4    4    0    0 -0.95826899966E+01  0.10206572602E+02  0.12710243577E+03  0.17888135551E+03  0.12509000000E+03 0.  0.
         25    1    3    3    0    0  0.10611731048E+03 -0.29804946215E+02  0.11708198265E+03  0.20372755622E+03  0.12509000000E+03 0.  0.
<mgrwt>
<rscale>  2 0.45428505E+03</rscale>
<asrwt>0</asrwt>
<pdfrwt beam="1">  1       21 0.73601448E-01 0.45428505E+03</pdfrwt>
<pdfrwt beam="2">  1       21 0.15159774E-01 0.45428505E+03</pdfrwt>
<totfact> 0.58790042E+04</totfact>
</mgrwt>
</event>
<event>
 7    0  0.4748297E-002  0.4553855E+03  0.7546771E-02  0.1026128E+00
         21   -1    0    0  502  501  0.00000000000E+00  0.00000000000E+00  0.20566073027E+04  0.20566073027E+04  0.00000000000E+00 0. -1.
         21   -1    0    0  501  502 -0.00000000000E+00 -0.00000000000E+00 -0.25208506806E+02  0.25208506806E+02  0.00000000000E+00 0. -1.
      99926    2    1    2    0    0  0.35527136788E-14  0.00000000000E+00  0.20313987959E+04  0.20818158095E+04  0.45538554737E+03 0.  0.
      99925    2    3    3    0    0 -0.15683912645E+02 -0.11180505932E+03  0.12066770883E+04  0.12400558915E+04  0.26253125971E+03 0.  0.
         25    1    4    4    0    0  0.16400010484E+02 -0.33435918762E+02  0.45492666907E+03  0.47327867408E+03  0.12509000000E+03 0.  0.
         25    1    4    4    0    0 -0.32083923129E+02 -0.78369140562E+02  0.75175041919E+03  0.76677721743E+03  0.12509000000E+03 0.  0.
         25    1    3    3    0    0  0.15683912645E+02  0.11180505932E+03  0.82472170764E+03  0.84175991801E+03  0.12509000000E+03 0.  0.
<mgrwt>
<rscale>  2 0.45538555E+03</rscale>
<asrwt>0</asrwt>
<pdfrwt beam="1">  1       21 0.30244213E+00 0.45538555E+03</pdfrwt>
<pdfrwt beam="2">  1       21 0.37071348E-02 0.45538555E+03</pdfrwt>
<totfact> 0.12382660E+04</totfact>
</mgrwt>
</event>
<event>
 7    0  0.4748297E-002  0.4589574E+03  0.7546771E-02  0.1025084E+00
         21   -1    0    0  502  501  0.00000000000E+00  0.00000000000E+00  0.10213263372E+04  0.10213263372E+04  0.00000000000E+00 0. -1.
         21   -1    0    0  501  502 -0.00000000000E+00 -0.00000000000E+00 -0.51560869346E+02  0.51560869346E+02  0.00000000000E+00 0. -1.
      99926    2    1    2    0    0  0.14210854715E-13  0.71054273576E-14  0.96976546789E+03  0.10728872066E+04  0.45895740035E+03 0.  0.
      99925    2    3    3    0    0  0.74928889111E+02  0.49861976930E+02  0.78215019470E+03  0.83009603293E+03  0.26305881788E+03 0.  0.
         25    1    4    4    0    0  0.31977979391E+02  0.27311197880E+02  0.50820499664E+03  0.52506030073E+03  0.12509000000E+03 0.  0.
         25    1    4    4    0    0  0.42950909720E+02  0.22550779050E+02  0.27394519805E+03  0.30503573220E+03  0.12509000000E+03 0.  0.
         25    1    3    3    0    0 -0.74928889111E+02 -0.49861976930E+02  0.18761527320E+03  0.24279117365E+03  0.12509000000E+03 0.  0.
<mgrwt>
<rscale>  2 0.45895740E+03</rscale>
<asrwt>0</asrwt>
<pdfrwt beam="1">  1       21 0.15019504E+00 0.45895740E+03</pdfrwt>
<pdfrwt beam="2">  1       21 0.75824814E-02 0.45895740E+03</pdfrwt>
<totfact> 0.35344484E+04</totfact>
</mgrwt>
</event>
<event>
 7    0  0.4748297E-002  0.4560841E+03  0.7546771E-02  0.1025923E+00
         21   -1    0    0  502  501  0.00000000000E+00  0.00000000000E+00  0.56433563901E+02  0.56433563901E+02  0.00000000000E+00 0. -1.
         21   -1    0    0  501  502 -0.00000000000E+00 -0.00000000000E+00 -0.92149370486E+03  0.92149370486E+03  0.00000000000E+00 0. -1.
      99926    2    1    2    0    0  0.00000000000E+00  0.00000000000E+00 -0.86506014096E+03  0.97792726876E+03  0.45608408820E+03 0.  0.
      99925    2    3    3    0    0 -0.54858424305E+02 -0.49441439364E+02 -0.35708190103E+03  0.44958712928E+03  0.26299657817E+03 0.  0.
         25    1    4    4    0    0 -0.26003389916E+02 -0.32838909686E+02 -0.11471371074E+03  0.17481794476E+03  0.12509000000E+03 0.  0.
         25    1    3    3    0    0  0.54858424305E+02  0.49441439364E+02 -0.50797823993E+03  0.52834013948E+03  0.12509000000E+03 0.  0.
         25    1    4    4    0    0 -0.28855034389E+02 -0.16602529678E+02 -0.24236819028E+03  0.27476918452E+03  0.12509000000E+03 0.  0.
<mgrwt>
<rscale>  2 0.45608409E+03</rscale>
<asrwt>0</asrwt>
<pdfrwt beam="1">  1       21 0.82990537E-02 0.45608409E+03</pdfrwt>
<pdfrwt beam="2">  1       21 0.13551378E+00 0.45608409E+03</pdfrwt>
<totfact> 0.39692634E+04</totfact>
</mgrwt>
</event>
<event>
 7    0  0.4748297E-002  0.4515309E+03  0.7546771E-02  0.1027266E+00
         21   -1    0    0  502  501  0.00000000000E+00  0.00000000000E+00  0.45243188856E+02  0.45243188856E+02  0.00000000000E+00 0. -1.
         21   -1    0    0  501  502 -0.00000000000E+00 -0.00000000000E+00 -0.11265793650E+04  0.11265793650E+04  0.00000000000E+00 0. -1.
      99926    2    1    2    0    0  0.00000000000E+00  0.00000000000E+00 -0.10813361761E+04  0.11718225538E+04  0.45153092019E+03 0.  0.
      99925    2    3    3    0    0 -0.47723459604E+02  0.98476191047E+02 -0.71037634822E+03  0.76533295886E+03  0.26291613305E+03 0.  0.
         25    1    3    3    0    0  0.47723459604E+02 -0.98476191047E+02 -0.37095982792E+03  0.40648959498E+03  0.12509000000E+03 0.  0.
         25    1    4    4    0    0 -0.37628419388E+02  0.12280852622E+02 -0.36591602662E+03  0.38872710727E+03  0.12509000000E+03 0.  0.
         25    1    4    4    0    0 -0.10095040216E+02  0.86195338424E+02 -0.34446032160E+03  0.37660585160E+03  0.12509000000E+03 0.  0.
<mgrwt>
<rscale>  2 0.45153092E+03</rscale>
<asrwt>0</asrwt>
<pdfrwt beam="1">  1       21 0.66534100E-02 0.45153092E+03</pdfrwt>
<pdfrwt beam="2">  1       21 0.16567344E+00 0.45153092E+03</pdfrwt>
<totfact> 0.33971082E+04</totfact>
</mgrwt>
</event>
<event>
 7    0  0.4748297E-002  0.4636716E+03  0.7546771E-02  0.1023722E+00
         21   -1    0    0  502  501  0.00000000000E+00  0.00000000000E+00  0.53716084968E+02  0.53716084968E+02  0.00000000000E+00 0. -1.
         21   -1    0    0  501  502 -0.00000000000E+00 -0.00000000000E+00 -0.10005909785E+04  0.10005909785E+04  0.00000000000E+00 0. -1.
      99926    2    1    2    0    0  0.00000000000E+00  0.00000000000E+00 -0.94687489353E+03  0.10543070635E+04  0.46367156488E+03 0.  0.
      99925    2    3    3    0    0 -0.35761733936E+02  0.38864012192E+02 -0.83920566752E+03  0.88101689240E+03  0.26293592232E+03 0.  0.
         25    1    4    4    0    0 -0.91817310145E+01  0.33423799590E+02 -0.30091984994E+03  0.32772201444E+03  0.12509000000E+03 0.  0.
         25    1    4    4    0    0 -0.26580002921E+02  0.54402126018E+01 -0.53828581758E+03  0.55329487796E+03  0.12509000000E+03 0.  0.
         25    1    3    3    0    0  0.35761733936E+02 -0.38864012192E+02 -0.10766922601E+03  0.17329017106E+03  0.12509000000E+03 0.  0.
<mgrwt>
<rscale>  2 0.46367156E+03</rscale>
<asrwt>0</asrwt>
<pdfrwt beam="1">  1       21 0.78994241E-02 0.46367156E+03</pdfrwt>
<pdfrwt beam="2">  1       21 0.14714573E+00 0.46367156E+03</pdfrwt>
<totfact> 0.34710312E+04</totfact>
</mgrwt>
</event>
<event>
 7    0  0.4748297E-002  0.4552807E+03  0.7546771E-02  0.1026159E+00
         21   -1    0    0  502  501  0.00000000000E+00  0.00000000000E+00  0.36981720490E+03  0.36981720490E+03  0.00000000000E+00 0.  1.
         21   -1    0    0  501  502 -0.00000000000E+00 -0.00000000000E+00 -0.14012365822E+03  0.14012365822E+03  0.00000000000E+00 0.  1.
      99926    2    1    2    0    0  0.00000000000E+00  0.00000000000E+00  0.22969354668E+03  0.50994086312E+03  0.45528074690E+03 0.  0.
      99925    2    3    3    0    0  0.82173249818E+02 -0.27659884344E+02  0.62582219264E+02  0.28390720183E+03  0.26300048079E+03 0.  0.
         25    1    4    4    0    0  0.99915384106E+01  0.57844403296E+01  0.77948098213E+01  0.12586325020E+03  0.12509000000E+03 0.  0.
         25    1    3    3    0    0 -0.82173249818E+02  0.27659884344E+02  0.16711132741E+03  0.22603366129E+03  0.12509000000E+03 0.  0.
         25    1    4    4    0    0  0.72181711408E+02 -0.33444324673E+02  0.54787409442E+02  0.15804395163E+03  0.12509000000E+03 0.  0.
<mgrwt>
<rscale>  2 0.45528075E+03</rscale>
<asrwt>0</asrwt>
<pdfrwt beam="1">  1       21 0.54384883E-01 0.45528075E+03</pdfrwt>
<pdfrwt beam="2">  1       21 0.20606420E-01 0.45528075E+03</pdfrwt>
<totfact> 0.64434091E+04</totfact>
</mgrwt>
</event>
<event>
 7    0  0.4748297E-002  0.4547534E+03  0.7546771E-02  0.1026314E+00
         21   -1    0    0  502  501  0.00000000000E+00  0.00000000000E+00  0.17140718013E+03  0.17140718013E+03  0.00000000000E+00 0. -1.
         21   -1    0    0  501  502 -0.00000000000E+00 -0.00000000000E+00 -0.30162191675E+03  0.30162191675E+03  0.00000000000E+00 0. -1.
      99926    2    1    2    0    0  0.00000000000E+00  0.00000000000E+00 -0.13021473662E+03  0.47302909688E+03  0.45475339346E+03 0.  0.
      99925    2    3    3    0    0  0.47925105251E+02 -0.23461505088E+02 -0.18496386579E+03  0.32642680093E+03  0.26362011832E+03 0.  0.
         25    1    4    4    0    0  0.20261191499E+02 -0.25812470392E+01 -0.42464704710E+02  0.13367100644E+03  0.12509000000E+03 0.  0.
         25    1    4    4    0    0  0.27663913752E+02 -0.20880258049E+02 -0.14249916108E+03  0.19275579449E+03  0.12509000000E+03 0.  0.
         25    1    3    3    0    0 -0.47925105251E+02  0.23461505088E+02  0.54749129171E+02  0.14660229596E+03  0.12509000000E+03 0.  0.
<mgrwt>
<rscale>  2 0.45475339E+03</rscale>
<asrwt>0</asrwt>
<pdfrwt beam="1">  1       21 0.25206939E-01 0.45475339E+03</pdfrwt>
<pdfrwt beam="2">  1       21 0.44356164E-01 0.45475339E+03</pdfrwt>
<totfact> 0.67342855E+04</totfact>
</mgrwt>
</event>
<event>
 7    0  0.4748297E-002  0.4535980E+03  0.7546771E-02  0.1026654E+00
         21   -1    0    0  502  501  0.00000000000E+00  0.00000000000E+00  0.65922809072E+03  0.65922809072E+03  0.00000000000E+00 0.  1.
         21   -1    0    0  501  502 -0.00000000000E+00 -0.00000000000E+00 -0.78027284038E+02  0.78027284038E+02  0.00000000000E+00 0.  1.
      99926    2    1    2    0    0  0.35527136788E-14 -0.44408920985E-15  0.58120080668E+03  0.73725537476E+03  0.45359796067E+03 0.  0.
      99925    2    3    3    0    0 -0.28862777210E+02 -0.16891420041E+01  0.19030048840E+03  0.32581099207E+03  0.26287375974E+03 0.  0.
         25    1    4    4    0    0 -0.50306195099E+02  0.74618663699E+01  0.77055911621E+02  0.15547190849E+03  0.12509000000E+03 0.  0.
         25    1    3    3    0    0  0.28862777210E+02  0.16891420041E+01  0.39090031828E+03  0.41144438268E+03  0.12509000000E+03 0.  0.
         25    1    4    4    0    0  0.21443417889E+02 -0.91510083740E+01  0.11324457678E+03  0.17033908358E+03  0.12509000000E+03 0.  0.
<mgrwt>
<rscale>  2 0.45359796E+03</rscale>
<asrwt>0</asrwt>
<pdfrwt beam="1">  1       21 0.96945304E-01 0.45359796E+03</pdfrwt>
<pdfrwt beam="2">  1       21 0.11474601E-01 0.45359796E+03</pdfrwt>
<totfact> 0.51491726E+04</totfact>
</mgrwt>
</event>
<event>
 7    0  0.4748297E-002  0.4564369E+03  0.7546771E-02  0.1025820E+00
         21   -1    0    0  502  501  0.00000000000E+00  0.00000000000E+00  0.13775399522E+03  0.13775399522E+03  0.00000000000E+00 0.  1.
         21   -1    0    0  501  502 -0.00000000000E+00 -0.00000000000E+00 -0.37809191057E+03  0.37809191057E+03  0.00000000000E+00 0.  1.
      99926    2    1    2    0    0  0.00000000000E+00  0.00000000000E+00 -0.24033791535E+03  0.51584590579E+03  0.45643694522E+03 0.  0.
      99925    2    3    3    0    0 -0.88962952845E+02  0.34898989369E+02 -0.79751487814E+02  0.29097292999E+03  0.26300684352E+03 0.  0.
         25    1    4    4    0    0 -0.17569244871E+02  0.48155770463E+02 -0.39479803598E+02  0.14083259419E+03  0.12509000000E+03 0.  0.
         25    1    4    4    0    0 -0.71393707974E+02 -0.13256781094E+02 -0.40271684216E+02  0.15014033580E+03  0.12509000000E+03 0.  0.
         25    1    3    3    0    0  0.88962952845E+02 -0.34898989369E+02 -0.16058642754E+03  0.22487297580E+03  0.12509000000E+03 0.  0.
<mgrwt>
<rscale>  2 0.45643695E+03</rscale>
<asrwt>0</asrwt>
<pdfrwt beam="1">  1       21 0.20257940E-01 0.45643695E+03</pdfrwt>
<pdfrwt beam="2">  1       21 0.55601753E-01 0.45643695E+03</pdfrwt>
<totfact> 0.63444670E+04</totfact>
</mgrwt>
</event>
<event>
 7    0  0.4748297E-002  0.4642426E+03  0.7546771E-02  0.1023558E+00
         21   -1    0    0  502  501  0.00000000000E+00  0.00000000000E+00  0.38017934052E+03  0.38017934052E+03  0.00000000000E+00 0.  1.
         21   -1    0    0  501  502 -0.00000000000E+00 -0.00000000000E+00 -0.14172338252E+03  0.14172338252E+03  0.00000000000E+00 0.  1.
      99926    2    1    2    0    0  0.00000000000E+00  0.00000000000E+00  0.23845595800E+03  0.52190272304E+03  0.46424261804E+03 0.  0.
      99925    2    3    3    0    0 -0.41935346230E+02 -0.71310695737E+02  0.24903771994E+03  0.37155888254E+03  0.26304453739E+03 0.  0.
         25    1    4    4    0    0 -0.61716849585E+02 -0.38348859355E+02  0.13817071896E+03  0.20004564533E+03  0.12509000000E+03 0.  0.
         25    1    3    3    0    0  0.41935346230E+02  0.71310695737E+02 -0.10581761938E+02  0.15034384050E+03  0.12509000000E+03 0.  0.
         25    1    4    4    0    0  0.19781503355E+02 -0.32961836382E+02  0.11086700098E+03  0.17151323721E+03  0.12509000000E+03 0.  0.
<mgrwt>
<rscale>  2 0.46424262E+03</rscale>
<asrwt>0</asrwt>
<pdfrwt beam="1">  1       21 0.55908726E-01 0.46424262E+03</pdfrwt>
<pdfrwt beam="2">  1       21 0.20841674E-01 0.46424262E+03</pdfrwt>
<totfact> 0.59288937E+04</totfact>
</mgrwt>
</event>
<event>
 7    0  0.4748297E-002  0.4312103E+03  0.7546771E-02  0.1033478E+00
         21   -1    0    0  502  501  0.00000000000E+00  0.00000000000E+00  0.16476114966E+04  0.16476114966E+04  0.00000000000E+00 0.  1.
         21   -1    0    0  501  502 -0.00000000000E+00 -0.00000000000E+00 -0.28213923009E+02  0.28213923009E+02  0.00000000000E+00 0.  1.
      99926    2    1    2    0    0 -0.17763568394E-14  0.00000000000E+00  0.16193975736E+04  0.16758254196E+04  0.43121031487E+03 0.  0.
      99925    2    3    3    0    0 -0.22954575342E+01 -0.88444456315E+02  0.10681469240E+04  0.11036781678E+04  0.26332481054E+03 0.  0.
         25    1    4    4    0    0 -0.37241636974E+02 -0.29427938182E+02  0.57119258272E+03  0.58665272328E+03  0.12509000000E+03 0.  0.
         25    1    4    4    0    0  0.34946179439E+02 -0.59016518133E+02  0.49695434128E+03  0.51702544452E+03  0.12509000000E+03 0.  0.
         25    1    3    3    0    0  0.22954575342E+01  0.88444456315E+02  0.55125064957E+03  0.57214725179E+03  0.12509000000E+03 0.  0.
<mgrwt>
<rscale>  2 0.43121031E+03</rscale>
<asrwt>0</asrwt>
<pdfrwt beam="1">  1       21 0.24229574E+00 0.43121031E+03</pdfrwt>
<pdfrwt beam="2">  1       21 0.41491074E-02 0.43121031E+03</pdfrwt>
<totfact> 0.23885879E+04</totfact>
</mgrwt>
</event>
<event>
 7    0  0.4748297E-002  0.4617833E+03  0.7546771E-02  0.1024265E+00
         21   -1    0    0  502  501  0.00000000000E+00  0.00000000000E+00  0.29526309534E+03  0.29526309534E+03  0.00000000000E+00 0.  1.
         21   -1    0    0  501  502 -0.00000000000E+00 -0.00000000000E+00 -0.18055408491E+03  0.18055408491E+03  0.00000000000E+00 0.  1.
      99926    2    1    2    0    0  0.00000000000E+00  0.00000000000E+00  0.11470901043E+03  0.47581718025E+03  0.46178331709E+03 0.  0.
      99925    2    3    3    0    0  0.78076452242E+02  0.83255919747E+02  0.35717411155E+02  0.28896252704E+03  0.26305156910E+03 0.  0.
         25    1    3    3    0    0 -0.78076452242E+02 -0.83255919747E+02  0.78991599273E+02  0.18685465320E+03  0.12509000000E+03 0.  0.
         25    1    4    4    0    0  0.43243911144E+02  0.41783915380E+02  0.58757447465E+02  0.15071787276E+03  0.12509000000E+03 0.  0.
         25    1    4    4    0    0  0.34832541098E+02  0.41472004368E+02 -0.23040036310E+02  0.13824465429E+03  0.12509000000E+03 0.  0.
<mgrwt>
<rscale>  2 0.46178332E+03</rscale>
<asrwt>0</asrwt>
<pdfrwt beam="1">  1       21 0.43421044E-01 0.46178332E+03</pdfrwt>
<pdfrwt beam="2">  1       21 0.26552071E-01 0.46178332E+03</pdfrwt>
<totfact> 0.63517909E+04</totfact>
</mgrwt>
</event>
<event>
 7    0  0.4748297E-002  0.4507560E+03  0.7546771E-02  0.1027497E+00
         21   -1    0    0  502  501  0.00000000000E+00  0.00000000000E+00  0.35769409383E+02  0.35769409383E+02  0.00000000000E+00 0.  1.
         21   -1    0    0  501  502 -0.00000000000E+00 -0.00000000000E+00 -0.14200746994E+04  0.14200746994E+04  0.00000000000E+00 0.  1.
      99926    2    1    2    0    0 -0.71054273576E-14 -0.14210854715E-13 -0.13843052900E+04  0.14558441088E+04  0.45075595737E+03 0.  0.
      99925    2    3    3    0    0  0.45072204149E+02  0.94364229596E+02 -0.77304149689E+03  0.82320910793E+03  0.26295240644E+03 0.  0.
         25    1    3    3    0    0 -0.45072204149E+02 -0.94364229596E+02 -0.61126379311E+03  0.63263500084E+03  0.12509000000E+03 0.  0.
         25    1    4    4    0    0  0.43738796789E+02  0.11902113551E+02 -0.37472393931E+03  0.39764340991E+03  0.12509000000E+03 0.  0.
         25    1    4    4    0    0  0.13334073594E+01  0.82462116044E+02 -0.39831755758E+03  0.42556569802E+03  0.12509000000E+03 0.  0.
<mgrwt>
<rscale>  2 0.45075596E+03</rscale>
<asrwt>0</asrwt>
<pdfrwt beam="1">  1       21 0.52602063E-02 0.45075596E+03</pdfrwt>
<pdfrwt beam="2">  1       21 0.20883455E+00 0.45075596E+03</pdfrwt>
<totfact> 0.25718682E+04</totfact>
</mgrwt>
</event>
<event>
 7    0  0.4748297E-002  0.4628392E+03  0.7546771E-02  0.1023961E+00
         21   -1    0    0  502  501  0.00000000000E+00  0.00000000000E+00  0.26231626206E+03  0.26231626206E+03  0.00000000000E+00 0.  1.
         21   -1    0    0  501  502 -0.00000000000E+00 -0.00000000000E+00 -0.20416206470E+03  0.20416206470E+03  0.00000000000E+00 0.  1.
      99926    2    1    2    0    0  0.00000000000E+00  0.00000000000E+00  0.58154197363E+02  0.46647832676E+03  0.46283919310E+03 0.  0.
      99925    2    3    3    0    0  0.66113074330E+02  0.14316337316E+02 -0.64280342774E+02  0.27882540025E+03  0.26274654183E+03 0.  0.
         25    1    4    4    0    0  0.39340289035E+02 -0.14399649399E+01 -0.72186503920E+02  0.14969345773E+03  0.12509000000E+03 0.  0.
         25    1    4    4    0    0  0.26772785295E+02  0.15756302256E+02  0.79061611460E+01  0.12913194251E+03  0.12509000000E+03 0.  0.
         25    1    3    3    0    0 -0.66113074330E+02 -0.14316337316E+02  0.12243454014E+03  0.18765292652E+03  0.12509000000E+03 0.  0.
<mgrwt>
<rscale>  2 0.46283919E+03</rscale>
<asrwt>0</asrwt>
<pdfrwt beam="1">  1       21 0.38575921E-01 0.46283919E+03</pdfrwt>
<pdfrwt beam="2">  1       21 0.30023833E-01 0.46283919E+03</pdfrwt>
<totfact> 0.63638468E+04</totfact>
</mgrwt>
</event>
<event>
 7    0  0.4748297E-002  0.4506662E+03  0.7546771E-02  0.1027524E+00
         21   -1    0    0  502  501  0.00000000000E+00  0.00000000000E+00  0.61874085059E+03  0.61874085059E+03  0.00000000000E+00 0. -1.
         21   -1    0    0  501  502 -0.00000000000E+00 -0.00000000000E+00 -0.82061843316E+02  0.82061843316E+02  0.00000000000E+00 0. -1.
      99926    2    1    2    0    0 -0.17763568394E-14  0.00000000000E+00  0.53667900727E+03  0.70080269390E+03  0.45066623896E+03 0.  0.
      99925    2    3    3    0    0  0.12904831548E+02  0.10504996556E+03  0.29891432731E+03  0.41204400385E+03  0.26311301013E+03 0.  0.
         25    1    3    3    0    0 -0.12904831548E+02 -0.10504996556E+03  0.23776467996E+03  0.28875869005E+03  0.12509000000E+03 0.  0.
         25    1    4    4    0    0  0.20622446965E+02  0.88285949638E+02  0.13604079643E+03  0.20585018974E+03  0.12509000000E+03 0.  0.
         25    1    4    4    0    0 -0.77176154165E+01  0.16764015927E+02  0.16287353088E+03  0.20619381411E+03  0.12509000000E+03 0.  0.
<mgrwt>
<rscale>  2 0.45066624E+03</rscale>
<asrwt>0</asrwt>
<pdfrwt beam="1">  1       21 0.90991299E-01 0.45066624E+03</pdfrwt>
<pdfrwt beam="2">  1       21 0.12067918E-01 0.45066624E+03</pdfrwt>
<totfact> 0.54701229E+04</totfact>
</mgrwt>
</event>
<event>
 7    0  0.4748297E-002  0.4555037E+03  0.7546771E-02  0.1026093E+00
         21   -1    0    0  502  501  0.00000000000E+00  0.00000000000E+00  0.30604309413E+03  0.30604309413E+03  0.00000000000E+00 0.  1.
         21   -1    0    0  501  502 -0.00000000000E+00 -0.00000000000E+00 -0.16948885758E+03  0.16948885758E+03  0.00000000000E+00 0.  1.
      99926    2    1    2    0    0 -0.35527136788E-14  0.00000000000E+00  0.13655423655E+03  0.47553195171E+03  0.45550365265E+03 0.  0.
      99925    2    3    3    0    0  0.18248538368E+02 -0.11183983109E+03  0.94622463534E+02  0.30161548136E+03  0.26301583797E+03 0.  0.
         25    1    4    4    0    0 -0.14046969054E+02 -0.22009315028E+02  0.56445391403E+02  0.13969723547E+03  0.12509000000E+03 0.  0.
         25    1    3    3    0    0 -0.18248538368E+02  0.11183983109E+03  0.41931773017E+02  0.17391647035E+03  0.12509000000E+03 0.  0.
         25    1    4    4    0    0  0.32295507423E+02 -0.89830516064E+02  0.38177072131E+02  0.16191824589E+03  0.12509000000E+03 0.  0.
<mgrwt>
<rscale>  2 0.45550365E+03</rscale>
<asrwt>0</asrwt>
<pdfrwt beam="1">  1       21 0.45006337E-01 0.45550365E+03</pdfrwt>
<pdfrwt beam="2">  1       21 0.24924832E-01 0.45550365E+03</pdfrwt>
<totfact> 0.66759577E+04</totfact>
</mgrwt>
</event>
<event>
 7    0  0.4748297E-002  0.4550491E+03  0.7546771E-02  0.1026227E+00
         21   -1    0    0  502  501  0.00000000000E+00  0.00000000000E+00  0.22556877314E+03  0.22556877314E+03  0.00000000000E+00 0.  1.
         21   -1    0    0  501  502 -0.00000000000E+00 -0.00000000000E+00 -0.22949726699E+03  0.22949726699E+03  0.00000000000E+00 0.  1.
      99926    2    1    2    0    0  0.14210854715E-13  0.00000000000E+00 -0.39284938473E+01  0.45506604014E+03  0.45504908287E+03 0.  0.
      99925    2    3    3    0    0  0.81148605524E+02  0.72271442003E+02  0.29535781308E+02  0.28602278141E+03  0.26292282442E+03 0.  0.
         25    1    4    4    0    0  0.69207838600E+02  0.19019500196E+02 -0.81190261342E+01  0.14444685181E+03  0.12509000000E+03 0.  0.
         25    1    4    4    0    0  0.11940766924E+02  0.53251941807E+02  0.37654807442E+02  0.14157592961E+03  0.12509000000E+03 0.  0.
         25    1    3    3    0    0 -0.81148605524E+02 -0.72271442003E+02 -0.33464275155E+02  0.16904325872E+03  0.12509000000E+03 0.  0.
<mgrwt>
<rscale>  2 0.45504908E+03</rscale>
<asrwt>0</asrwt>
<pdfrwt beam="1">  1       21 0.33171879E-01 0.45504908E+03</pdfrwt>
<pdfrwt beam="2">  1       21 0.33749598E-01 0.45504908E+03</pdfrwt>
<totfact> 0.68514116E+04</totfact>
</mgrwt>
</event>
<event>
 7    0  0.4748297E-002  0.4538121E+03  0.7546771E-02  0.1026591E+00
         21   -1    0    0  502  501  0.00000000000E+00  0.00000000000E+00  0.43906196328E+03  0.43906196328E+03  0.00000000000E+00 0. -1.
         21   -1    0    0  501  502 -0.00000000000E+00 -0.00000000000E+00 -0.11726443606E+03  0.11726443606E+03  0.00000000000E+00 0. -1.
      99926    2    1    2    0    0  0.00000000000E+00 -0.71054273576E-14  0.32179752723E+03  0.55632639934E+03  0.45381209115E+03 0.  0.
      99925    2    3    3    0    0  0.29169613354E+02  0.53774967711E+02  0.87557584139E+02  0.28382232132E+03  0.26295658586E+03 0.  0.
         25    1    4    4    0    0  0.28129573560E+02  0.63385831089E+02  0.61467680200E+02  0.15567536832E+03  0.12509000000E+03 0.  0.
         25    1    3    3    0    0 -0.29169613354E+02 -0.53774967711E+02  0.23423994309E+03  0.27250407801E+03  0.12509000000E+03 0.  0.
         25    1    4    4    0    0  0.10400397940E+01 -0.96108633772E+01  0.26089903939E+02  0.12814695301E+03  0.12509000000E+03 0.  0.
<mgrwt>
<rscale>  2 0.45381209E+03</rscale>
<asrwt>0</asrwt>
<pdfrwt beam="1">  1       21 0.64567935E-01 0.45381209E+03</pdfrwt>
<pdfrwt beam="2">  1       21 0.17244770E-01 0.45381209E+03</pdfrwt>
<totfact> 0.62031245E+04</totfact>
</mgrwt>
</event>
<event>
 7    0  0.4748297E-002  0.4537954E+03  0.7546771E-02  0.1026596E+00
         21   -1    0    0  502  501  0.00000000000E+00  0.00000000000E+00  0.12188627095E+03  0.12188627095E+03  0.00000000000E+00 0. -1.
         21   -1    0    0  501  502 -0.00000000000E+00 -0.00000000000E+00 -0.42238200523E+03  0.42238200523E+03  0.00000000000E+00 0. -1.
      99926    2    1    2    0    0  0.00000000000E+00  0.00000000000E+00 -0.30049573428E+03  0.54426827618E+03  0.45379540558E+03 0.  0.
      99925    2    3    3    0    0 -0.77766032538E+02  0.69347126824E+02 -0.23872963407E+03  0.37014435751E+03  0.26297989923E+03 0.  0.
         25    1    3    3    0    0  0.77766032538E+02 -0.69347126824E+02 -0.61766100213E+02  0.17412391866E+03  0.12509000000E+03 0.  0.
         25    1    4    4    0    0 -0.74128326962E+02  0.18627253460E+02 -0.14155798393E+03  0.20378457828E+03  0.12509000000E+03 0.  0.
         25    1    4    4    0    0 -0.36377055755E+01  0.50719873364E+02 -0.97171650144E+02  0.16635977924E+03  0.12509000000E+03 0.  0.
<mgrwt>
<rscale>  2 0.45379541E+03</rscale>
<asrwt>0</asrwt>
<pdfrwt beam="1">  1       21 0.17924452E-01 0.45379541E+03</pdfrwt>
<pdfrwt beam="2">  1       21 0.62115000E-01 0.45379541E+03</pdfrwt>
<totfact> 0.62843754E+04</totfact>
</mgrwt>
</event>
<event>
 7    0  0.4748297E-002  0.4539669E+03  0.7546771E-02  0.1026546E+00
         21   -1    0    0  502  501  0.00000000000E+00  0.00000000000E+00  0.93633680045E+02  0.93633680045E+02  0.00000000000E+00 0. -1.
         21   -1    0    0  501  502 -0.00000000000E+00 -0.00000000000E+00 -0.55024518379E+03  0.55024518379E+03  0.00000000000E+00 0. -1.
      99926    2    1    2    0    0  0.17763568394E-14  0.00000000000E+00 -0.45661150374E+03  0.64387886383E+03  0.45396687758E+03 0.  0.
      99925    2    3    3    0    0 -0.13130655001E+02 -0.83662037489E+02 -0.18314328283E+03  0.33146227246E+03  0.26297152964E+03 0.  0.
         25    1    4    4    0    0  0.65253471116E+00 -0.13017604283E+02 -0.12035186142E+03  0.17407458881E+03  0.12509000000E+03 0.  0.
         25    1    4    4    0    0 -0.13783189713E+02 -0.70644433206E+02 -0.62791421418E+02  0.15738768365E+03  0.12509000000E+03 0.  0.
         25    1    3    3    0    0  0.13130655001E+02  0.83662037489E+02 -0.27346822091E+03  0.31241659137E+03  0.12509000000E+03 0.  0.
<mgrwt>
<rscale>  2 0.45396688E+03</rscale>
<asrwt>0</asrwt>
<pdfrwt beam="1">  1       21 0.13769659E-01 0.45396688E+03</pdfrwt>
<pdfrwt beam="2">  1       21 0.80918407E-01 0.45396688E+03</pdfrwt>
<totfact> 0.56514803E+04</totfact>
</mgrwt>
</event>
<event>
 7    0  0.4748297E-002  0.4566642E+03  0.7546771E-02  0.1025753E+00
         21   -1    0    0  502  501  0.00000000000E+00  0.00000000000E+00  0.71636227949E+02  0.71636227949E+02  0.00000000000E+00 0. -1.
         21   -1    0    0  501  502 -0.00000000000E+00 -0.00000000000E+00 -0.72778178977E+03  0.72778178977E+03  0.00000000000E+00 0. -1.
      99926    2    1    2    0    0  0.17763568394E-14 -0.24980018054E-14 -0.65614556182E+03  0.79941801772E+03  0.45666417503E+03 0.  0.
      99925    2    3    3    0    0 -0.99636502868E+01  0.32182476652E+00 -0.21214788451E+03  0.33802791872E+03  0.26297674999E+03 0.  0.
         25    1    4    4    0    0 -0.29694513363E+02  0.19451324898E+02 -0.73854431375E+02  0.14953963788E+03  0.12509000000E+03 0.  0.
         25    1    3    3    0    0  0.99636502868E+01 -0.32182476652E+00 -0.44399767731E+03  0.46139009900E+03  0.12509000000E+03 0.  0.
         25    1    4    4    0    0  0.19730863077E+02 -0.19129500132E+02 -0.13829345314E+03  0.18848828084E+03  0.12509000000E+03 0.  0.
<mgrwt>
<rscale>  2 0.45666418E+03</rscale>
<asrwt>0</asrwt>
<pdfrwt beam="1">  1       21 0.10534740E-01 0.45666418E+03</pdfrwt>
<pdfrwt beam="2">  1       21 0.10702673E+00 0.45666418E+03</pdfrwt>
<totfact> 0.47173849E+04</totfact>
</mgrwt>
</event>
<event>
 7    0  0.4748297E-002  0.3888227E+03  0.7546771E-02  0.1047720E+00
         21   -1    0    0  502  501  0.00000000000E+00  0.00000000000E+00  0.13877658146E+04  0.13877658146E+04  0.00000000000E+00 0. -1.
         21   -1    0    0  501  502 -0.00000000000E+00 -0.00000000000E+00 -0.27234977907E+02  0.27234977907E+02  0.00000000000E+00 0. -1.
      99926    2    1    2    0    0  0.00000000000E+00  0.00000000000E+00  0.13605308367E+04  0.14150007925E+04  0.38882269122E+03 0.  0.
      99925    2    3    3    0    0  0.44379178110E+01  0.97076906805E+01  0.93186388698E+03  0.96832776193E+03  0.26301029692E+03 0.  0.
         25    1    4    4    0    0  0.37428882895E+02 -0.15172454667E+02  0.45692951476E+03  0.47546105436E+03  0.12509000000E+03 0.  0.
         25    1    3    3    0    0 -0.44379178110E+01 -0.97076906805E+01  0.42866694971E+03  0.44667303058E+03  0.12509000000E+03 0.  0.
         25    1    4    4    0    0 -0.32990965084E+02  0.24880145348E+02  0.47493437222E+03  0.49286670757E+03  0.12509000000E+03 0.  0.
<mgrwt>
<rscale>  2 0.38882269E+03</rscale>
<asrwt>0</asrwt>
<pdfrwt beam="1">  1       21 0.20408316E+00 0.38882269E+03</pdfrwt>
<pdfrwt beam="2">  1       21 0.40051447E-02 0.38882269E+03</pdfrwt>
<totfact> 0.45012439E+04</totfact>
</mgrwt>
</event>
<event>
 7    0  0.4748297E-002  0.4614028E+03  0.7546771E-02  0.1024375E+00
         21   -1    0    0  502  501  0.00000000000E+00  0.00000000000E+00  0.22040124390E+03  0.22040124390E+03  0.00000000000E+00 0. -1.
         21   -1    0    0  501  502 -0.00000000000E+00 -0.00000000000E+00 -0.24148293193E+03  0.24148293193E+03  0.00000000000E+00 0. -1.
      99926    2    1    2    0    0 -0.14210854715E-13  0.00000000000E+00 -0.21081688030E+02  0.46188417583E+03  0.46140281134E+03 0.  0.
      99925    2    3    3    0    0  0.10572099357E+03 -0.53740943163E+02 -0.18543830852E+02  0.28949227848E+03  0.26343289124E+03 0.  0.
         25    1    4    4    0    0  0.95303365018E+02 -0.32959340798E+02  0.15549505904E+01  0.16068284134E+03  0.12509000000E+03 0.  0.
         25    1    3    3    0    0 -0.10572099357E+03  0.53740943163E+02 -0.25378571783E+01  0.17239189735E+03  0.12509000000E+03 0.  0.
         25    1    4    4    0    0  0.10417628549E+02 -0.20781602365E+02 -0.20098781443E+02  0.12880943714E+03  0.12509000000E+03 0.  0.
<mgrwt>
<rscale>  2 0.46140281E+03</rscale>
<asrwt>0</asrwt>
<pdfrwt beam="1">  1       21 0.32411948E-01 0.46140281E+03</pdfrwt>
<pdfrwt beam="2">  1       21 0.35512196E-01 0.46140281E+03</pdfrwt>
<totfact> 0.64676561E+04</totfact>
</mgrwt>
</event>
<event>
 7    0  0.4748297E-002  0.4427362E+03  0.7546771E-02  0.1029911E+00
         21   -1    0    0  502  501  0.00000000000E+00  0.00000000000E+00  0.33698049043E+03  0.33698049043E+03  0.00000000000E+00 0.  1.
         21   -1    0    0  501  502 -0.00000000000E+00 -0.00000000000E+00 -0.14542041310E+03  0.14542041310E+03  0.00000000000E+00 0.  1.
      99926    2    1    2    0    0  0.00000000000E+00  0.00000000000E+00  0.19156007733E+03  0.48240090353E+03  0.44273622903E+03 0.  0.
      99925    2    3    3    0    0 -0.93603020242E+02 -0.20896128318E+02  0.86368075442E+02  0.29289882191E+03  0.26292984205E+03 0.  0.
         25    1    3    3    0    0  0.93603020242E+02  0.20896128318E+02  0.10519200189E+03  0.18950208162E+03  0.12509000000E+03 0.  0.
         25    1    4    4    0    0 -0.73950912754E+02 -0.35003904389E+02  0.67859520505E+02  0.16415368848E+03  0.12509000000E+03 0.  0.
         25    1    4    4    0    0 -0.19652107488E+02  0.14107776070E+02  0.18508554938E+02  0.12874513342E+03  0.12509000000E+03 0.  0.
<mgrwt>
<rscale>  2 0.44273623E+03</rscale>
<asrwt>0</asrwt>
<pdfrwt beam="1">  1       21 0.49555955E-01 0.44273623E+03</pdfrwt>
<pdfrwt beam="2">  1       21 0.21385355E-01 0.44273623E+03</pdfrwt>
<totfact> 0.73417284E+04</totfact>
</mgrwt>
</event>
<event>
 7    0  0.4748297E-002  0.4599505E+03  0.7546771E-02  0.1024796E+00
         21   -1    0    0  502  501  0.00000000000E+00  0.00000000000E+00  0.27795410069E+02  0.27795410069E+02  0.00000000000E+00 0.  1.
         21   -1    0    0  501  502 -0.00000000000E+00 -0.00000000000E+00 -0.19027823954E+04  0.19027823954E+04  0.00000000000E+00 0.  1.
      99926    2    1    2    0    0  0.00000000000E+00  0.00000000000E+00 -0.18749869854E+04  0.19305778055E+04  0.45995050583E+03 0.  0.
      99925    2    3    3    0    0 -0.89008544389E+02  0.35032636065E+02 -0.14630985020E+04  0.14896135923E+04  0.26294794354E+03 0.  0.
         25    1    4    4    0    0 -0.12013056506E+02  0.24688174942E+02 -0.81474373588E+03  0.82474764793E+03  0.12509000000E+03 0.  0.
         25    1    4    4    0    0 -0.76995487883E+02  0.10344461123E+02 -0.64835476616E+03  0.66486594433E+03  0.12509000000E+03 0.  0.
         25    1    3    3    0    0  0.89008544389E+02 -0.35032636065E+02 -0.41188848332E+03  0.44096421324E+03  0.12509000000E+03 0.  0.
<mgrwt>
<rscale>  2 0.45995051E+03</rscale>
<asrwt>0</asrwt>
<pdfrwt beam="1">  1       21 0.40875587E-02 0.45995051E+03</pdfrwt>
<pdfrwt beam="2">  1       21 0.27982105E+00 0.45995051E+03</pdfrwt>
<totfact> 0.14318444E+04</totfact>
</mgrwt>
</event>
<event>
 7    0  0.4748297E-002  0.4512028E+03  0.7546771E-02  0.1027364E+00
         21   -1    0    0  502  501  0.00000000000E+00  0.00000000000E+00  0.17032789936E+03  0.17032789936E+03  0.00000000000E+00 0.  1.
         21   -1    0    0  501  502 -0.00000000000E+00 -0.00000000000E+00 -0.29881183951E+03  0.29881183951E+03  0.00000000000E+00 0.  1.
      99926    2    1    2    0    0  0.00000000000E+00  0.00000000000E+00 -0.12848394015E+03  0.46913973887E+03  0.45120280552E+03 0.  0.
      99925    2    3    3    0    0  0.36572579558E+02  0.19628209831E+02  0.24303490787E+02  0.26736182296E+03  0.26299974243E+03 0.  0.
         25    1    4    4    0    0 -0.11831051992E+02  0.29444094740E+02 -0.71344661078E+01  0.12924912848E+03  0.12509000000E+03 0.  0.
         25    1    3    3    0    0 -0.36572579558E+02 -0.19628209831E+02 -0.15278743093E+03  0.20177791591E+03  0.12509000000E+03 0.  0.
         25    1    4    4    0    0  0.48403631550E+02 -0.98158849085E+01  0.31437956895E+02  0.13811269448E+03  0.12509000000E+03 0.  0.
<mgrwt>
<rscale>  2 0.45120281E+03</rscale>
<asrwt>0</asrwt>
<pdfrwt beam="1">  1       21 0.25048221E-01 0.45120281E+03</pdfrwt>
<pdfrwt beam="2">  1       21 0.43942917E-01 0.45120281E+03</pdfrwt>
<totfact> 0.69572176E+04</totfact>
</mgrwt>
</event>
<event>
 7    0  0.4748297E-002  0.4523336E+03  0.7546771E-02  0.1027028E+00
         21   -1    0    0  502  501  0.00000000000E+00  0.00000000000E+00  0.26466728665E+03  0.26466728665E+03  0.00000000000E+00 0. -1.
         21   -1    0    0  501  502 -0.00000000000E+00 -0.00000000000E+00 -0.19326691020E+03  0.19326691020E+03  0.00000000000E+00 0. -1.
      99926    2    1    2    0    0 -0.71054273576E-14  0.00000000000E+00  0.71400376458E+02  0.45793419685E+03  0.45233363227E+03 0.  0.
      99925    2    3    3    0    0 -0.46208196982E+02  0.65833575477E+02  0.12197034740E+03  0.30085432166E+03  0.26299676821E+03 0.  0.
         25    1    3    3    0    0  0.46208196982E+02 -0.65833575477E+02 -0.50569970944E+02  0.15707987519E+03  0.12509000000E+03 0.  0.
         25    1    4    4    0    0 -0.36804022970E+02  0.30801751446E+02  0.10351437634E+03  0.16931041967E+03  0.12509000000E+03 0.  0.
         25    1    4    4    0    0 -0.94041740117E+01  0.35031824031E+02  0.18455971064E+02  0.13154390199E+03  0.12509000000E+03 0.  0.
<mgrwt>
<rscale>  2 0.45233363E+03</rscale>
<asrwt>0</asrwt>
<pdfrwt beam="1">  1       21 0.38921660E-01 0.45233363E+03</pdfrwt>
<pdfrwt beam="2">  1       21 0.28421604E-01 0.45233363E+03</pdfrwt>
<totfact> 0.69803836E+04</totfact>
</mgrwt>
</event>
<event>
 7    0  0.4748297E-002  0.4541919E+03  0.7546771E-02  0.1026479E+00
         21   -1    0    0  502  501  0.00000000000E+00  0.00000000000E+00  0.34092698287E+02  0.34092698287E+02  0.00000000000E+00 0. -1.
         21   -1    0    0  501  502 -0.00000000000E+00 -0.00000000000E+00 -0.15127160778E+04  0.15127160778E+04  0.00000000000E+00 0. -1.
      99926    2    1    2    0    0  0.35527136788E-14  0.71054273576E-14 -0.14786233795E+04  0.15468087760E+04  0.45419191024E+03 0.  0.
      99925    2    3    3    0    0 -0.28729537060E+02  0.56259060237E+02 -0.61450136155E+03  0.67139753662E+03  0.26300619892E+03 0.  0.
         25    1    3    3    0    0  0.28729537060E+02 -0.56259060237E+02 -0.86412201792E+03  0.87541123943E+03  0.12509000000E+03 0.  0.
         25    1    4    4    0    0 -0.18280955793E+02  0.67832064276E+02 -0.29874599328E+03  0.33140920157E+03  0.12509000000E+03 0.  0.
         25    1    4    4    0    0 -0.10448581267E+02 -0.11573004040E+02 -0.31575536828E+03  0.33998833505E+03  0.12509000000E+03 0.  0.
<mgrwt>
<rscale>  2 0.45419191E+03</rscale>
<asrwt>0</asrwt>
<pdfrwt beam="1">  1       21 0.50136339E-02 0.45419191E+03</pdfrwt>
<pdfrwt beam="2">  1       21 0.22245817E+00 0.45419191E+03</pdfrwt>
<totfact> 0.22797656E+04</totfact>
</mgrwt>
</event>
<event>
 6    0  0.4748297E-002  0.4567611E+03  0.7546771E-02  0.1025725E+00
         21   -1    0    0  502  501  0.00000000000E+00  0.00000000000E+00  0.31798256015E+03  0.31798256015E+03  0.00000000000E+00 0.  1.
         21   -1    0    0  501  502 -0.00000000000E+00 -0.00000000000E+00 -0.16402686289E+03  0.16402686289E+03  0.00000000000E+00 0.  1.
      99926    2    1    2    0    0 -0.14210854715E-13  0.35527136788E-14  0.15395569726E+03  0.48200942305E+03  0.45676112705E+03 0.  0.
         25    1    3    3    0    0  0.75774781994E+02 -0.45859436875E+00  0.34101954563E+01  0.14629137168E+03  0.12509000000E+03 0.  0.
         25    1    3    3    0    0  0.34503284197E+02 -0.20355361966E+02  0.54963298193E+02  0.14238430261E+03  0.12509000000E+03 0.  0.
         25    1    3    3    0    0 -0.11027806619E+03  0.20813956335E+02  0.95582203609E+02  0.19333374876E+03  0.12509000000E+03 0.  0.
<mgrwt>
<rscale>  2 0.45676113E+03</rscale>
<asrwt>0</asrwt>
<pdfrwt beam="1">  1       21 0.46762141E-01 0.45676113E+03</pdfrwt>
<pdfrwt beam="2">  1       21 0.24121597E-01 0.45676113E+03</pdfrwt>
<totfact> 0.65631823E+04</totfact>
</mgrwt>
</event>
<event>
 7    0  0.4748297E-002  0.4533397E+03  0.7546771E-02  0.1026731E+00
         21   -1    0    0  502  501  0.00000000000E+00  0.00000000000E+00  0.10707014671E+03  0.10707014671E+03  0.00000000000E+00 0.  1.
         21   -1    0    0  501  502 -0.00000000000E+00 -0.00000000000E+00 -0.47986511064E+03  0.47986511064E+03  0.00000000000E+00 0.  1.
      99926    2    1    2    0    0  0.14210854715E-13  0.00000000000E+00 -0.37279496393E+03  0.58693525735E+03  0.45333973043E+03 0.  0.
      99925    2    3    3    0    0  0.80270326829E+02 -0.47980561493E+02 -0.15642317162E+03  0.32008376259E+03  0.26313484528E+03 0.  0.
         25    1    4    4    0    0  0.77366239012E+02 -0.25450116464E+02 -0.61590863490E+02  0.16147503192E+03  0.12509000000E+03 0.  0.
         25    1    4    4    0    0  0.29040878164E+01 -0.22530445029E+02 -0.94832308130E+02  0.15860873067E+03  0.12509000000E+03 0.  0.
         25    1    3    3    0    0 -0.80270326829E+02  0.47980561493E+02 -0.21637179231E+03  0.26685149476E+03  0.12509000000E+03 0.  0.
<mgrwt>
<rscale>  2 0.45333973E+03</rscale>
<asrwt>0</asrwt>
<pdfrwt beam="1">  1       21 0.15745610E-01 0.45333973E+03</pdfrwt>
<pdfrwt beam="2">  1       21 0.70568398E-01 0.45333973E+03</pdfrwt>
<totfact> 0.60276856E+04</totfact>
</mgrwt>
</event>
<event>
 7    0  0.4748297E-002  0.4517003E+03  0.7546771E-02  0.1027216E+00
         21   -1    0    0  502  501  0.00000000000E+00  0.00000000000E+00  0.48693783366E+03  0.48693783366E+03  0.00000000000E+00 0.  1.
         21   -1    0    0  501  502 -0.00000000000E+00 -0.00000000000E+00 -0.10475316644E+03  0.10475316644E+03  0.00000000000E+00 0.  1.
      99926    2    1    2    0    0  0.00000000000E+00  0.00000000000E+00  0.38218466722E+03  0.59169100011E+03  0.45170025432E+03 0.  0.
      99925    2    3    3    0    0  0.10305243092E+03  0.33372338735E+02  0.22123012363E+03  0.36085038472E+03  0.26369815327E+03 0.  0.
         25    1    4    4    0    0  0.85692615514E+02  0.40818700668E+01  0.14816026014E+03  0.21203503673E+03  0.12509000000E+03 0.  0.
         25    1    4    4    0    0  0.17359815408E+02  0.29290468668E+02  0.73069863494E+02  0.14881534799E+03  0.12509000000E+03 0.  0.
         25    1    3    3    0    0 -0.10305243092E+03 -0.33372338735E+02  0.16095454359E+03  0.23084061539E+03  0.12509000000E+03 0.  0.
<mgrwt>
<rscale>  2 0.45170025E+03</rscale>
<asrwt>0</asrwt>
<pdfrwt beam="1">  1       21 0.71608504E-01 0.45170025E+03</pdfrwt>
<pdfrwt beam="2">  1       21 0.15404878E-01 0.45170025E+03</pdfrwt>
<totfact> 0.60761753E+04</totfact>
</mgrwt>
</event>
<event>
 7    0  0.4748297E-002  0.4237057E+03  0.7546771E-02  0.1035867E+00
         21   -1    0    0  502  501  0.00000000000E+00  0.00000000000E+00  0.65200308975E+02  0.65200308975E+02  0.00000000000E+00 0. -1.
         21   -1    0    0  501  502 -0.00000000000E+00 -0.00000000000E+00 -0.68836525178E+03  0.68836525178E+03  0.00000000000E+00 0. -1.
      99926    2    1    2    0    0 -0.88817841970E-15  0.00000000000E+00 -0.62316494280E+03  0.75356556075E+03  0.42370568608E+03 0.  0.
      99925    2    3    3    0    0 -0.17918468486E+01  0.75767279029E+02 -0.35686194507E+03  0.44974211533E+03  0.26300880437E+03 0.  0.
         25    1    3    3    0    0  0.17918468486E+01 -0.75767279029E+02 -0.26630299774E+03  0.30382344543E+03  0.12509000000E+03 0.  0.
         25    1    4    4    0    0 -0.37875226351E+02  0.35782480538E+02 -0.20519342393E+03  0.24589991461E+03  0.12509000000E+03 0.  0.
         25    1    4    4    0    0  0.36083379503E+02  0.39984798491E+02 -0.15166852114E+03  0.20384220071E+03  0.12509000000E+03 0.  0.
<mgrwt>
<rscale>  2 0.42370569E+03</rscale>
<asrwt>0</asrwt>
<pdfrwt beam="1">  1       21 0.95882810E-02 0.42370569E+03</pdfrwt>
<pdfrwt beam="2">  1       21 0.10123018E+00 0.42370569E+03</pdfrwt>
<totfact> 0.64552883E+04</totfact>
</mgrwt>
</event>
<event>
 7    0  0.4748297E-002  0.4038773E+03  0.7546771E-02  0.1042445E+00
         21   -1    0    0  502  501  0.00000000000E+00  0.00000000000E+00  0.20111844019E+03  0.20111844019E+03  0.00000000000E+00 0.  1.
         21   -1    0    0  501  502 -0.00000000000E+00 -0.00000000000E+00 -0.20276215561E+03  0.20276215561E+03  0.00000000000E+00 0.  1.
      99926    2    1    2    0    0  0.00000000000E+00  0.19984014443E-14 -0.16437154218E+01  0.40388059580E+03  0.40387725098E+03 0.  0.
      99925    2    3    3    0    0  0.41720584007E+02  0.15393292594E+01  0.31088984782E+02  0.26800596819E+03  0.26290244835E+03 0.  0.
         25    1    4    4    0    0  0.36432216140E+02 -0.36505263482E+02  0.13561692466E+02  0.13598297039E+03  0.12509000000E+03 0.  0.
         25    1    4    4    0    0  0.52883678667E+01  0.38044592741E+02  0.17527292316E+02  0.13202299780E+03  0.12509000000E+03 0.  0.
         25    1    3    3    0    0 -0.41720584007E+02 -0.15393292594E+01 -0.32732700204E+02  0.13587462761E+03  0.12509000000E+03 0.  0.
<mgrwt>
<rscale>  2 0.40387725E+03</rscale>
<asrwt>0</asrwt>
<pdfrwt beam="1">  1       21 0.29576241E-01 0.40387725E+03</pdfrwt>
<pdfrwt beam="2">  1       21 0.29817964E-01 0.40387725E+03</pdfrwt>
<totfact> 0.11144857E+05</totfact>
</mgrwt>
</event>
<event>
 7    0  0.4748297E-002  0.4560664E+03  0.7546771E-02  0.1025928E+00
         21   -1    0    0  502  501  0.00000000000E+00  0.00000000000E+00  0.41787564258E+03  0.41787564258E+03  0.00000000000E+00 0. -1.
         21   -1    0    0  501  502 -0.00000000000E+00 -0.00000000000E+00 -0.12443688778E+03  0.12443688778E+03  0.00000000000E+00 0. -1.
      99926    2    1    2    0    0  0.00000000000E+00  0.17763568394E-14  0.29343875480E+03  0.54231253036E+03  0.45606641815E+03 0.  0.
      99925    2    3    3    0    0 -0.11284971015E+03 -0.15557299483E+02  0.18303714392E+03  0.34028998104E+03  0.26328233608E+03 0.  0.
         25    1    4    4    0    0 -0.61808837584E+02 -0.27414872653E+02  0.51152357044E+02  0.15111578136E+03  0.12509000000E+03 0.  0.
         25    1    4    4    0    0 -0.51040872568E+02  0.11857573170E+02  0.13188478688E+03  0.18917419968E+03  0.12509000000E+03 0.  0.
         25    1    3    3    0    0  0.11284971015E+03  0.15557299483E+02  0.11040161087E+03  0.20202254931E+03  0.12509000000E+03 0.  0.
<mgrwt>
<rscale>  2 0.45606642E+03</rscale>
<asrwt>0</asrwt>
<pdfrwt beam="1">  1       21 0.61452300E-01 0.45606642E+03</pdfrwt>
<pdfrwt beam="2">  1       21 0.18299542E-01 0.45606642E+03</pdfrwt>
<totfact> 0.61853740E+04</totfact>
</mgrwt>
</event>
<event>
 7    0  0.4748297E-002  0.4654340E+03  0.7546771E-02  0.1023217E+00
         21   -1    0    0  502  501  0.00000000000E+00  0.00000000000E+00  0.75073570434E+03  0.75073570434E+03  0.00000000000E+00 0.  1.
         21   -1    0    0  501  502 -0.00000000000E+00 -0.00000000000E+00 -0.72138838922E+02  0.72138838922E+02  0.00000000000E+00 0.  1.
      99926    2    1    2    0    0  0.00000000000E+00  0.00000000000E+00  0.67859686542E+03  0.82287454327E+03  0.46543399983E+03 0.  0.
      99925    2    3    3    0    0  0.36212396049E+02  0.11493304290E+03  0.46383853540E+03  0.54666884023E+03  0.26302032616E+03 0.  0.
         25    1    4    4    0    0 -0.15152459480E+02  0.71601885775E+02  0.19922355516E+03  0.24636144200E+03  0.12509000000E+03 0.  0.
         25    1    3    3    0    0 -0.36212396049E+02 -0.11493304290E+03  0.21475833002E+03  0.27620570304E+03  0.12509000000E+03 0.  0.
         25    1    4    4    0    0  0.51364855529E+02  0.43331157123E+02  0.26461498024E+03  0.30030739822E+03  0.12509000000E+03 0.  0.
<mgrwt>
<rscale>  2 0.46543400E+03</rscale>
<asrwt>0</asrwt>
<pdfrwt beam="1">  1       21 0.11040230E+00 0.46543400E+03</pdfrwt>
<pdfrwt beam="2">  1       21 0.10608653E-01 0.46543400E+03</pdfrwt>
<totfact> 0.43044436E+04</totfact>
</mgrwt>
</event>
<event>
 7    0  0.4748297E-002  0.4543500E+03  0.7546771E-02  0.1026433E+00
         21   -1    0    0  502  501  0.00000000000E+00  0.00000000000E+00  0.38490862779E+02  0.38490862779E+02  0.00000000000E+00 0.  1.
         21   -1    0    0  501  502 -0.00000000000E+00 -0.00000000000E+00 -0.13407982032E+04  0.13407982032E+04  0.00000000000E+00 0.  1.
      99926    2    1    2    0    0 -0.14210854715E-13  0.00000000000E+00 -0.13023073405E+04  0.13792890660E+04  0.45434999573E+03 0.  0.
      99925    2    3    3    0    0  0.92501213035E+02 -0.33820131229E+02 -0.65369739535E+03  0.71142482481E+03  0.26287776813E+03 0.  0.
         25    1    4    4    0    0  0.53998285472E+02 -0.10241889668E+02 -0.23188389455E+03  0.26914375302E+03  0.12509000000E+03 0.  0.
         25    1    3    3    0    0 -0.92501213035E+02  0.33820131229E+02 -0.64860994511E+03  0.66786424121E+03  0.12509000000E+03 0.  0.
         25    1    4    4    0    0  0.38502927563E+02 -0.23578241561E+02 -0.42181350080E+03  0.44228107179E+03  0.12509000000E+03 0.  0.
<mgrwt>
<rscale>  2 0.45435000E+03</rscale>
<asrwt>0</asrwt>
<pdfrwt beam="1">  1       21 0.56604207E-02 0.45435000E+03</pdfrwt>
<pdfrwt beam="2">  1       21 0.19717622E+00 0.45435000E+03</pdfrwt>
<totfact> 0.27025450E+04</totfact>
</mgrwt>
</event>
<event>
 6    0  0.4748297E-002  0.4547799E+03  0.7546771E-02  0.1026306E+00
         21   -1    0    0  502  501  0.00000000000E+00  0.00000000000E+00  0.80173311282E+03  0.80173311282E+03  0.00000000000E+00 0. -1.
         21   -1    0    0  501  502 -0.00000000000E+00 -0.00000000000E+00 -0.64493013991E+02  0.64493013991E+02  0.00000000000E+00 0. -1.
      99926    2    1    2    0    0  0.00000000000E+00  0.00000000000E+00  0.73724009882E+03  0.86622612681E+03  0.45477988022E+03 0.  0.
         25    1    3    3    0    0 -0.57111832589E+00  0.54132320354E+02  0.35370488717E+03  0.37905842503E+03  0.12509000000E+03 0.  0.
         25    1    3    3    0    0 -0.58906426056E+02 -0.64661406237E+02  0.14167813829E+03  0.20825769483E+03  0.12509000000E+03 0.  0.
         25    1    3    3    0    0  0.59477544382E+02  0.10529085883E+02  0.24185707336E+03  0.27891000694E+03  0.12509000000E+03 0.  0.
<mgrwt>
<rscale>  2 0.45477988E+03</rscale>
<asrwt>0</asrwt>
<pdfrwt beam="1">  1       21 0.11790192E+00 0.45477988E+03</pdfrwt>
<pdfrwt beam="2">  1       21 0.94842673E-02 0.45477988E+03</pdfrwt>
<totfact> 0.44799211E+04</totfact>
</mgrwt>
</event>
<event>
 7    0  0.4748297E-002  0.4424483E+03  0.7546771E-02  0.1029998E+00
         21   -1    0    0  502  501  0.00000000000E+00  0.00000000000E+00  0.22127230452E+03  0.22127230452E+03  0.00000000000E+00 0.  1.
         21   -1    0    0  501  502 -0.00000000000E+00 -0.00000000000E+00 -0.22117604098E+03  0.22117604098E+03  0.00000000000E+00 0.  1.
      99926    2    1    2    0    0  0.14210854715E-13  0.00000000000E+00  0.96263538230E-01  0.44244834551E+03  0.44244833504E+03 0.  0.
      99925    2    3    3    0    0 -0.80537168503E+02 -0.32143539141E+02 -0.51458924443E+02  0.28174710679E+03  0.26308547785E+03 0.  0.
         25    1    4    4    0    0 -0.81939346208E+02 -0.18783050830E+02 -0.19732783676E+02  0.15199917864E+03  0.12509000000E+03 0.  0.
         25    1    4    4    0    0  0.14021777047E+01 -0.13360488311E+02 -0.31726140767E+02  0.12974792815E+03  0.12509000000E+03 0.  0.
         25    1    3    3    0    0  0.80537168503E+02  0.32143539141E+02  0.51555187981E+02  0.16070123872E+03  0.12509000000E+03 0.  0.
<mgrwt>
<rscale>  2 0.44244834E+03</rscale>
<asrwt>0</asrwt>
<pdfrwt beam="1">  1       21 0.32540045E-01 0.44244834E+03</pdfrwt>
<pdfrwt beam="2">  1       21 0.32525888E-01 0.44244834E+03</pdfrwt>
<totfact> 0.76892225E+04</totfact>
</mgrwt>
</event>
<event>
 7    0  0.4748297E-002  0.4590907E+03  0.7546771E-02  0.1025045E+00
         21   -1    0    0  502  501  0.00000000000E+00  0.00000000000E+00  0.12628029332E+03  0.12628029332E+03  0.00000000000E+00 0.  1.
         21   -1    0    0  501  502 -0.00000000000E+00 -0.00000000000E+00 -0.41725481603E+03  0.41725481603E+03  0.00000000000E+00 0.  1.
      99926    2    1    2    0    0  0.00000000000E+00  0.35527136788E-14 -0.29097452271E+03  0.54353510935E+03  0.45909066886E+03 0.  0.
      99925    2    3    3    0    0  0.88494121843E+02 -0.18815162644E+02 -0.94236647226E+02  0.29345808183E+03  0.26277724438E+03 0.  0.
         25    1    4    4    0    0  0.24209452731E+02 -0.29589514807E+02 -0.14964512313E+02  0.13165516214E+03  0.12509000000E+03 0.  0.
         25    1    4    4    0    0  0.64284669111E+02  0.10774352163E+02 -0.79272134912E+02  0.16180291969E+03  0.12509000000E+03 0.  0.
         25    1    3    3    0    0 -0.88494121843E+02  0.18815162644E+02 -0.19673787548E+03  0.25007702752E+03  0.12509000000E+03 0.  0.
<mgrwt>
<rscale>  2 0.45909067E+03</rscale>
<asrwt>0</asrwt>
<pdfrwt beam="1">  1       21 0.18570631E-01 0.45909067E+03</pdfrwt>
<pdfrwt beam="2">  1       21 0.61361003E-01 0.45909067E+03</pdfrwt>
<totfact> 0.60319330E+04</totfact>
</mgrwt>
</event>
<event>
 7    0  0.4748297E-002  0.4536898E+03  0.7546771E-02  0.1026627E+00
         21   -1    0    0  502  501  0.00000000000E+00  0.00000000000E+00  0.82435593417E+03  0.82435593417E+03  0.00000000000E+00 0. -1.
         21   -1    0    0  501  502 -0.00000000000E+00 -0.00000000000E+00 -0.62422790847E+02  0.62422790847E+02  0.00000000000E+00 0. -1.
      99926    2    1    2    0    0  0.00000000000E+00  0.00000000000E+00  0.76193314332E+03  0.88677872502E+03  0.45368975330E+03 0.  0.
      99925    2    3    3    0    0 -0.32851549049E+02 -0.73192419431E+02  0.63247051478E+03  0.68968880943E+03  0.26308809788E+03 0.  0.
         25    1    4    4    0    0  0.75153781082E+01 -0.15752165063E+02  0.36415810137E+03  0.38543902567E+03  0.12509000000E+03 0.  0.
         25    1    4    4    0    0 -0.40366927157E+02 -0.57440254367E+02  0.26831241341E+03  0.30424978376E+03  0.12509000000E+03 0.  0.
         25    1    3    3    0    0  0.32851549049E+02  0.73192419431E+02  0.12946262854E+03  0.19708991558E+03  0.12509000000E+03 0.  0.
<mgrwt>
<rscale>  2 0.45368975E+03</rscale>
<asrwt>0</asrwt>
<pdfrwt beam="1">  1       21 0.12122881E+00 0.45368975E+03</pdfrwt>
<pdfrwt beam="2">  1       21 0.91798226E-02 0.45368975E+03</pdfrwt>
<totfact> 0.44262695E+04</totfact>
</mgrwt>
</event>
<event>
 7    0  0.4748297E-002  0.4427550E+03  0.7546771E-02  0.1029905E+00
         21   -1    0    0  502  501  0.00000000000E+00  0.00000000000E+00  0.36041420807E+02  0.36041420807E+02  0.00000000000E+00 0. -1.
         21   -1    0    0  501  502 -0.00000000000E+00 -0.00000000000E+00 -0.13597689194E+04  0.13597689194E+04  0.00000000000E+00 0. -1.
      99926    2    1    2    0    0  0.00000000000E+00  0.00000000000E+00 -0.13237274986E+04  0.13958103402E+04  0.44275502853E+03 0.  0.
      99925    2    3    3    0    0  0.70034543049E+02  0.38597561920E+02 -0.10383353261E+04  0.10741104658E+04  0.26301793511E+03 0.  0.
         25    1    3    3    0    0 -0.70034543049E+02 -0.38597561920E+02 -0.28539217246E+03  0.32169987443E+03  0.12509000000E+03 0.  0.
         25    1    4    4    0    0  0.43513118460E+02  0.59248570271E+02 -0.52401506296E+03  0.54373070436E+03  0.12509000000E+03 0.  0.
         25    1    4    4    0    0  0.26521424589E+02 -0.20651008351E+02 -0.51432026315E+03  0.53037976140E+03  0.12509000000E+03 0.  0.
<mgrwt>
<rscale>  2 0.44275503E+03</rscale>
<asrwt>0</asrwt>
<pdfrwt beam="1">  1       21 0.53002078E-02 0.44275503E+03</pdfrwt>
<pdfrwt beam="2">  1       21 0.19996606E+00 0.44275503E+03</pdfrwt>
<totfact> 0.29117734E+04</totfact>
</mgrwt>
</event>
<event>
 7    0  0.4748297E-002  0.4420729E+03  0.7546771E-02  0.1030113E+00
         21   -1    0    0  502  501  0.00000000000E+00  0.00000000000E+00  0.28310531178E+02  0.28310531178E+02  0.00000000000E+00 0. -1.
         21   -1    0    0  501  502 -0.00000000000E+00 -0.00000000000E+00 -0.17257573583E+04  0.17257573583E+04  0.00000000000E+00 0. -1.
      99926    2    1    2    0    0  0.88817841970E-15  0.00000000000E+00 -0.16974468272E+04  0.17540678895E+04  0.44207287860E+03 0.  0.
      99925    2    3    3    0    0  0.76281524202E+01 -0.52178467579E+02 -0.14210209457E+04  0.14461075719E+04  0.26295589020E+03 0.  0.
         25    1    3    3    0    0 -0.76281524202E+01  0.52178467579E+02 -0.27642588148E+03  0.30796031764E+03  0.12509000000E+03 0.  0.
         25    1    4    4    0    0 -0.34156431677E+01 -0.60361193478E+02 -0.62987725144E+03  0.64501782943E+03  0.12509000000E+03 0.  0.
         25    1    4    4    0    0  0.11043795588E+02  0.81827258992E+01 -0.79114369422E+03  0.80108974244E+03  0.12509000000E+03 0.  0.
<mgrwt>
<rscale>  2 0.44207288E+03</rscale>
<asrwt>0</asrwt>
<pdfrwt beam="1">  1       21 0.41633131E-02 0.44207288E+03</pdfrwt>
<pdfrwt beam="2">  1       21 0.25378787E+00 0.44207288E+03</pdfrwt>
<totfact> 0.20101760E+04</totfact>
</mgrwt>
</event>
<event>
 7    0  0.4748297E-002  0.4512844E+03  0.7546771E-02  0.1027340E+00
         21   -1    0    0  502  501  0.00000000000E+00  0.00000000000E+00  0.60218126066E+02  0.60218126066E+02  0.00000000000E+00 0. -1.
         21   -1    0    0  501  502 -0.00000000000E+00 -0.00000000000E+00 -0.84549954515E+03  0.84549954515E+03  0.00000000000E+00 0. -1.
      99926    2    1    2    0    0  0.00000000000E+00  0.71054273576E-14 -0.78528141908E+03  0.90571767121E+03  0.45128438129E+03 0.  0.
      99925    2    3    3    0    0 -0.42760912656E+02  0.46258421358E+02 -0.67551506228E+03  0.72777245946E+03  0.26337011257E+03 0.  0.
         25    1    3    3    0    0  0.42760912656E+02 -0.46258421358E+02 -0.10976635680E+03  0.17794521175E+03  0.12509000000E+03 0.  0.
         25    1    4    4    0    0 -0.49784864638E+02  0.48638261391E+02 -0.40744753059E+03  0.43186249143E+03  0.12509000000E+03 0.  0.
         25    1    4    4    0    0  0.70239519824E+01 -0.23798400325E+01 -0.26806753168E+03  0.29590996804E+03  0.12509000000E+03 0.  0.
<mgrwt>
<rscale>  2 0.45128438E+03</rscale>
<asrwt>0</asrwt>
<pdfrwt beam="1">  1       21 0.88556069E-02 0.45128438E+03</pdfrwt>
<pdfrwt beam="2">  1       21 0.12433817E+00 0.45128438E+03</pdfrwt>
<totfact> 0.44260699E+04</totfact>
</mgrwt>
</event>
<event>
 7    0  0.4748297E-002  0.4546873E+03  0.7546771E-02  0.1026333E+00
         21   -1    0    0  502  501  0.00000000000E+00  0.00000000000E+00  0.77429263127E+02  0.77429263127E+02  0.00000000000E+00 0.  1.
         21   -1    0    0  501  502 -0.00000000000E+00 -0.00000000000E+00 -0.66751433424E+03  0.66751433424E+03  0.00000000000E+00 0.  1.
      99926    2    1    2    0    0  0.00000000000E+00 -0.88817841970E-15 -0.59008507112E+03  0.74494359737E+03  0.45468733445E+03 0.  0.
      99925    2    3    3    0    0  0.86520737488E+02  0.77118374976E+01 -0.25441398661E+03  0.37634097187E+03  0.26336427258E+03 0.  0.
         25    1    3    3    0    0 -0.86520737488E+02 -0.77118374976E+01 -0.33567108451E+03  0.36860262550E+03  0.12509000000E+03 0.  0.
         25    1    4    4    0    0  0.75156447012E+02  0.30043042636E+02 -0.15081733718E+03  0.21200106894E+03  0.12509000000E+03 0.  0.
         25    1    4    4    0    0  0.11364290476E+02 -0.22331205138E+02 -0.10359664943E+03  0.16433990293E+03  0.12509000000E+03 0.  0.
<mgrwt>
<rscale>  2 0.45468733E+03</rscale>
<asrwt>0</asrwt>
<pdfrwt beam="1">  1       21 0.11386656E-01 0.45468733E+03</pdfrwt>
<pdfrwt beam="2">  1       21 0.98163872E-01 0.45468733E+03</pdfrwt>
<totfact> 0.50654179E+04</totfact>
</mgrwt>
</event>
<event>
 7    0  0.4748297E-002  0.4510158E+03  0.7546771E-02  0.1027420E+00
         21   -1    0    0  502  501  0.00000000000E+00  0.00000000000E+00  0.25318204168E+03  0.25318204168E+03  0.00000000000E+00 0. -1.
         21   -1    0    0  501  502 -0.00000000000E+00 -0.00000000000E+00 -0.20085872366E+03  0.20085872366E+03  0.00000000000E+00 0. -1.
      99926    2    1    2    0    0  0.71054273576E-14  0.00000000000E+00  0.52323318019E+02  0.45404076534E+03  0.45101583895E+03 0.  0.
      99925    2    3    3    0    0  0.38503037424E+02 -0.64115045320E+02  0.11337791812E+03  0.29602685703E+03  0.26302875288E+03 0.  0.
         25    1    4    4    0    0  0.59042784612E+02 -0.28238916155E+02  0.49406905428E+02  0.14957284915E+03  0.12509000000E+03 0.  0.
         25    1    4    4    0    0 -0.20539747188E+02 -0.35876129164E+02  0.63971012688E+02  0.14645400788E+03  0.12509000000E+03 0.  0.
         25    1    3    3    0    0 -0.38503037424E+02  0.64115045320E+02 -0.61054600096E+02  0.15801390831E+03  0.12509000000E+03 0.  0.
<mgrwt>
<rscale>  2 0.45101584E+03</rscale>
<asrwt>0</asrwt>
<pdfrwt beam="1">  1       21 0.37232653E-01 0.45101584E+03</pdfrwt>
<pdfrwt beam="2">  1       21 0.29538047E-01 0.45101584E+03</pdfrwt>
<totfact> 0.70841246E+04</totfact>
</mgrwt>
</event>
<event>
 7    0  0.4748297E-002  0.4567930E+03  0.7546771E-02  0.1025715E+00
         21   -1    0    0  502  501  0.00000000000E+00  0.00000000000E+00  0.63599035377E+02  0.63599035377E+02  0.00000000000E+00 0.  1.
         21   -1    0    0  501  502 -0.00000000000E+00 -0.00000000000E+00 -0.82021629937E+03  0.82021629937E+03  0.00000000000E+00 0.  1.
      99926    2    1    2    0    0  0.00000000000E+00  0.00000000000E+00 -0.75661726400E+03  0.88381533475E+03  0.45679301851E+03 0.  0.
      99925    2    3    3    0    0 -0.68586882833E+02  0.84532820827E+02 -0.40391520895E+03  0.49407669665E+03  0.26289604002E+03 0.  0.
         25    1    3    3    0    0  0.68586882833E+02 -0.84532820827E+02 -0.35270205505E+03  0.38973863810E+03  0.12509000000E+03 0.  0.
         25    1    4    4    0    0 -0.56002250557E+02  0.20855004863E+02 -0.15432937175E+03  0.20745179291E+03  0.12509000000E+03 0.  0.
         25    1    4    4    0    0 -0.12584632277E+02  0.63677815964E+02 -0.24958583720E+03  0.28662490374E+03  0.12509000000E+03 0.  0.
<mgrwt>
<rscale>  2 0.45679302E+03</rscale>
<asrwt>0</asrwt>
<pdfrwt beam="1">  1       21 0.93527999E-02 0.45679302E+03</pdfrwt>
<pdfrwt beam="2">  1       21 0.12062004E+00 0.45679302E+03</pdfrwt>
<totfact> 0.43329241E+04</totfact>
</mgrwt>
</event>
<event>
 7    0  0.4748297E-002  0.4572988E+03  0.7546771E-02  0.1025568E+00
         21   -1    0    0  502  501  0.00000000000E+00  0.00000000000E+00  0.42254891475E+02  0.42254891475E+02  0.00000000000E+00 0.  1.
         21   -1    0    0  501  502 -0.00000000000E+00 -0.00000000000E+00 -0.12372659100E+04  0.12372659100E+04  0.00000000000E+00 0.  1.
      99926    2    1    2    0    0 -0.71054273576E-14  0.00000000000E+00 -0.11950110185E+04  0.12795208014E+04  0.45729875027E+03 0.  0.
      99925    2    3    3    0    0 -0.34486082513E+02  0.33949740307E+02 -0.10429038916E+04  0.10767254344E+04  0.26333867767E+03 0.  0.
         25    1    3    3    0    0  0.34486082513E+02 -0.33949740307E+02 -0.15210712690E+03  0.20279536708E+03  0.12509000000E+03 0.  0.
         25    1    4    4    0    0 -0.45658597020E+02  0.28704484901E+02 -0.42985525233E+03  0.45092316528E+03  0.12509000000E+03 0.  0.
         25    1    4    4    0    0  0.11172514507E+02  0.52452554056E+01 -0.61304863926E+03  0.62580226908E+03  0.12509000000E+03 0.  0.
<mgrwt>
<rscale>  2 0.45729875E+03</rscale>
<asrwt>0</asrwt>
<pdfrwt beam="1">  1       21 0.62139553E-02 0.45729875E+03</pdfrwt>
<pdfrwt beam="2">  1       21 0.18195085E+00 0.45729875E+03</pdfrwt>
<totfact> 0.29189689E+04</totfact>
</mgrwt>
</event>
<event>
 7    0  0.4748297E-002  0.4517449E+03  0.7546771E-02  0.1027203E+00
         21   -1    0    0  502  501  0.00000000000E+00  0.00000000000E+00  0.25943984882E+03  0.25943984882E+03  0.00000000000E+00 0. -1.
         21   -1    0    0  501  502 -0.00000000000E+00 -0.00000000000E+00 -0.19664818181E+03  0.19664818181E+03  0.00000000000E+00 0. -1.
      99926    2    1    2    0    0 -0.71054273576E-14  0.00000000000E+00  0.62791667004E+02  0.45608803063E+03  0.45174494822E+03 0.  0.
      99925    2    3    3    0    0  0.28025254795E+02  0.33523459017E+02 -0.62371404876E+02  0.27381751773E+03  0.26301445523E+03 0.  0.
         25    1    3    3    0    0 -0.28025254795E+02 -0.33523459017E+02  0.12516307188E+03  0.18227051290E+03  0.12509000000E+03 0.  0.
         25    1    4    4    0    0  0.43555564475E+02  0.19559259042E+02 -0.33490471604E+01  0.13393422277E+03  0.12509000000E+03 0.  0.
         25    1    4    4    0    0 -0.15530309679E+02  0.13964199975E+02 -0.59022357716E+02  0.13988329496E+03  0.12509000000E+03 0.  0.
<mgrwt>
<rscale>  2 0.45174495E+03</rscale>
<asrwt>0</asrwt>
<pdfrwt beam="1">  1       21 0.38152919E-01 0.45174495E+03</pdfrwt>
<pdfrwt beam="2">  1       21 0.28918850E-01 0.45174495E+03</pdfrwt>
<totfact> 0.70273139E+04</totfact>
</mgrwt>
</event>
<event>
 7    0  0.4748297E-002  0.4347424E+03  0.7546771E-02  0.1032372E+00
         21   -1    0    0  502  501  0.00000000000E+00  0.00000000000E+00  0.21489609776E+03  0.21489609776E+03  0.00000000000E+00 0. -1.
         21   -1    0    0  501  502 -0.00000000000E+00 -0.00000000000E+00 -0.21987484442E+03  0.21987484442E+03  0.00000000000E+00 0. -1.
      99926    2    1    2    0    0  0.00000000000E+00  0.00000000000E+00 -0.49787466511E+01  0.43477094218E+03  0.43474243437E+03 0.  0.
      99925    2    3    3    0    0 -0.49836126540E+02  0.53766859831E+02  0.53933007126E+02  0.27826976788E+03  0.26296535843E+03 0.  0.
         25    1    4    4    0    0 -0.43768597884E+02  0.60673681147E+02  0.44916145398E+02  0.15251870037E+03  0.12509000000E+03 0.  0.
         25    1    4    4    0    0 -0.60675286566E+01 -0.69068213161E+01  0.90168617274E+01  0.12575106751E+03  0.12509000000E+03 0.  0.
         25    1    3    3    0    0  0.49836126540E+02 -0.53766859831E+02 -0.58911753777E+02  0.15650117430E+03  0.12509000000E+03 0.  0.
<mgrwt>
<rscale>  2 0.43474243E+03</rscale>
<asrwt>0</asrwt>
<pdfrwt beam="1">  1       21 0.31602368E-01 0.43474243E+03</pdfrwt>
<pdfrwt beam="2">  1       21 0.32334536E-01 0.43474243E+03</pdfrwt>
<totfact> 0.82622509E+04</totfact>
</mgrwt>
</event>
<event>
 7    0  0.4748297E-002  0.4739516E+03  0.7546771E-02  0.1020811E+00
         21   -1    0    0  502  501  0.00000000000E+00  0.00000000000E+00  0.24947071207E+03  0.24947071207E+03  0.00000000000E+00 0. -1.
         21   -1    0    0  501  502 -0.00000000000E+00 -0.00000000000E+00 -0.22510671024E+03  0.22510671024E+03  0.00000000000E+00 0. -1.
      99926    2    1    2    0    0  0.00000000000E+00  0.00000000000E+00  0.24364001831E+02  0.47457742231E+03  0.47395160637E+03 0.  0.
      99925    2    3    3    0    0  0.11200587339E+03 -0.50715236253E+02  0.57897325705E+02  0.29600154832E+03  0.26295905654E+03 0.  0.
         25    1    4    4    0    0  0.39131617285E+02  0.37480462363E+01  0.79895696547E+00  0.13112390230E+03  0.12509000000E+03 0.  0.
         25    1    3    3    0    0 -0.11200587339E+03  0.50715236253E+02 -0.33533323874E+02  0.17857587400E+03  0.12509000000E+03 0.  0.
         25    1    4    4    0    0  0.72874256109E+02 -0.54463282490E+02  0.57098368739E+02  0.16487764602E+03  0.12509000000E+03 0.  0.
<mgrwt>
<rscale>  2 0.47395161E+03</rscale>
<asrwt>0</asrwt>
<pdfrwt beam="1">  1       21 0.36686870E-01 0.47395161E+03</pdfrwt>
<pdfrwt beam="2">  1       21 0.33103928E-01 0.47395161E+03</pdfrwt>
<totfact> 0.57875554E+04</totfact>
</mgrwt>
</event>
<event>
 7    0  0.4748297E-002  0.4628401E+03  0.7546771E-02  0.1023961E+00
         21   -1    0    0  502  501  0.00000000000E+00  0.00000000000E+00  0.69887380635E+03  0.69887380635E+03  0.00000000000E+00 0.  1.
         21   -1    0    0  501  502 -0.00000000000E+00 -0.00000000000E+00 -0.76630772450E+02  0.76630772450E+02  0.00000000000E+00 0.  1.
      99926    2    1    2    0    0  0.71054273576E-14  0.00000000000E+00  0.62224303390E+03  0.77550457880E+03  0.46284010036E+03 0.  0.
      99925    2    3    3    0    0  0.49745484530E+02 -0.10410388077E+03  0.44578526478E+03  0.53035751354E+03  0.26313942816E+03 0.  0.
         25    1    3    3    0    0 -0.49745484530E+02  0.10410388077E+03  0.17645776912E+03  0.24514706526E+03  0.12509000000E+03 0.  0.
         25    1    4    4    0    0  0.16887248035E+02 -0.31773448156E+02  0.14371469055E+03  0.19389727057E+03  0.12509000000E+03 0.  0.
         25    1    4    4    0    0  0.32858236495E+02 -0.72330432611E+02  0.30207057422E+03  0.33646024297E+03  0.12509000000E+03 0.  0.
<mgrwt>
<rscale>  2 0.46284010E+03</rscale>
<asrwt>0</asrwt>
<pdfrwt beam="1">  1       21 0.10277556E+00 0.46284010E+03</pdfrwt>
<pdfrwt beam="2">  1       21 0.11269232E-01 0.46284010E+03</pdfrwt>
<totfact> 0.46071098E+04</totfact>
</mgrwt>
</event>
<event>
 7    0  0.4748297E-002  0.4489756E+03  0.7546771E-02  0.1028028E+00
         21   -1    0    0  502  501  0.00000000000E+00  0.00000000000E+00  0.76967808900E+03  0.76967808900E+03  0.00000000000E+00 0. -1.
         21   -1    0    0  501  502 -0.00000000000E+00 -0.00000000000E+00 -0.65475123082E+02  0.65475123082E+02  0.00000000000E+00 0. -1.
      99926    2    1    2    0    0  0.14210854715E-13  0.00000000000E+00  0.70420296592E+03  0.83515321208E+03  0.44897557889E+03 0.  0.
      99925    2    3    3    0    0  0.90161821662E+02 -0.57408626232E+02  0.42903309290E+03  0.51454305696E+03  0.26317343751E+03 0.  0.
         25    1    4    4    0    0  0.20369570625E+02 -0.12445565220E+02  0.25254324463E+03  0.28283459833E+03  0.12509000000E+03 0.  0.
         25    1    4    4    0    0  0.69792251036E+02 -0.44963061012E+02  0.17648984827E+03  0.23170845863E+03  0.12509000000E+03 0.  0.
         25    1    3    3    0    0 -0.90161821662E+02  0.57408626232E+02  0.27516987302E+03  0.32061015512E+03  0.12509000000E+03 0.  0.
<mgrwt>
<rscale>  2 0.44897558E+03</rscale>
<asrwt>0</asrwt>
<pdfrwt beam="1">  1       21 0.11318795E+00 0.44897558E+03</pdfrwt>
<pdfrwt beam="2">  1       21 0.96286950E-02 0.44897558E+03</pdfrwt>
<totfact> 0.48356402E+04</totfact>
</mgrwt>
</event>
<event>
 7    0  0.4748297E-002  0.4448084E+03  0.7546771E-02  0.1029282E+00
         21   -1    0    0  502  501  0.00000000000E+00  0.00000000000E+00  0.34167028996E+03  0.34167028996E+03  0.00000000000E+00 0.  1.
         21   -1    0    0  501  502 -0.00000000000E+00 -0.00000000000E+00 -0.14477004719E+03  0.14477004719E+03  0.00000000000E+00 0.  1.
      99926    2    1    2    0    0  0.00000000000E+00  0.00000000000E+00  0.19690024277E+03  0.48644033716E+03  0.44480838123E+03 0.  0.
      99925    2    3    3    0    0 -0.39392836318E+02 -0.33512586090E+02  0.27295088763E+02  0.26944193775E+03  0.26301910001E+03 0.  0.
         25    1    4    4    0    0 -0.15638950846E+02 -0.10828996428E+02  0.53686106654E+02  0.13744653541E+03  0.12509000000E+03 0.  0.
         25    1    4    4    0    0 -0.23753885472E+02 -0.22683589661E+02 -0.26391017891E+02  0.13199540235E+03  0.12509000000E+03 0.  0.
         25    1    3    3    0    0  0.39392836318E+02  0.33512586090E+02  0.16960515400E+03  0.21699839941E+03  0.12509000000E+03 0.  0.
<mgrwt>
<rscale>  2 0.44480838E+03</rscale>
<asrwt>0</asrwt>
<pdfrwt beam="1">  1       21 0.50245631E-01 0.44480838E+03</pdfrwt>
<pdfrwt beam="2">  1       21 0.21289713E-01 0.44480838E+03</pdfrwt>
<totfact> 0.71875817E+04</totfact>
</mgrwt>
</event>
<event>
 7    0  0.4748297E-002  0.4537923E+03  0.7546771E-02  0.1026597E+00
         21   -1    0    0  502  501  0.00000000000E+00  0.00000000000E+00  0.66631198136E+03  0.66631198136E+03  0.00000000000E+00 0. -1.
         21   -1    0    0  501  502 -0.00000000000E+00 -0.00000000000E+00 -0.77263895675E+02  0.77263895675E+02  0.00000000000E+00 0. -1.
      99926    2    1    2    0    0  0.00000000000E+00  0.00000000000E+00  0.58904808569E+03  0.74357587704E+03  0.45379228471E+03 0.  0.
      99925    2    3    3    0    0  0.88698789942E+02 -0.67493936696E+02  0.35269293490E+03  0.45386192806E+03  0.26301223657E+03 0.  0.
         25    1    3    3    0    0 -0.88698789942E+02  0.67493936696E+02  0.23635515079E+03  0.28971394898E+03  0.12509000000E+03 0.  0.
         25    1    4    4    0    0  0.53479479393E+02  0.63256736124E+01  0.16643285592E+03  0.21505225526E+03  0.12509000000E+03 0.  0.
         25    1    4    4    0    0  0.35219310550E+02 -0.73819610308E+02  0.18626007898E+03  0.23880967280E+03  0.12509000000E+03 0.  0.
<mgrwt>
<rscale>  2 0.45379228E+03</rscale>
<asrwt>0</asrwt>
<pdfrwt beam="1">  1       21 0.97987053E-01 0.45379228E+03</pdfrwt>
<pdfrwt beam="2">  1       21 0.11362338E-01 0.45379228E+03</pdfrwt>
<totfact> 0.51083336E+04</totfact>
</mgrwt>
</event>
<event>
 7    0  0.5165858E-002  0.3982139E+03  0.7546771E-02  0.1044400E+00
         21   -1    0    0  502  501  0.00000000000E+00  0.00000000000E+00  0.36667130177E+03  0.36667130177E+03  0.00000000000E+00 0. -1.
         21   -1    0    0  501  502 -0.00000000000E+00 -0.00000000000E+00 -0.10811746015E+03  0.10811746015E+03  0.00000000000E+00 0. -1.
      99926    2    1    2    0    0 -0.35527136788E-14 -0.71054273576E-14  0.25855384163E+03  0.47478876192E+03  0.39821386142E+03 0.  0.
      99925    2    3    3    0    0  0.18766880678E+02  0.34801138755E+02  0.15586566091E+03  0.30818838489E+03  0.26291188878E+03 0.  0.
         25    1    4    4    0    0 -0.10885024627E+02  0.22642691259E+02  0.37417982581E+02  0.13296160630E+03  0.12509000000E+03 0.  0.
         25    1    3    3    0    0 -0.18766880678E+02 -0.34801138755E+02  0.10268818072E+03  0.16660037703E+03  0.12509000000E+03 0.  0.
         25    1    4    4    0    0  0.29651905305E+02  0.12158447497E+02  0.11844767833E+03  0.17522677859E+03  0.12509000000E+03 0.  0.
<mgrwt>
<rscale>  2 0.39821386E+03</rscale>
<asrwt>0</asrwt>
<pdfrwt beam="1">  1       21 0.53922250E-01 0.39821386E+03</pdfrwt>
<pdfrwt beam="2">  1       21 0.15899627E-01 0.39821386E+03</pdfrwt>
<totfact> 0.10821194E+05</totfact>
</mgrwt>
</event>
<event>
 7    0  0.4748297E-002  0.4556680E+03  0.7546771E-02  0.1026045E+00
         21   -1    0    0  502  501  0.00000000000E+00  0.00000000000E+00  0.32924434705E+03  0.32924434705E+03  0.00000000000E+00 0. -1.
         21   -1    0    0  501  502 -0.00000000000E+00 -0.00000000000E+00 -0.15765900507E+03  0.15765900507E+03  0.00000000000E+00 0. -1.
      99926    2    1    2    0    0  0.00000000000E+00  0.71054273576E-14  0.17158534198E+03  0.48690335212E+03  0.45566802030E+03 0.  0.
      99925    2    3    3    0    0  0.88590068572E+02  0.50834977172E+02  0.16114853015E+03  0.32507371857E+03  0.26319513404E+03 0.  0.
         25    1    3    3    0    0 -0.88590068572E+02 -0.50834977172E+02  0.10436811827E+02  0.16182963355E+03  0.12509000000E+03 0.  0.
         25    1    4    4    0    0  0.19460010852E+02  0.29598921518E+02  0.11449587013E+03  0.17323856544E+03  0.12509000000E+03 0.  0.
         25    1    4    4    0    0  0.69130057720E+02  0.21236055654E+02  0.46652660019E+02  0.15183515313E+03  0.12509000000E+03 0.  0.
<mgrwt>
<rscale>  2 0.45566802E+03</rscale>
<asrwt>0</asrwt>
<pdfrwt beam="1">  1       21 0.48418287E-01 0.45566802E+03</pdfrwt>
<pdfrwt beam="2">  1       21 0.23185148E-01 0.45566802E+03</pdfrwt>
<totfact> 0.65851012E+04</totfact>
</mgrwt>
</event>
<event>
 7    0  0.4748297E-002  0.4530348E+03  0.7546771E-02  0.1026821E+00
         21   -1    0    0  502  501  0.00000000000E+00  0.00000000000E+00  0.41690202788E+02  0.41690202788E+02  0.00000000000E+00 0.  1.
         21   -1    0    0  501  502 -0.00000000000E+00 -0.00000000000E+00 -0.12307477804E+04  0.12307477804E+04  0.00000000000E+00 0.  1.
      99926    2    1    2    0    0  0.00000000000E+00  0.00000000000E+00 -0.11890575776E+04  0.12724379832E+04  0.45303476488E+03 0.  0.
      99925    2    3    3    0    0  0.52427472559E+02  0.11761847856E+02 -0.10235007478E+04  0.10580935106E+04  0.26290894897E+03 0.  0.
         25    1    3    3    0    0 -0.52427472559E+02 -0.11761847856E+02 -0.16555682987E+03  0.21434447266E+03  0.12509000000E+03 0.  0.
         25    1    4    4    0    0  0.64913565331E+02  0.16600674173E+02 -0.50609745441E+03  0.52561534871E+03  0.12509000000E+03 0.  0.
         25    1    4    4    0    0 -0.12486092772E+02 -0.48388263173E+01 -0.51740329337E+03  0.53247816184E+03  0.12509000000E+03 0.  0.
<mgrwt>
<rscale>  2 0.45303476E+03</rscale>
<asrwt>0</asrwt>
<pdfrwt beam="1">  1       21 0.61309108E-02 0.45303476E+03</pdfrwt>
<pdfrwt beam="2">  1       21 0.18099236E+00 0.45303476E+03</pdfrwt>
<totfact> 0.30387910E+04</totfact>
</mgrwt>
</event>
<event>
 7    0  0.4748297E-002  0.4442902E+03  0.7546771E-02  0.1029439E+00
         21   -1    0    0  502  501  0.00000000000E+00  0.00000000000E+00  0.10474483814E+04  0.10474483814E+04  0.00000000000E+00 0. -1.
         21   -1    0    0  501  502 -0.00000000000E+00 -0.00000000000E+00 -0.47113007846E+02  0.47113007846E+02  0.00000000000E+00 0. -1.
      99926    2    1    2    0    0  0.00000000000E+00 -0.35527136788E-14  0.10003353735E+04  0.10945613892E+04  0.44429019260E+03 0.  0.
      99925    2    3    3    0    0 -0.95330928679E+02  0.27319019982E+02  0.56811422430E+03  0.63380446333E+03  0.26290684865E+03 0.  0.
         25    1    4    4    0    0 -0.71745075332E+02 -0.37509722342E+01  0.36061068437E+03  0.38839284161E+03  0.12509000000E+03 0.  0.
         25    1    3    3    0    0  0.95330928679E+02 -0.27319019982E+02  0.43222114922E+03  0.46075692588E+03  0.12509000000E+03 0.  0.
         25    1    4    4    0    0 -0.23585853347E+02  0.31069992217E+02  0.20750353992E+03  0.24541162172E+03  0.12509000000E+03 0.  0.
<mgrwt>
<rscale>  2 0.44429019E+03</rscale>
<asrwt>0</asrwt>
<pdfrwt beam="1">  1       21 0.15403651E+00 0.44429019E+03</pdfrwt>
<pdfrwt beam="2">  1       21 0.69283842E-02 0.44429019E+03</pdfrwt>
<totfact> 0.38827475E+04</totfact>
</mgrwt>
</event>
<event>
 7    0  0.4748297E-002  0.4537388E+03  0.7546771E-02  0.1026613E+00
         21   -1    0    0  502  501  0.00000000000E+00  0.00000000000E+00  0.86316868854E+03  0.86316868854E+03  0.00000000000E+00 0.  1.
         21   -1    0    0  501  502 -0.00000000000E+00 -0.00000000000E+00 -0.59628804067E+02  0.59628804067E+02  0.00000000000E+00 0.  1.
      99926    2    1    2    0    0  0.00000000000E+00  0.17763568394E-14  0.80353988448E+03  0.92279749261E+03  0.45373876452E+03 0.  0.
      99925    2    3    3    0    0 -0.60505763631E+02  0.12508728756E+02  0.31607500487E+03  0.41576008504E+03  0.26293653964E+03 0.  0.
         25    1    4    4    0    0 -0.10491700248E+02  0.39194425117E+02  0.17466875754E+03  0.21863888422E+03  0.12509000000E+03 0.  0.
         25    1    3    3    0    0  0.60505763631E+02 -0.12508728756E+02  0.48746487961E+03  0.50703740758E+03  0.12509000000E+03 0.  0.
         25    1    4    4    0    0 -0.50014063383E+02 -0.26685696361E+02  0.14140624733E+03  0.19712120081E+03  0.12509000000E+03 0.  0.
<mgrwt>
<rscale>  2 0.45373876E+03</rscale>
<asrwt>0</asrwt>
<pdfrwt beam="1">  1       21 0.12693656E+00 0.45373876E+03</pdfrwt>
<pdfrwt beam="2">  1       21 0.87689423E-02 0.45373876E+03</pdfrwt>
<totfact> 0.42681993E+04</totfact>
</mgrwt>
</event>
<event>
 7    0  0.4748297E-002  0.4532701E+03  0.7546771E-02  0.1026751E+00
         21   -1    0    0  502  501  0.00000000000E+00  0.00000000000E+00  0.12407285442E+03  0.12407285442E+03  0.00000000000E+00 0.  1.
         21   -1    0    0  501  502 -0.00000000000E+00 -0.00000000000E+00 -0.41397819969E+03  0.41397819969E+03  0.00000000000E+00 0.  1.
      99926    2    1    2    0    0  0.00000000000E+00  0.14210854715E-13 -0.28990534528E+03  0.53805105411E+03  0.45327014860E+03 0.  0.
      99925    2    3    3    0    0 -0.51923448227E+02 -0.97651427326E+02 -0.16572922022E+03  0.32996678304E+03  0.26302102148E+03 0.  0.
         25    1    3    3    0    0  0.51923448227E+02  0.97651427326E+02 -0.12417612506E+03  0.20808427108E+03  0.12509000000E+03 0.  0.
         25    1    4    4    0    0 -0.34271728635E+02 -0.17918688973E+02 -0.10831333181E+03  0.16992620971E+03  0.12509000000E+03 0.  0.
         25    1    4    4    0    0 -0.17651719593E+02 -0.79732738353E+02 -0.57415888409E+02  0.16004057333E+03  0.12509000000E+03 0.  0.
<mgrwt>
<rscale>  2 0.45327015E+03</rscale>
<asrwt>0</asrwt>
<pdfrwt beam="1">  1       21 0.18246008E-01 0.45327015E+03</pdfrwt>
<pdfrwt beam="2">  1       21 0.60879148E-01 0.45327015E+03</pdfrwt>
<totfact> 0.63528361E+04</totfact>
</mgrwt>
</event>
<event>
 7    0  0.4748297E-002  0.4480789E+03  0.7546771E-02  0.1028296E+00
         21   -1    0    0  502  501  0.00000000000E+00  0.00000000000E+00  0.10115947013E+03  0.10115947013E+03  0.00000000000E+00 0.  1.
         21   -1    0    0  501  502 -0.00000000000E+00 -0.00000000000E+00 -0.49618357281E+03  0.49618357281E+03  0.00000000000E+00 0.  1.
      99926    2    1    2    0    0  0.00000000000E+00 -0.71054273576E-14 -0.39502410267E+03  0.59734304294E+03  0.44807886499E+03 0.  0.
      99925    2    3    3    0    0 -0.62761535940E+02 -0.61913301193E+02 -0.33006405701E+03  0.43109147786E+03  0.26291693231E+03 0.  0.
         25    1    4    4    0    0 -0.70519957979E+02 -0.38357666112E+02 -0.15802376695E+03  0.21694099208E+03  0.12509000000E+03 0.  0.
         25    1    4    4    0    0  0.77584220396E+01 -0.23555635081E+02 -0.17204029006E+03  0.21415048578E+03  0.12509000000E+03 0.  0.
         25    1    3    3    0    0  0.62761535940E+02  0.61913301193E+02 -0.64960045665E+02  0.16625156508E+03  0.12509000000E+03 0.  0.
<mgrwt>
<rscale>  2 0.44807886E+03</rscale>
<asrwt>0</asrwt>
<pdfrwt beam="1">  1       21 0.14876393E-01 0.44807886E+03</pdfrwt>
<pdfrwt beam="2">  1       21 0.72968173E-01 0.44807886E+03</pdfrwt>
<totfact> 0.62173113E+04</totfact>
</mgrwt>
</event>
<event>
 7    0  0.4748297E-002  0.4616273E+03  0.7546771E-02  0.1024310E+00
         21   -1    0    0  502  501  0.00000000000E+00  0.00000000000E+00  0.14681275533E+03  0.14681275533E+03  0.00000000000E+00 0. -1.
         21   -1    0    0  501  502 -0.00000000000E+00 -0.00000000000E+00 -0.36287675016E+03  0.36287675016E+03  0.00000000000E+00 0. -1.
      99926    2    1    2    0    0 -0.88817841970E-15  0.14210854715E-13 -0.21606399483E+03  0.50968950548E+03  0.46162727621E+03 0.  0.
      99925    2    3    3    0    0 -0.71003564068E+01 -0.10597204181E+03 -0.75206982063E+02  0.29342879511E+03  0.26299026397E+03 0.  0.
         25    1    3    3    0    0  0.71003564068E+01  0.10597204181E+03 -0.14085701276E+03  0.21626071037E+03  0.12509000000E+03 0.  0.
         25    1    4    4    0    0  0.11818383200E+02 -0.32592452019E+02 -0.18707506438E+01  0.12981891202E+03  0.12509000000E+03 0.  0.
         25    1    4    4    0    0 -0.18918739606E+02 -0.73379589792E+02 -0.73336231419E+02  0.16360988309E+03  0.12509000000E+03 0.  0.
<mgrwt>
<rscale>  2 0.46162728E+03</rscale>
<asrwt>0</asrwt>
<pdfrwt beam="1">  1       21 0.21590111E-01 0.46162728E+03</pdfrwt>
<pdfrwt beam="2">  1       21 0.53364227E-01 0.46162728E+03</pdfrwt>
<totfact> 0.61306339E+04</totfact>
</mgrwt>
</event>
<event>
 7    0  0.4748297E-002  0.4495075E+03  0.7546771E-02  0.1027869E+00
         21   -1    0    0  502  501  0.00000000000E+00  0.00000000000E+00  0.20007782928E+03  0.20007782928E+03  0.00000000000E+00 0.  1.
         21   -1    0    0  501  502 -0.00000000000E+00 -0.00000000000E+00 -0.25247301700E+03  0.25247301700E+03  0.00000000000E+00 0.  1.
      99926    2    1    2    0    0  0.71054273576E-14 -0.14210854715E-13 -0.52395187718E+02  0.45255084628E+03  0.44950752249E+03 0.  0.
      99925    2    3    3    0    0 -0.37993963515E+02  0.73056497718E+02 -0.10334620897E+03  0.29436011397E+03  0.26303354285E+03 0.  0.
         25    1    4    4    0    0 -0.25382308849E+02 -0.48231941220E+01 -0.47645387183E+02  0.13632723801E+03  0.12509000000E+03 0.  0.
         25    1    4    4    0    0 -0.12611654667E+02  0.77879691840E+02 -0.55700821789E+02  0.15803287595E+03  0.12509000000E+03 0.  0.
         25    1    3    3    0    0  0.37993963515E+02 -0.73056497718E+02  0.50951021255E+02  0.15819073231E+03  0.12509000000E+03 0.  0.
<mgrwt>
<rscale>  2 0.44950752E+03</rscale>
<asrwt>0</asrwt>
<pdfrwt beam="1">  1       21 0.29423210E-01 0.44950752E+03</pdfrwt>
<pdfrwt beam="2">  1       21 0.37128385E-01 0.44950752E+03</pdfrwt>
<totfact> 0.71821582E+04</totfact>
</mgrwt>
</event>
<event>
 7    0  0.4748297E-002  0.4643319E+03  0.7546771E-02  0.1023532E+00
         21   -1    0    0  502  501  0.00000000000E+00  0.00000000000E+00  0.18995585896E+03  0.18995585896E+03  0.00000000000E+00 0. -1.
         21   -1    0    0  501  502 -0.00000000000E+00 -0.00000000000E+00 -0.28375558570E+03  0.28375558570E+03  0.00000000000E+00 0. -1.
      99926    2    1    2    0    0  0.35527136788E-14 -0.14210854715E-13 -0.93799726737E+02  0.47371144466E+03  0.46433193307E+03 0.  0.
      99925    2    3    3    0    0 -0.26130183855E+02  0.11885427346E+03 -0.61053292012E+02  0.29614747896E+03  0.26299562734E+03 0.  0.
         25    1    4    4    0    0 -0.16495501074E+02  0.15323906330E+02 -0.28668400639E+02  0.13029316542E+03  0.12509000000E+03 0.  0.
         25    1    4    4    0    0 -0.96346827810E+01  0.10353036713E+03 -0.32384891374E+02  0.16585431354E+03  0.12509000000E+03 0.  0.
         25    1    3    3    0    0  0.26130183855E+02 -0.11885427346E+03 -0.32746434724E+02  0.17756396570E+03  0.12509000000E+03 0.  0.
<mgrwt>
<rscale>  2 0.46433193E+03</rscale>
<asrwt>0</asrwt>
<pdfrwt beam="1">  1       21 0.27934686E-01 0.46433193E+03</pdfrwt>
<pdfrwt beam="2">  1       21 0.41728762E-01 0.46433193E+03</pdfrwt>
<totfact> 0.62408813E+04</totfact>
</mgrwt>
</event>
<event>
 7    0  0.4748297E-002  0.4572063E+03  0.7546771E-02  0.1025595E+00
         21   -1    0    0  502  501  0.00000000000E+00  0.00000000000E+00  0.41929007750E+03  0.41929007750E+03  0.00000000000E+00 0.  1.
         21   -1    0    0  501  502 -0.00000000000E+00 -0.00000000000E+00 -0.12463783044E+03  0.12463783044E+03  0.00000000000E+00 0.  1.
      99926    2    1    2    0    0  0.00000000000E+00  0.00000000000E+00  0.29465224706E+03  0.54392790794E+03  0.45720632360E+03 0.  0.
      99925    2    3    3    0    0  0.10449208367E+03 -0.34913723372E+02  0.22724933639E+03  0.36412739599E+03  0.26231457450E+03 0.  0.
         25    1    4    4    0    0  0.86411272276E+02 -0.37599762394E+02  0.14404914440E+03  0.21278701608E+03  0.12509000000E+03 0.  0.
         25    1    3    3    0    0 -0.10449208367E+03  0.34913723372E+02  0.67402910668E+02  0.17980051195E+03  0.12509000000E+03 0.  0.
         25    1    4    4    0    0  0.18080811393E+02  0.26860390224E+01  0.83200191994E+02  0.15134037992E+03  0.12509000000E+03 0.  0.
<mgrwt>
<rscale>  2 0.45720632E+03</rscale>
<asrwt>0</asrwt>
<pdfrwt beam="1">  1       21 0.61660305E-01 0.45720632E+03</pdfrwt>
<pdfrwt beam="2">  1       21 0.18329093E-01 0.45720632E+03</pdfrwt>
<totfact> 0.61194145E+04</totfact>
</mgrwt>
</event>
<event>
 7    0  0.4748297E-002  0.4568341E+03  0.7546771E-02  0.1025703E+00
         21   -1    0    0  502  501  0.00000000000E+00  0.00000000000E+00  0.24172479057E+03  0.24172479057E+03  0.00000000000E+00 0. -1.
         21   -1    0    0  501  502 -0.00000000000E+00 -0.00000000000E+00 -0.21584198750E+03  0.21584198750E+03  0.00000000000E+00 0. -1.
      99926    2    1    2    0    0  0.00000000000E+00  0.00000000000E+00  0.25882803070E+02  0.45756677806E+03  0.45683414594E+03 0.  0.
      99925    2    3    3    0    0  0.24281966415E+02  0.91378012800E+02  0.81691670683E+02  0.29112852248E+03  0.26295005691E+03 0.  0.
         25    1    4    4    0    0  0.31490240437E+02  0.90243823032E+01  0.43119037960E+02  0.13630786571E+03  0.12509000000E+03 0.  0.
         25    1    3    3    0    0 -0.24281966415E+02 -0.91378012800E+02 -0.55808867612E+02  0.16643825558E+03  0.12509000000E+03 0.  0.
         25    1    4    4    0    0 -0.72082740223E+01  0.82353630496E+02  0.38572632722E+02  0.15482065678E+03  0.12509000000E+03 0.  0.
<mgrwt>
<rscale>  2 0.45683415E+03</rscale>
<asrwt>0</asrwt>
<pdfrwt beam="1">  1       21 0.35547763E-01 0.45683415E+03</pdfrwt>
<pdfrwt beam="2">  1       21 0.31741469E-01 0.45683415E+03</pdfrwt>
<totfact> 0.67366911E+04</totfact>
</mgrwt>
</event>
<event>
 7    0  0.4748297E-002  0.4588840E+03  0.7546771E-02  0.1025105E+00
         21   -1    0    0  502  501  0.00000000000E+00  0.00000000000E+00  0.43754534003E+03  0.43754534003E+03  0.00000000000E+00 0.  1.
         21   -1    0    0  501  502 -0.00000000000E+00 -0.00000000000E+00 -0.12031584186E+03  0.12031584186E+03  0.00000000000E+00 0.  1.
      99926    2    1    2    0    0  0.71054273576E-14  0.14210854715E-13  0.31722949817E+03  0.55786118189E+03  0.45888401993E+03 0.  0.
      99925    2    3    3    0    0 -0.50302681581E+02 -0.93504598335E+02  0.25806033684E+03  0.38344223957E+03  0.26298164186E+03 0.  0.
         25    1    4    4    0    0 -0.38726229441E+02 -0.81335431805E+02  0.17036466641E+03  0.22975378337E+03  0.12509000000E+03 0.  0.
         25    1    3    3    0    0  0.50302681581E+02  0.93504598335E+02  0.59169161337E+02  0.17441894231E+03  0.12509000000E+03 0.  0.
         25    1    4    4    0    0 -0.11576452140E+02 -0.12169166531E+02  0.87695670431E+02  0.15368845620E+03  0.12509000000E+03 0.  0.
<mgrwt>
<rscale>  2 0.45888402E+03</rscale>
<asrwt>0</asrwt>
<pdfrwt beam="1">  1       21 0.64344902E-01 0.45888402E+03</pdfrwt>
<pdfrwt beam="2">  1       21 0.17693506E-01 0.45888402E+03</pdfrwt>
<totfact> 0.59500721E+04</totfact>
</mgrwt>
</event>
<event>
 7    0  0.4748297E-002  0.4543751E+03  0.7546771E-02  0.1026425E+00
         21   -1    0    0  502  501  0.00000000000E+00  0.00000000000E+00  0.10902556546E+04  0.10902556546E+04  0.00000000000E+00 0.  1.
         21   -1    0    0  501  502 -0.00000000000E+00 -0.00000000000E+00 -0.47341364314E+02  0.47341364314E+02  0.00000000000E+00 0.  1.
      99926    2    1    2    0    0 -0.71054273576E-14  0.14210854715E-13  0.10429142903E+04  0.11375970189E+04  0.45437513198E+03 0.  0.
      99925    2    3    3    0    0  0.35098183775E+02 -0.97658613203E+02  0.54687767316E+03  0.61561146273E+03  0.26293192352E+03 0.  0.
         25    1    3    3    0    0 -0.35098183775E+02  0.97658613203E+02  0.49603661715E+03  0.52198555621E+03  0.12509000000E+03 0.  0.
         25    1    4    4    0    0  0.48046948464E+02 -0.66050962943E+02  0.24338910408E+03  0.28558186750E+03  0.12509000000E+03 0.  0.
         25    1    4    4    0    0 -0.12948764689E+02 -0.31607650260E+02  0.30348856909E+03  0.33002959523E+03  0.12509000000E+03 0.  0.
<mgrwt>
<rscale>  2 0.45437513E+03</rscale>
<asrwt>0</asrwt>
<pdfrwt beam="1">  1       21 0.16033170E+00 0.45437513E+03</pdfrwt>
<pdfrwt beam="2">  1       21 0.69619660E-02 0.45437513E+03</pdfrwt>
<totfact> 0.34366271E+04</totfact>
</mgrwt>
</event>
<event>
 7    0  0.4748297E-002  0.4554993E+03  0.7546771E-02  0.1026095E+00
         21   -1    0    0  502  501  0.00000000000E+00  0.00000000000E+00  0.16442957225E+03  0.16442957225E+03  0.00000000000E+00 0. -1.
         21   -1    0    0  501  502 -0.00000000000E+00 -0.00000000000E+00 -0.31545356478E+03  0.31545356478E+03  0.00000000000E+00 0. -1.
      99926    2    1    2    0    0  0.00000000000E+00  0.00000000000E+00 -0.15102399253E+03  0.47988313703E+03  0.45549926332E+03 0.  0.
      99925    2    3    3    0    0 -0.68614483546E+02 -0.62591118187E+02 -0.16392434824E+03  0.32355168560E+03  0.26303784116E+03 0.  0.
         25    1    4    4    0    0 -0.56687865480E+01 -0.54112632714E+02 -0.10133987149E+03  0.16993407490E+03  0.12509000000E+03 0.  0.
         25    1    3    3    0    0  0.68614483546E+02  0.62591118187E+02  0.12900355708E+02  0.15633145143E+03  0.12509000000E+03 0.  0.
         25    1    4    4    0    0 -0.62945696998E+02 -0.84784854731E+01 -0.62584476756E+02  0.15361761070E+03  0.12509000000E+03 0.  0.
<mgrwt>
<rscale>  2 0.45549926E+03</rscale>
<asrwt>0</asrwt>
<pdfrwt beam="1">  1       21 0.24180820E-01 0.45549926E+03</pdfrwt>
<pdfrwt beam="2">  1       21 0.46390230E-01 0.45549926E+03</pdfrwt>
<totfact> 0.66444904E+04</totfact>
</mgrwt>
</event>
<event>
 7    0  0.4748297E-002  0.4532311E+03  0.7546771E-02  0.1026763E+00
         21   -1    0    0  502  501  0.00000000000E+00  0.00000000000E+00  0.44728511062E+03  0.44728511062E+03  0.00000000000E+00 0.  1.
         21   -1    0    0  501  502 -0.00000000000E+00 -0.00000000000E+00 -0.11481403475E+03  0.11481403475E+03  0.00000000000E+00 0.  1.
      99926    2    1    2    0    0  0.00000000000E+00  0.00000000000E+00  0.33247107587E+03  0.56209914538E+03  0.45323110324E+03 0.  0.
      99925    2    3    3    0    0 -0.35408379030E+02  0.10577386128E+03  0.21576744895E+03  0.35787106780E+03  0.26281979778E+03 0.  0.
         25    1    4    4    0    0  0.35604943273E+01  0.25102947101E+02  0.12788248771E+03  0.18067726431E+03  0.12509000000E+03 0.  0.
         25    1    3    3    0    0  0.35408379030E+02 -0.10577386128E+03  0.11670362692E+03  0.20422807758E+03  0.12509000000E+03 0.  0.
         25    1    4    4    0    0 -0.38968873358E+02  0.80670914178E+02  0.87884961236E+02  0.17719380349E+03  0.12509000000E+03 0.  0.
<mgrwt>
<rscale>  2 0.45323110E+03</rscale>
<asrwt>0</asrwt>
<pdfrwt beam="1">  1       21 0.65777221E-01 0.45323110E+03</pdfrwt>
<pdfrwt beam="2">  1       21 0.16884417E-01 0.45323110E+03</pdfrwt>
<totfact> 0.61936007E+04</totfact>
</mgrwt>
</event>
<event>
 7    0  0.4748297E-002  0.4506177E+03  0.7546771E-02  0.1027538E+00
         21   -1    0    0  502  501  0.00000000000E+00  0.00000000000E+00  0.48530100810E+02  0.48530100810E+02  0.00000000000E+00 0.  1.
         21   -1    0    0  501  502 -0.00000000000E+00 -0.00000000000E+00 -0.10460328943E+04  0.10460328943E+04  0.00000000000E+00 0.  1.
      99926    2    1    2    0    0 -0.17763568394E-14  0.00000000000E+00 -0.99750279347E+03  0.10945629951E+04  0.45061771740E+03 0.  0.
      99925    2    3    3    0    0  0.14397584202E+02 -0.89440016134E+02 -0.48309816655E+03  0.55747228095E+03  0.26302984353E+03 0.  0.
         25    1    4    4    0    0  0.40103123678E+02 -0.27672353256E+02 -0.26909144442E+03  0.30071869451E+03  0.12509000000E+03 0.  0.
         25    1    3    3    0    0 -0.14397584202E+02  0.89440016134E+02 -0.51440462692E+03  0.53709071414E+03  0.12509000000E+03 0.  0.
         25    1    4    4    0    0 -0.25705539477E+02 -0.61767662878E+02 -0.21400672213E+03  0.25675358645E+03  0.12509000000E+03 0.  0.
<mgrwt>
<rscale>  2 0.45061772E+03</rscale>
<asrwt>0</asrwt>
<pdfrwt beam="1">  1       21 0.71367798E-02 0.45061772E+03</pdfrwt>
<pdfrwt beam="2">  1       21 0.15382836E+00 0.45061772E+03</pdfrwt>
<totfact> 0.36929863E+04</totfact>
</mgrwt>
</event>
<event>
 7    0  0.4748297E-002  0.4375215E+03  0.7546771E-02  0.1031510E+00
         21   -1    0    0  502  501  0.00000000000E+00  0.00000000000E+00  0.26679829124E+03  0.26679829124E+03  0.00000000000E+00 0.  1.
         21   -1    0    0  501  502 -0.00000000000E+00 -0.00000000000E+00 -0.17937249342E+03  0.17937249342E+03  0.00000000000E+00 0.  1.
      99926    2    1    2    0    0  0.00000000000E+00  0.00000000000E+00  0.87425797820E+02  0.44617078466E+03  0.43752154114E+03 0.  0.
      99925    2    3    3    0    0 -0.12722512518E+02  0.49918050450E+02  0.13832476474E+03  0.30163052377E+03  0.26304668453E+03 0.  0.
         25    1    3    3    0    0  0.12722512518E+02 -0.49918050450E+02 -0.50898966920E+02  0.14454026089E+03  0.12509000000E+03 0.  0.
         25    1    4    4    0    0 -0.49163764645E+01  0.60723289609E+02  0.49690698533E+02  0.14774356933E+03  0.12509000000E+03 0.  0.
         25    1    4    4    0    0 -0.78061360539E+01 -0.10805239159E+02  0.88634066208E+02  0.15388695444E+03  0.12509000000E+03 0.  0.
<mgrwt>
<rscale>  2 0.43752154E+03</rscale>
<asrwt>0</asrwt>
<pdfrwt beam="1">  1       21 0.39235043E-01 0.43752154E+03</pdfrwt>
<pdfrwt beam="2">  1       21 0.26378308E-01 0.43752154E+03</pdfrwt>
<totfact> 0.79744212E+04</totfact>
</mgrwt>
</event>
<event>
 7    0  0.4748297E-002  0.4588579E+03  0.7546771E-02  0.1025113E+00
         21   -1    0    0  502  501  0.00000000000E+00  0.00000000000E+00  0.33760254643E+02  0.33760254643E+02  0.00000000000E+00 0.  1.
         21   -1    0    0  501  502 -0.00000000000E+00 -0.00000000000E+00 -0.15591603900E+04  0.15591603900E+04  0.00000000000E+00 0.  1.
      99926    2    1    2    0    0 -0.17763568394E-14  0.00000000000E+00 -0.15254001354E+04  0.15929206447E+04  0.45885793791E+03 0.  0.
      99925    2    3    3    0    0 -0.74122976561E+01 -0.83258598655E+02 -0.67374330176E+03  0.72807741797E+03  0.26302044310E+03 0.  0.
         25    1    3    3    0    0  0.74122976561E+01  0.83258598655E+02 -0.85165683363E+03  0.86484322671E+03  0.12509000000E+03 0.  0.
         25    1    4    4    0    0  0.17239626764E+02 -0.15500261728E+02 -0.38072983940E+03  0.40142269686E+03  0.12509000000E+03 0.  0.
         25    1    4    4    0    0 -0.24651924420E+02 -0.67758336928E+02 -0.29301346236E+03  0.32665472111E+03  0.12509000000E+03 0.  0.
<mgrwt>
<rscale>  2 0.45885794E+03</rscale>
<asrwt>0</asrwt>
<pdfrwt beam="1">  1       21 0.49647436E-02 0.45885794E+03</pdfrwt>
<pdfrwt beam="2">  1       21 0.22928828E+00 0.45885794E+03</pdfrwt>
<totfact> 0.20955406E+04</totfact>
</mgrwt>
</event>
<event>
 7    0  0.4748297E-002  0.4607934E+03  0.7546771E-02  0.1024551E+00
         21   -1    0    0  502  501  0.00000000000E+00  0.00000000000E+00  0.29587620738E+03  0.29587620738E+03  0.00000000000E+00 0. -1.
         21   -1    0    0  501  502 -0.00000000000E+00 -0.00000000000E+00 -0.17940828106E+03  0.17940828106E+03  0.00000000000E+00 0. -1.
      99926    2    1    2    0    0  0.00000000000E+00  0.00000000000E+00  0.11646792631E+03  0.47528448844E+03  0.46079341043E+03 0.  0.
      99925    2    3    3    0    0  0.68280367987E+02  0.35753979476E+02 -0.19962010719E+02  0.27478214053E+03  0.26299465238E+03 0.  0.
         25    1    3    3    0    0 -0.68280367987E+02 -0.35753979476E+02  0.13642993703E+03  0.20050234791E+03  0.12509000000E+03 0.  0.
         25    1    4    4    0    0  0.25754782827E+02 -0.20420952434E+02 -0.22035957350E+02  0.13119990721E+03  0.12509000000E+03 0.  0.
         25    1    4    4    0    0  0.42525585160E+02  0.56174931910E+02  0.20739466310E+01  0.14358223331E+03  0.12509000000E+03 0.  0.
<mgrwt>
<rscale>  2 0.46079341E+03</rscale>
<asrwt>0</asrwt>
<pdfrwt beam="1">  1       21 0.43511207E-01 0.46079341E+03</pdfrwt>
<pdfrwt beam="2">  1       21 0.26383571E-01 0.46079341E+03</pdfrwt>
<totfact> 0.64049879E+04</totfact>
</mgrwt>
</event>
<event>
 7    0  0.4748297E-002  0.4513605E+03  0.7546771E-02  0.1027317E+00
         21   -1    0    0  502  501  0.00000000000E+00  0.00000000000E+00  0.13315600829E+03  0.13315600829E+03  0.00000000000E+00 0.  1.
         21   -1    0    0  501  502 -0.00000000000E+00 -0.00000000000E+00 -0.38249546853E+03  0.38249546853E+03  0.00000000000E+00 0.  1.
      99926    2    1    2    0    0  0.00000000000E+00  0.14210854715E-13 -0.24933946024E+03  0.51565147682E+03  0.45136047580E+03 0.  0.
      99925    2    3    3    0    0  0.80734917279E+02 -0.69361425186E+02 -0.12698998734E+03  0.31084416301E+03  0.26299905441E+03 0.  0.
         25    1    3    3    0    0 -0.80734917279E+02  0.69361425186E+02 -0.12234947290E+03  0.20480731381E+03  0.12509000000E+03 0.  0.
         25    1    4    4    0    0  0.57162109867E+02  0.23982007710E+01 -0.64277895541E+02  0.15183021480E+03  0.12509000000E+03 0.  0.
         25    1    4    4    0    0  0.23572807412E+02 -0.71759625957E+02 -0.62712091797E+02  0.15901394821E+03  0.12509000000E+03 0.  0.
<mgrwt>
<rscale>  2 0.45136048E+03</rscale>
<asrwt>0</asrwt>
<pdfrwt beam="1">  1       21 0.19581766E-01 0.45136048E+03</pdfrwt>
<pdfrwt beam="2">  1       21 0.56249334E-01 0.45136048E+03</pdfrwt>
<totfact> 0.66071969E+04</totfact>
</mgrwt>
</event>
<event>
 7    0  0.4748297E-002  0.4360819E+03  0.7546771E-02  0.1031956E+00
         21   -1    0    0  502  501  0.00000000000E+00  0.00000000000E+00  0.42685685107E+03  0.42685685107E+03  0.00000000000E+00 0. -1.
         21   -1    0    0  501  502 -0.00000000000E+00 -0.00000000000E+00 -0.11137660222E+03  0.11137660222E+03  0.00000000000E+00 0. -1.
      99926    2    1    2    0    0  0.00000000000E+00  0.00000000000E+00  0.31548024885E+03  0.53823345329E+03  0.43608194508E+03 0.  0.
      99925    2    3    3    0    0  0.59154566943E+02  0.41192714657E+02  0.12713256019E+03  0.30091834114E+03  0.26304573298E+03 0.  0.
         25    1    3    3    0    0 -0.59154566943E+02 -0.41192714657E+02  0.18834768866E+03  0.23731511215E+03  0.12509000000E+03 0.  0.
         25    1    4    4    0    0  0.24221637784E+02  0.33629890244E+02  0.21888671837E+02  0.13358248130E+03  0.12509000000E+03 0.  0.
         25    1    4    4    0    0  0.34932929159E+02  0.75628244129E+01  0.10524388836E+03  0.16733585984E+03  0.12509000000E+03 0.  0.
<mgrwt>
<rscale>  2 0.43608195E+03</rscale>
<asrwt>0</asrwt>
<pdfrwt beam="1">  1       21 0.62773066E-01 0.43608195E+03</pdfrwt>
<pdfrwt beam="2">  1       21 0.16378912E-01 0.43608195E+03</pdfrwt>
<totfact> 0.72978713E+04</totfact>
</mgrwt>
</event>
<event>
 7    0  0.4748297E-002  0.4483723E+03  0.7546771E-02  0.1028209E+00
         21   -1    0    0  502  501  0.00000000000E+00  0.00000000000E+00  0.23247903313E+03  0.23247903313E+03  0.00000000000E+00 0. -1.
         21   -1    0    0  501  502 -0.00000000000E+00 -0.00000000000E+00 -0.21618912975E+03  0.21618912975E+03  0.00000000000E+00 0. -1.
      99926    2    1    2    0    0  0.00000000000E+00  0.00000000000E+00  0.16289903380E+02  0.44866816287E+03  0.44837234462E+03 0.  0.
      99925    2    3    3    0    0  0.60501292598E+02 -0.85134052515E+02  0.32560445424E+02  0.28489865429E+03  0.26305673781E+03 0.  0.
         25    1    4    4    0    0  0.67480879885E+02 -0.46122648977E+02 -0.11041978058E+01  0.14943123921E+03  0.12509000000E+03 0.  0.
         25    1    3    3    0    0 -0.60501292598E+02  0.85134052515E+02 -0.16270542044E+02  0.16376950858E+03  0.12509000000E+03 0.  0.
         25    1    4    4    0    0 -0.69795872871E+01 -0.39011403538E+02  0.33664643230E+02  0.13546741508E+03  0.12509000000E+03 0.  0.
<mgrwt>
<rscale>  2 0.44837234E+03</rscale>
<asrwt>0</asrwt>
<pdfrwt beam="1">  1       21 0.34188093E-01 0.44837234E+03</pdfrwt>
<pdfrwt beam="2">  1       21 0.31792519E-01 0.44837234E+03</pdfrwt>
<totfact> 0.72785717E+04</totfact>
</mgrwt>
</event>
<event>
 7    0  0.4748297E-002  0.4313791E+03  0.7546771E-02  0.1033425E+00
         21   -1    0    0  502  501  0.00000000000E+00  0.00000000000E+00  0.98205676171E+02  0.98205676171E+02  0.00000000000E+00 0. -1.
         21   -1    0    0  501  502 -0.00000000000E+00 -0.00000000000E+00 -0.47371990745E+03  0.47371990745E+03  0.00000000000E+00 0. -1.
      99926    2    1    2    0    0  0.00000000000E+00  0.88817841970E-15 -0.37551423128E+03  0.57192558362E+03  0.43137910857E+03 0.  0.
      99925    2    3    3    0    0 -0.88553672261E+02 -0.67384200237E+01 -0.25193575488E+03  0.37493241850E+03  0.26308845410E+03 0.  0.
         25    1    4    4    0    0 -0.10097735652E+02  0.89897468181E+01 -0.86818920187E+02  0.15286534210E+03  0.12509000000E+03 0.  0.
         25    1    4    4    0    0 -0.78455936608E+02 -0.15728166842E+02 -0.16511683469E+03  0.22206707640E+03  0.12509000000E+03 0.  0.
         25    1    3    3    0    0  0.88553672261E+02  0.67384200237E+01 -0.12357847640E+03  0.19699316512E+03  0.12509000000E+03 0.  0.
<mgrwt>
<rscale>  2 0.43137911E+03</rscale>
<asrwt>0</asrwt>
<pdfrwt beam="1">  1       21 0.14442011E-01 0.43137911E+03</pdfrwt>
<pdfrwt beam="2">  1       21 0.69664693E-01 0.43137911E+03</pdfrwt>
<totfact> 0.73180214E+04</totfact>
</mgrwt>
</event>
<event>
 7    0  0.4748297E-002  0.4573639E+03  0.7546771E-02  0.1025549E+00
         21   -1    0    0  502  501  0.00000000000E+00  0.00000000000E+00  0.15854257216E+03  0.15854257216E+03  0.00000000000E+00 0.  1.
         21   -1    0    0  501  502 -0.00000000000E+00 -0.00000000000E+00 -0.32985098124E+03  0.32985098124E+03  0.00000000000E+00 0.  1.
      99926    2    1    2    0    0  0.00000000000E+00  0.00000000000E+00 -0.17130840908E+03  0.48839355339E+03  0.45736385075E+03 0.  0.
      99925    2    3    3    0    0  0.93017918414E+02  0.66829409172E+02 -0.12410996997E+03  0.31234326560E+03  0.26274803110E+03 0.  0.
         25    1    4    4    0    0  0.34728120341E+02  0.16737436600E+02 -0.20124137231E+02  0.13243365556E+03  0.12509000000E+03 0.  0.
         25    1    3    3    0    0 -0.93017918414E+02 -0.66829409172E+02 -0.47198439115E+02  0.17605028779E+03  0.12509000000E+03 0.  0.
         25    1    4    4    0    0  0.58289798072E+02  0.50091972572E+02 -0.10398583273E+03  0.17990961004E+03  0.12509000000E+03 0.  0.
<mgrwt>
<rscale>  2 0.45736385E+03</rscale>
<asrwt>0</asrwt>
<pdfrwt beam="1">  1       21 0.23315085E-01 0.45736385E+03</pdfrwt>
<pdfrwt beam="2">  1       21 0.48507496E-01 0.45736385E+03</pdfrwt>
<totfact> 0.64868144E+04</totfact>
</mgrwt>
</event>
<event>
 7    0  0.4748297E-002  0.4691178E+03  0.7546771E-02  0.1022170E+00
         21   -1    0    0  502  501  0.00000000000E+00  0.00000000000E+00  0.36738337266E+02  0.36738337266E+02  0.00000000000E+00 0. -1.
         21   -1    0    0  501  502 -0.00000000000E+00 -0.00000000000E+00 -0.14975601486E+04  0.14975601486E+04  0.00000000000E+00 0. -1.
      99926    2    1    2    0    0  0.14210854715E-13  0.00000000000E+00 -0.14608218114E+04  0.15342984859E+04  0.46911776695E+03 0.  0.
      99925    2    3    3    0    0  0.75436662810E+02  0.46333380175E+02 -0.12010413938E+04  0.12326847501E+04  0.26300910840E+03 0.  0.
         25    1    3    3    0    0 -0.75436662810E+02 -0.46333380175E+02 -0.25978041751E+03  0.30161373582E+03  0.12509000000E+03 0.  0.
         25    1    4    4    0    0  0.76419363913E+02  0.10524116642E+02 -0.67105139029E+03  0.68695571380E+03  0.12509000000E+03 0.  0.
         25    1    4    4    0    0 -0.98270110305E+00  0.35809263534E+02 -0.52999000355E+03  0.54572903626E+03  0.12509000000E+03 0.  0.
<mgrwt>
<rscale>  2 0.46911777E+03</rscale>
<asrwt>0</asrwt>
<pdfrwt beam="1">  1       21 0.54026980E-02 0.46911777E+03</pdfrwt>
<pdfrwt beam="2">  1       21 0.22022938E+00 0.46911777E+03</pdfrwt>
<totfact> 0.20598168E+04</totfact>
</mgrwt>
</event>
<event>
 7    0  0.4748297E-002  0.4736151E+03  0.7546771E-02  0.1020905E+00
         21   -1    0    0  502  501  0.00000000000E+00  0.00000000000E+00  0.31241782717E+03  0.31241782717E+03  0.00000000000E+00 0.  1.
         21   -1    0    0  501  502 -0.00000000000E+00 -0.00000000000E+00 -0.17949618481E+03  0.17949618481E+03  0.00000000000E+00 0.  1.
      99926    2    1    2    0    0  0.35527136788E-14 -0.14210854715E-13  0.13292164236E+03  0.49191401197E+03  0.47361506751E+03 0.  0.
      99925    2    3    3    0    0 -0.24556281480E+02 -0.10539121771E+03  0.15669482510E+03  0.32481227036E+03  0.26313385003E+03 0.  0.
         25    1    4    4    0    0  0.86843463991E+01 -0.82375972606E+02  0.10697892558E+03  0.18426398822E+03  0.12509000000E+03 0.  0.
         25    1    3    3    0    0  0.24556281480E+02  0.10539121771E+03 -0.23773182743E+02  0.16710174161E+03  0.12509000000E+03 0.  0.
         25    1    4    4    0    0 -0.33240627879E+02 -0.23015245108E+02  0.49715899519E+02  0.14054828215E+03  0.12509000000E+03 0.  0.
<mgrwt>
<rscale>  2 0.47361507E+03</rscale>
<asrwt>0</asrwt>
<pdfrwt beam="1">  1       21 0.45943798E-01 0.47361507E+03</pdfrwt>
<pdfrwt beam="2">  1       21 0.26396498E-01 0.47361507E+03</pdfrwt>
<totfact> 0.56950959E+04</totfact>
</mgrwt>
</event>
<event>
 7    0  0.4748297E-002  0.4566810E+03  0.7546771E-02  0.1025748E+00
         21   -1    0    0  502  501  0.00000000000E+00  0.00000000000E+00  0.13006718832E+04  0.13006718832E+04  0.00000000000E+00 0. -1.
         21   -1    0    0  501  502 -0.00000000000E+00 -0.00000000000E+00 -0.40086506899E+02  0.40086506899E+02  0.00000000000E+00 0. -1.
      99926    2    1    2    0    0  0.00000000000E+00  0.00000000000E+00  0.12605853763E+04  0.13407583901E+04  0.45668103714E+03 0.  0.
      99925    2    3    3    0    0  0.32842653494E+02 -0.10597271619E+03  0.70542415884E+03  0.76096502869E+03  0.26293663599E+03 0.  0.
         25    1    3    3    0    0 -0.32842653494E+02  0.10597271619E+03  0.55516121749E+03  0.57979336144E+03  0.12509000000E+03 0.  0.
         25    1    4    4    0    0  0.14119258724E+02 -0.48656539139E+02  0.45526875241E+03  0.47485151078E+03  0.12509000000E+03 0.  0.
         25    1    4    4    0    0  0.18723394769E+02 -0.57316177053E+02  0.25015540643E+03  0.28611351791E+03  0.12509000000E+03 0.  0.
<mgrwt>
<rscale>  2 0.45668104E+03</rscale>
<asrwt>0</asrwt>
<pdfrwt beam="1">  1       21 0.19127525E+00 0.45668104E+03</pdfrwt>
<pdfrwt beam="2">  1       21 0.58950754E-02 0.45668104E+03</pdfrwt>
<totfact> 0.27591254E+04</totfact>
</mgrwt>
</event>
<event>
 7    0  0.4748297E-002  0.4538476E+03  0.7546771E-02  0.1026581E+00
         21   -1    0    0  502  501  0.00000000000E+00  0.00000000000E+00  0.33597658413E+03  0.33597658413E+03  0.00000000000E+00 0.  1.
         21   -1    0    0  501  502 -0.00000000000E+00 -0.00000000000E+00 -0.15326785809E+03  0.15326785809E+03  0.00000000000E+00 0.  1.
      99926    2    1    2    0    0  0.71054273576E-14  0.00000000000E+00  0.18270872605E+03  0.48924444222E+03  0.45384760181E+03 0.  0.
      99925    2    3    3    0    0 -0.53187936598E+02 -0.72754572597E+02  0.18690389103E+03  0.33501314856E+03  0.26301817579E+03 0.  0.
         25    1    4    4    0    0 -0.31601051405E+02 -0.16387459797E+01  0.61546404112E+02  0.14295726598E+03  0.12509000000E+03 0.  0.
         25    1    3    3    0    0  0.53187936598E+02  0.72754572597E+02 -0.41951649793E+01  0.15423129366E+03  0.12509000000E+03 0.  0.
         25    1    4    4    0    0 -0.21586885193E+02 -0.71115826618E+02  0.12535748692E+03  0.19205588258E+03  0.12509000000E+03 0.  0.
<mgrwt>
<rscale>  2 0.45384760E+03</rscale>
<asrwt>0</asrwt>
<pdfrwt beam="1">  1       21 0.49408321E-01 0.45384760E+03</pdfrwt>
<pdfrwt beam="2">  1       21 0.22539391E-01 0.45384760E+03</pdfrwt>
<totfact> 0.66640659E+04</totfact>
</mgrwt>
</event>
<event>
 7    0  0.4748297E-002  0.4668161E+03  0.7546771E-02  0.1022823E+00
         21   -1    0    0  502  501  0.00000000000E+00  0.00000000000E+00  0.27387393419E+03  0.27387393419E+03  0.00000000000E+00 0. -1.
         21   -1    0    0  501  502 -0.00000000000E+00 -0.00000000000E+00 -0.19892112712E+03  0.19892112712E+03  0.00000000000E+00 0. -1.
      99926    2    1    2    0    0 -0.35527136788E-14 -0.14210854715E-13  0.74952807074E+02  0.47279506131E+03  0.46681607375E+03 0.  0.
      99925    2    3    3    0    0  0.16827372304E+02  0.11820578432E+03  0.80230329087E+02  0.29978891042E+03  0.26302227510E+03 0.  0.
         25    1    3    3    0    0 -0.16827372304E+02 -0.11820578432E+03 -0.52775220127E+01  0.17300615089E+03  0.12509000000E+03 0.  0.
         25    1    4    4    0    0  0.47772036541E+02  0.49246816368E+02  0.41828106249E+02  0.14867587219E+03  0.12509000000E+03 0.  0.
         25    1    4    4    0    0 -0.30944664237E+02  0.68958967956E+02  0.38402222838E+02  0.15111303824E+03  0.12509000000E+03 0.  0.
<mgrwt>
<rscale>  2 0.46681607E+03</rscale>
<asrwt>0</asrwt>
<pdfrwt beam="1">  1       21 0.40275578E-01 0.46681607E+03</pdfrwt>
<pdfrwt beam="2">  1       21 0.29253107E-01 0.46681607E+03</pdfrwt>
<totfact> 0.61274404E+04</totfact>
</mgrwt>
</event>
<event>
 7    0  0.4748297E-002  0.4556287E+03  0.7546771E-02  0.1026057E+00
         21   -1    0    0  502  501  0.00000000000E+00  0.00000000000E+00  0.16165723158E+04  0.16165723158E+04  0.00000000000E+00 0. -1.
         21   -1    0    0  501  502 -0.00000000000E+00 -0.00000000000E+00 -0.32104588399E+02  0.32104588399E+02  0.00000000000E+00 0. -1.
      99926    2    1    2    0    0  0.00000000000E+00 -0.71054273576E-14  0.15844677274E+04  0.16486769042E+04  0.45562874718E+03 0.  0.
      99925    2    3    3    0    0  0.72129336075E+02 -0.62377081603E+02  0.12214757303E+04  0.12530707371E+04  0.26284933113E+03 0.  0.
         25    1    4    4    0    0  0.77507962396E+02 -0.34920978125E+02  0.68403630215E+03  0.70055701389E+03  0.12509000000E+03 0.  0.
         25    1    3    3    0    0 -0.72129336075E+02  0.62377081603E+02  0.36299199702E+03  0.39560616708E+03  0.12509000000E+03 0.  0.
         25    1    4    4    0    0 -0.53786263216E+01 -0.27456103478E+02  0.53743942819E+03  0.55251372319E+03  0.12509000000E+03 0.  0.
<mgrwt>
<rscale>  2 0.45562875E+03</rscale>
<asrwt>0</asrwt>
<pdfrwt beam="1">  1       21 0.23773117E+00 0.45562875E+03</pdfrwt>
<pdfrwt beam="2">  1       21 0.47212641E-02 0.45562875E+03</pdfrwt>
<totfact> 0.20252773E+04</totfact>
</mgrwt>
</event>
<event>
 7    0  0.4748297E-002  0.4598046E+03  0.7546771E-02  0.1024838E+00
         21   -1    0    0  502  501  0.00000000000E+00  0.00000000000E+00  0.36934600055E+03  0.36934600055E+03  0.00000000000E+00 0.  1.
         21   -1    0    0  501  502 -0.00000000000E+00 -0.00000000000E+00 -0.14310447325E+03  0.14310447325E+03  0.00000000000E+00 0.  1.
      99926    2    1    2    0    0  0.00000000000E+00  0.00000000000E+00  0.22624152730E+03  0.51245047380E+03  0.45980458830E+03 0.  0.
      99925    2    3    3    0    0 -0.30372297037E+01 -0.80248710405E+02  0.46037234325E+02  0.27884787194E+03  0.26303541293E+03 0.  0.
         25    1    3    3    0    0  0.30372297037E+01  0.80248710405E+02  0.18020429298E+03  0.23360260186E+03  0.12509000000E+03 0.  0.
         25    1    4    4    0    0 -0.29025590145E+01 -0.82033879028E+02  0.31559925799E+02  0.15291016701E+03  0.12509000000E+03 0.  0.
         25    1    4    4    0    0 -0.13467068923E+00  0.17851686229E+01  0.14477308525E+02  0.12593770494E+03  0.12509000000E+03 0.  0.
<mgrwt>
<rscale>  2 0.45980459E+03</rscale>
<asrwt>0</asrwt>
<pdfrwt beam="1">  1       21 0.54315588E-01 0.45980459E+03</pdfrwt>
<pdfrwt beam="2">  1       21 0.21044775E-01 0.45980459E+03</pdfrwt>
<totfact> 0.62006233E+04</totfact>
</mgrwt>
</event>
<event>
 7    0  0.4748297E-002  0.4584693E+03  0.7546771E-02  0.1025226E+00
         21   -1    0    0  502  501  0.00000000000E+00  0.00000000000E+00  0.38053593201E+03  0.38053593201E+03  0.00000000000E+00 0.  1.
         21   -1    0    0  501  502 -0.00000000000E+00 -0.00000000000E+00 -0.13809086440E+03  0.13809086440E+03  0.00000000000E+00 0.  1.
      99926    2    1    2    0    0  0.14210854715E-13  0.00000000000E+00  0.24244506760E+03  0.51862679641E+03  0.45846934810E+03 0.  0.
      99925    2    3    3    0    0 -0.79614686001E+02  0.83214232319E+02  0.17140871282E+03  0.33435314531E+03  0.26296002028E+03 0.  0.
         25    1    3    3    0    0  0.79614686001E+02 -0.83214232319E+02  0.71036354783E+02  0.18427365110E+03  0.12509000000E+03 0.  0.
         25    1    4    4    0    0 -0.67561695282E+02  0.70655495490E+02  0.11499527487E+03  0.19603112777E+03  0.12509000000E+03 0.  0.
         25    1    4    4    0    0 -0.12052990719E+02  0.12558736829E+02  0.56413437948E+02  0.13832201754E+03  0.12509000000E+03 0.  0.
<mgrwt>
<rscale>  2 0.45846935E+03</rscale>
<asrwt>0</asrwt>
<pdfrwt beam="1">  1       21 0.55961166E-01 0.45846935E+03</pdfrwt>
<pdfrwt beam="2">  1       21 0.20307480E-01 0.45846935E+03</pdfrwt>
<totfact> 0.62249581E+04</totfact>
</mgrwt>
</event>
<event>
 7    0  0.4748297E-002  0.4537061E+03  0.7546771E-02  0.1026623E+00
         21   -1    0    0  502  501  0.00000000000E+00  0.00000000000E+00  0.78313343877E+02  0.78313343877E+02  0.00000000000E+00 0. -1.
         21   -1    0    0  501  502 -0.00000000000E+00 -0.00000000000E+00 -0.65713323994E+03  0.65713323994E+03  0.00000000000E+00 0. -1.
      99926    2    1    2    0    0  0.00000000000E+00  0.35527136788E-14 -0.57881989606E+03  0.73544658382E+03  0.45370607839E+03 0.  0.
      99925    2    3    3    0    0  0.20334654739E+02 -0.21467244870E+02 -0.53970379831E+03  0.60108915757E+03  0.26297080569E+03 0.  0.
         25    1    4    4    0    0 -0.27669604981E+02 -0.14311909665E+02 -0.29690245554E+03  0.32368041956E+03  0.12509000000E+03 0.  0.
         25    1    4    4    0    0  0.48004259720E+02 -0.71553352057E+01 -0.24280134277E+03  0.27740873801E+03  0.12509000000E+03 0.  0.
         25    1    3    3    0    0 -0.20334654739E+02  0.21467244870E+02 -0.39116097752E+02  0.13435742625E+03  0.12509000000E+03 0.  0.
<mgrwt>
<rscale>  2 0.45370608E+03</rscale>
<asrwt>0</asrwt>
<pdfrwt beam="1">  1       21 0.11516668E-01 0.45370608E+03</pdfrwt>
<pdfrwt beam="2">  1       21 0.96637245E-01 0.45370608E+03</pdfrwt>
<totfact> 0.51542712E+04</totfact>
</mgrwt>
</event>
<event>
 7    0  0.4748297E-002  0.4576287E+03  0.7546771E-02  0.1025471E+00
         21   -1    0    0  502  501  0.00000000000E+00  0.00000000000E+00  0.92985624298E+03  0.92985624298E+03  0.00000000000E+00 0. -1.
         21   -1    0    0  501  502 -0.00000000000E+00 -0.00000000000E+00 -0.56305486251E+02  0.56305486251E+02  0.00000000000E+00 0. -1.
      99926    2    1    2    0    0  0.14210854715E-13  0.71054273576E-14  0.87355075673E+03  0.98616172923E+03  0.45762870497E+03 0.  0.
      99925    2    3    3    0    0  0.87144665283E+02  0.58895183310E+02  0.65183885647E+03  0.71072296994E+03  0.26300268038E+03 0.  0.
         25    1    3    3    0    0 -0.87144665283E+02 -0.58895183310E+02  0.22171190026E+03  0.27543875929E+03  0.12509000000E+03 0.  0.
         25    1    4    4    0    0  0.43713652350E+02 -0.11789458633E+02  0.29583628019E+03  0.32437091040E+03  0.12509000000E+03 0.  0.
         25    1    4    4    0    0  0.43431012933E+02  0.70684641943E+02  0.35600257629E+03  0.38635205954E+03  0.12509000000E+03 0.  0.
<mgrwt>
<rscale>  2 0.45762870E+03</rscale>
<asrwt>0</asrwt>
<pdfrwt beam="1">  1       21 0.13674356E+00 0.45762870E+03</pdfrwt>
<pdfrwt beam="2">  1       21 0.82802192E-02 0.45762870E+03</pdfrwt>
<totfact> 0.38904254E+04</totfact>
</mgrwt>
</event>
<event>
 7    0  0.4748297E-002  0.4596984E+03  0.7546771E-02  0.1024869E+00
         21   -1    0    0  502  501  0.00000000000E+00  0.00000000000E+00  0.46204399700E+02  0.46204399700E+02  0.00000000000E+00 0. -1.
         21   -1    0    0  501  502 -0.00000000000E+00 -0.00000000000E+00 -0.11434118164E+04  0.11434118164E+04  0.00000000000E+00 0. -1.
      99926    2    1    2    0    0  0.00000000000E+00  0.00000000000E+00 -0.10972074167E+04  0.11896162161E+04  0.45969840802E+03 0.  0.
      99925    2    3    3    0    0  0.78143489554E+02  0.82582167248E+02 -0.76452549643E+03  0.81645272983E+03  0.26300115218E+03 0.  0.
         25    1    3    3    0    0 -0.78143489554E+02 -0.82582167248E+02 -0.33268192022E+03  0.37316348622E+03  0.12509000000E+03 0.  0.
         25    1    4    4    0    0  0.34607035734E+02  0.24217795501E+02 -0.26036891776E+03  0.29193086506E+03  0.12509000000E+03 0.  0.
         25    1    4    4    0    0  0.43536453819E+02  0.58364371747E+02 -0.50415657867E+03  0.52452186477E+03  0.12509000000E+03 0.  0.
<mgrwt>
<rscale>  2 0.45969841E+03</rscale>
<asrwt>0</asrwt>
<pdfrwt beam="1">  1       21 0.67947656E-02 0.45969841E+03</pdfrwt>
<pdfrwt beam="2">  1       21 0.16814877E+00 0.45969841E+03</pdfrwt>
<totfact> 0.31324395E+04</totfact>
</mgrwt>
</event>
<event>
 7    0  0.4748297E-002  0.4565230E+03  0.7546771E-02  0.1025794E+00
         21   -1    0    0  502  501  0.00000000000E+00  0.00000000000E+00  0.63455244775E+03  0.63455244775E+03  0.00000000000E+00 0. -1.
         21   -1    0    0  501  502 -0.00000000000E+00 -0.00000000000E+00 -0.82110320741E+02  0.82110320741E+02  0.00000000000E+00 0. -1.
      99926    2    1    2    0    0  0.00000000000E+00  0.00000000000E+00  0.55244212701E+03  0.71666276850E+03  0.45652296771E+03 0.  0.
      99925    2    3    3    0    0  0.72453512265E+02  0.58463378906E+02  0.24310294943E+03  0.37024436108E+03  0.26327621384E+03 0.  0.
         25    1    3    3    0    0 -0.72453512265E+02 -0.58463378906E+02  0.30933917758E+03  0.34641840742E+03  0.12509000000E+03 0.  0.
         25    1    4    4    0    0 -0.10674420118E+01  0.40837289636E+02  0.13436679802E+03  0.18807117846E+03  0.12509000000E+03 0.  0.
         25    1    4    4    0    0  0.73520954276E+02  0.17626089269E+02  0.10873615141E+03  0.18217318261E+03  0.12509000000E+03 0.  0.
<mgrwt>
<rscale>  2 0.45652297E+03</rscale>
<asrwt>0</asrwt>
<pdfrwt beam="1">  1       21 0.93316534E-01 0.45652297E+03</pdfrwt>
<pdfrwt beam="2">  1       21 0.12075047E-01 0.45652297E+03</pdfrwt>
<totfact> 0.51389209E+04</totfact>
</mgrwt>
</event>
<event>
 7    0  0.4748297E-002  0.4536081E+03  0.7546771E-02  0.1026652E+00
         21   -1    0    0  502  501  0.00000000000E+00  0.00000000000E+00  0.11542747641E+03  0.11542747641E+03  0.00000000000E+00 0. -1.
         21   -1    0    0  501  502 -0.00000000000E+00 -0.00000000000E+00 -0.44564850016E+03  0.44564850016E+03  0.00000000000E+00 0. -1.
      99926    2    1    2    0    0  0.00000000000E+00 -0.35527136788E-14 -0.33022102374E+03  0.56107597657E+03  0.45360812047E+03 0.  0.
      99925    2    3    3    0    0  0.75466228086E+02  0.28355340341E+02 -0.11218658150E+03  0.29709547916E+03  0.26302227617E+03 0.  0.
         25    1    4    4    0    0  0.23050232265E+02  0.49411099649E+02 -0.70850993848E+02  0.15375350859E+03  0.12509000000E+03 0.  0.
         25    1    4    4    0    0  0.52415995821E+02 -0.21055759308E+02 -0.41335587648E+02  0.14334197056E+03  0.12509000000E+03 0.  0.
         25    1    3    3    0    0 -0.75466228086E+02 -0.28355340341E+02 -0.21803444225E+03  0.26398049741E+03  0.12509000000E+03 0.  0.
<mgrwt>
<rscale>  2 0.45360812E+03</rscale>
<asrwt>0</asrwt>
<pdfrwt beam="1">  1       21 0.16974629E-01 0.45360812E+03</pdfrwt>
<pdfrwt beam="2">  1       21 0.65536543E-01 0.45360812E+03</pdfrwt>
<totfact> 0.61818250E+04</totfact>
</mgrwt>
</event>
<event>
 7    0  0.4748297E-002  0.4455702E+03  0.7546771E-02  0.1029051E+00
         21   -1    0    0  502  501  0.00000000000E+00  0.00000000000E+00  0.46699310024E+03  0.46699310024E+03  0.00000000000E+00 0. -1.
         21   -1    0    0  501  502 -0.00000000000E+00 -0.00000000000E+00 -0.10628252606E+03  0.10628252606E+03  0.00000000000E+00 0. -1.
      99926    2    1    2    0    0  0.88817841970E-15  0.00000000000E+00  0.36071057418E+03  0.57327562630E+03  0.44557022497E+03 0.  0.
      99925    2    3    3    0    0 -0.47824752173E+01 -0.79212102867E+02  0.31548330041E+03  0.41838713834E+03  0.26309818581E+03 0.  0.
         25    1    3    3    0    0  0.47824752173E+01  0.79212102867E+02  0.45227273772E+02  0.15488848796E+03  0.12509000000E+03 0.  0.
         25    1    4    4    0    0 -0.97370409617E+00 -0.21980803682E+02  0.95506593158E+02  0.15891230685E+03  0.12509000000E+03 0.  0.
         25    1    4    4    0    0 -0.38087711212E+01 -0.57231299186E+02  0.21997670725E+03  0.25947483149E+03  0.12509000000E+03 0.  0.
<mgrwt>
<rscale>  2 0.44557022E+03</rscale>
<asrwt>0</asrwt>
<pdfrwt beam="1">  1       21 0.68675455E-01 0.44557022E+03</pdfrwt>
<pdfrwt beam="2">  1       21 0.15629784E-01 0.44557022E+03</pdfrwt>
<totfact> 0.65071904E+04</totfact>
</mgrwt>
</event>
<event>
 7    0  0.4748297E-002  0.4546707E+03  0.7546771E-02  0.1026338E+00
         21   -1    0    0  502  501  0.00000000000E+00  0.00000000000E+00  0.33612268394E+03  0.33612268394E+03  0.00000000000E+00 0.  1.
         21   -1    0    0  501  502 -0.00000000000E+00 -0.00000000000E+00 -0.15375740132E+03  0.15375740132E+03  0.00000000000E+00 0.  1.
      99926    2    1    2    0    0  0.00000000000E+00  0.00000000000E+00  0.18236528262E+03  0.48988008526E+03  0.45467065182E+03 0.  0.
      99925    2    3    3    0    0  0.90891654371E+02 -0.42852724723E+02  0.17023456204E+03  0.32896920516E+03  0.26295110379E+03 0.  0.
         25    1    4    4    0    0  0.65419221784E+02 -0.10620282123E+02  0.12757859600E+03  0.19056828495E+03  0.12509000000E+03 0.  0.
         25    1    3    3    0    0 -0.90891654371E+02  0.42852724723E+02  0.12130720581E+02  0.16091088009E+03  0.12509000000E+03 0.  0.
         25    1    4    4    0    0  0.25472432586E+02 -0.32232442600E+02  0.42655966038E+02  0.13840092022E+03  0.12509000000E+03 0.  0.
<mgrwt>
<rscale>  2 0.45467065E+03</rscale>
<asrwt>0</asrwt>
<pdfrwt beam="1">  1       21 0.49429806E-01 0.45467065E+03</pdfrwt>
<pdfrwt beam="2">  1       21 0.22611383E-01 0.45467065E+03</pdfrwt>
<totfact> 0.66160442E+04</totfact>
</mgrwt>
</event>
<event>
 7    0  0.4748297E-002  0.4426628E+03  0.7546771E-02  0.1029933E+00
         21   -1    0    0  502  501  0.00000000000E+00  0.00000000000E+00  0.33526322551E+03  0.33526322551E+03  0.00000000000E+00 0. -1.
         21   -1    0    0  501  502 -0.00000000000E+00 -0.00000000000E+00 -0.14611676836E+03  0.14611676836E+03  0.00000000000E+00 0. -1.
      99926    2    1    2    0    0  0.17763568394E-14  0.00000000000E+00  0.18914645715E+03  0.48137999388E+03  0.44266275679E+03 0.  0.
      99925    2    3    3    0    0 -0.13273357534E+02 -0.78167145292E+02  0.18881794858E+03  0.33327901265E+03  0.26293801159E+03 0.  0.
         25    1    3    3    0    0  0.13273357534E+02  0.78167145292E+02  0.32850856886E+00  0.14810098123E+03  0.12509000000E+03 0.  0.
         25    1    4    4    0    0  0.17945279927E+02 -0.51766314931E+01  0.86538834007E+02  0.15324917121E+03  0.12509000000E+03 0.  0.
         25    1    4    4    0    0 -0.31218637461E+02 -0.72990513799E+02  0.10227911457E+03  0.18002984144E+03  0.12509000000E+03 0.  0.
<mgrwt>
<rscale>  2 0.44266276E+03</rscale>
<asrwt>0</asrwt>
<pdfrwt beam="1">  1       21 0.49303416E-01 0.44266276E+03</pdfrwt>
<pdfrwt beam="2">  1       21 0.21487760E-01 0.44266276E+03</pdfrwt>
<totfact> 0.73542920E+04</totfact>
</mgrwt>
</event>
<event>
 7    0  0.4748297E-002  0.4545159E+03  0.7546771E-02  0.1026384E+00
         21   -1    0    0  502  501  0.00000000000E+00  0.00000000000E+00  0.22219846237E+03  0.22219846237E+03  0.00000000000E+00 0. -1.
         21   -1    0    0  501  502 -0.00000000000E+00 -0.00000000000E+00 -0.23243267265E+03  0.23243267265E+03  0.00000000000E+00 0. -1.
      99926    2    1    2    0    0  0.00000000000E+00  0.00000000000E+00 -0.10234210279E+02  0.45463113502E+03  0.45451592917E+03 0.  0.
      99925    2    3    3    0    0  0.18928210834E+02  0.81470683141E+02  0.68935988938E+02  0.28459826196E+03  0.26315062372E+03 0.  0.
         25    1    4    4    0    0  0.32010281041E+02  0.46900838414E+02  0.66794175000E+00  0.13737649356E+03  0.12509000000E+03 0.  0.
         25    1    3    3    0    0 -0.18928210834E+02 -0.81470683141E+02 -0.79170199217E+02  0.17003287306E+03  0.12509000000E+03 0.  0.
         25    1    4    4    0    0 -0.13082070207E+02  0.34569844727E+02  0.68268047188E+02  0.14722176840E+03  0.12509000000E+03 0.  0.
<mgrwt>
<rscale>  2 0.45451593E+03</rscale>
<asrwt>0</asrwt>
<pdfrwt beam="1">  1       21 0.32676245E-01 0.45451593E+03</pdfrwt>
<pdfrwt beam="2">  1       21 0.34181275E-01 0.45451593E+03</pdfrwt>
<totfact> 0.68838324E+04</totfact>
</mgrwt>
</event>
<event>
 7    0  0.4748297E-002  0.4568377E+03  0.7546771E-02  0.1025702E+00
         21   -1    0    0  502  501  0.00000000000E+00  0.00000000000E+00  0.94552506006E+02  0.94552506006E+02  0.00000000000E+00 0.  1.
         21   -1    0    0  501  502 -0.00000000000E+00 -0.00000000000E+00 -0.55181173530E+03  0.55181173530E+03  0.00000000000E+00 0.  1.
      99926    2    1    2    0    0  0.00000000000E+00  0.00000000000E+00 -0.45725922929E+03  0.64636424130E+03  0.45683774982E+03 0.  0.
      99925    2    3    3    0    0 -0.22712803653E+02 -0.10446453373E+03 -0.34666574053E+03  0.44810396260E+03  0.26304242126E+03 0.  0.
         25    1    4    4    0    0 -0.42094399764E+02 -0.79199506087E+02 -0.20654881841E+03  0.25759352232E+03  0.12509000000E+03 0.  0.
         25    1    3    3    0    0  0.22712803653E+02  0.10446453373E+03 -0.11059348876E+03  0.19826027870E+03  0.12509000000E+03 0.  0.
         25    1    4    4    0    0  0.19381596111E+02 -0.25265027639E+02 -0.14011692213E+03  0.19051044028E+03  0.12509000000E+03 0.  0.
<mgrwt>
<rscale>  2 0.45683775E+03</rscale>
<asrwt>0</asrwt>
<pdfrwt beam="1">  1       21 0.13904780E-01 0.45683775E+03</pdfrwt>
<pdfrwt beam="2">  1       21 0.81148786E-01 0.45683775E+03</pdfrwt>
<totfact> 0.55108013E+04</totfact>
</mgrwt>
</event>
<event>
 7    0  0.4748297E-002  0.4569183E+03  0.7546771E-02  0.1025679E+00
         21   -1    0    0  502  501  0.00000000000E+00  0.00000000000E+00  0.17813002173E+03  0.17813002173E+03  0.00000000000E+00 0. -1.
         21   -1    0    0  501  502 -0.00000000000E+00 -0.00000000000E+00 -0.29300831750E+03  0.29300831750E+03  0.00000000000E+00 0. -1.
      99926    2    1    2    0    0  0.00000000000E+00  0.71054273576E-14 -0.11487829576E+03  0.47113833923E+03  0.45691827700E+03 0.  0.
      99925    2    3    3    0    0 -0.75494822997E+02  0.48036877615E+02 -0.14673645686E+03  0.31407319211E+03  0.26287520294E+03 0.  0.
         25    1    4    4    0    0 -0.46890403876E+02 -0.14737267876E+02 -0.79938738928E+02  0.15637649159E+03  0.12509000000E+03 0.  0.
         25    1    3    3    0    0  0.75494822997E+02 -0.48036877615E+02  0.31858161099E+02  0.15706514712E+03  0.12509000000E+03 0.  0.
         25    1    4    4    0    0 -0.28604419121E+02  0.62774145490E+02 -0.66797717935E+02  0.15769670053E+03  0.12509000000E+03 0.  0.
<mgrwt>
<rscale>  2 0.45691828E+03</rscale>
<asrwt>0</asrwt>
<pdfrwt beam="1">  1       21 0.26195592E-01 0.45691828E+03</pdfrwt>
<pdfrwt beam="2">  1       21 0.43089458E-01 0.45691828E+03</pdfrwt>
<totfact> 0.66335925E+04</totfact>
</mgrwt>
</event>
<event>
 7    0  0.4748297E-002  0.4560541E+03  0.7546771E-02  0.1025932E+00
         21   -1    0    0  502  501  0.00000000000E+00  0.00000000000E+00  0.17634502486E+03  0.17634502486E+03  0.00000000000E+00 0. -1.
         21   -1    0    0  501  502 -0.00000000000E+00 -0.00000000000E+00 -0.29485573446E+03  0.29485573446E+03  0.00000000000E+00 0. -1.
      99926    2    1    2    0    0  0.00000000000E+00  0.00000000000E+00 -0.11851070960E+03  0.47120075933E+03  0.45605412760E+03 0.  0.
      99925    2    3    3    0    0  0.31403776664E+02  0.10733461401E+03 -0.98263521976E+02  0.30219077956E+03  0.26297648364E+03 0.  0.
         25    1    4    4    0    0  0.22460507634E+02  0.34386382638E+02 -0.92645428565E+01  0.13198574760E+03  0.12509000000E+03 0.  0.
         25    1    4    4    0    0  0.89432690302E+01  0.72948231374E+02 -0.88998979119E+02  0.17020503196E+03  0.12509000000E+03 0.  0.
         25    1    3    3    0    0 -0.31403776664E+02 -0.10733461401E+03 -0.20247187624E+02  0.16900997977E+03  0.12509000000E+03 0.  0.
<mgrwt>
<rscale>  2 0.45605413E+03</rscale>
<asrwt>0</asrwt>
<pdfrwt beam="1">  1       21 0.25933092E-01 0.45605413E+03</pdfrwt>
<pdfrwt beam="2">  1       21 0.43361137E-01 0.45605413E+03</pdfrwt>
<totfact> 0.66786255E+04</totfact>
</mgrwt>
</event>
<event>
 7    0  0.4748297E-002  0.4559446E+03  0.7546771E-02  0.1025964E+00
         21   -1    0    0  502  501  0.00000000000E+00  0.00000000000E+00  0.36990600508E+02  0.36990600508E+02  0.00000000000E+00 0.  1.
         21   -1    0    0  501  502 -0.00000000000E+00 -0.00000000000E+00 -0.14049886473E+04  0.14049886473E+04  0.00000000000E+00 0.  1.
      99926    2    1    2    0    0  0.14210854715E-13  0.00000000000E+00 -0.13679980468E+04  0.14419792479E+04  0.45594461845E+03 0.  0.
      99925    2    3    3    0    0  0.85636848035E+02  0.63740197282E+02 -0.98843718616E+03  0.10283242738E+04  0.26276654779E+03 0.  0.
         25    1    4    4    0    0  0.14431895952E+02  0.40713871867E+02 -0.57210427460E+03  0.58721095707E+03  0.12509000000E+03 0.  0.
         25    1    3    3    0    0 -0.85636848035E+02 -0.63740197282E+02 -0.37956086068E+03  0.41365497404E+03  0.12509000000E+03 0.  0.
         25    1    4    4    0    0  0.71204952084E+02  0.23026325415E+02 -0.41633291156E+03  0.44111331675E+03  0.12509000000E+03 0.  0.
<mgrwt>
<rscale>  2 0.45594462E+03</rscale>
<asrwt>0</asrwt>
<pdfrwt beam="1">  1       21 0.54397939E-02 0.45594462E+03</pdfrwt>
<pdfrwt beam="2">  1       21 0.20661599E+00 0.45594462E+03</pdfrwt>
<totfact> 0.25050135E+04</totfact>
</mgrwt>
</event>
<event>
 7    0  0.4748297E-002  0.4523300E+03  0.7546771E-02  0.1027029E+00
         21   -1    0    0  502  501  0.00000000000E+00  0.00000000000E+00  0.58476017551E+03  0.58476017551E+03  0.00000000000E+00 0.  1.
         21   -1    0    0  501  502 -0.00000000000E+00 -0.00000000000E+00 -0.87472803325E+02  0.87472803325E+02  0.00000000000E+00 0.  1.
      99926    2    1    2    0    0  0.00000000000E+00  0.35527136788E-14  0.49728737218E+03  0.67223297883E+03  0.45233002034E+03 0.  0.
      99925    2    3    3    0    0 -0.10596373924E+03 -0.21212163945E+02  0.34850320270E+03  0.44983129916E+03  0.26308828457E+03 0.  0.
         25    1    3    3    0    0  0.10596373924E+03  0.21212163945E+02  0.14878416948E+03  0.22240167968E+03  0.12509000000E+03 0.  0.
         25    1    4    4    0    0 -0.32979698152E+02 -0.45238299401E+02  0.15408758941E+03  0.20621507591E+03  0.12509000000E+03 0.  0.
         25    1    4    4    0    0 -0.72984041089E+02  0.24026135456E+02  0.19441561328E+03  0.24361622324E+03  0.12509000000E+03 0.  0.
<mgrwt>
<rscale>  2 0.45233002E+03</rscale>
<asrwt>0</asrwt>
<pdfrwt beam="1">  1       21 0.85994142E-01 0.45233002E+03</pdfrwt>
<pdfrwt beam="2">  1       21 0.12863648E-01 0.45233002E+03</pdfrwt>
<totfact> 0.55597421E+04</totfact>
</mgrwt>
</event>
<event>
 7    0  0.4748297E-002  0.4473922E+03  0.7546771E-02  0.1028503E+00
         21   -1    0    0  502  501  0.00000000000E+00  0.00000000000E+00  0.14444715631E+03  0.14444715631E+03  0.00000000000E+00 0. -1.
         21   -1    0    0  501  502 -0.00000000000E+00 -0.00000000000E+00 -0.34642389168E+03  0.34642389168E+03  0.00000000000E+00 0. -1.
      99926    2    1    2    0    0  0.00000000000E+00  0.00000000000E+00 -0.20197673537E+03  0.49087104799E+03  0.44739220391E+03 0.  0.
      99925    2    3    3    0    0  0.25113413725E+02  0.71628219029E+02 -0.20854205599E+03  0.34440638725E+03  0.26337176226E+03 0.  0.
         25    1    4    4    0    0 -0.28639401668E+02  0.37923402515E+02 -0.99837891946E+02  0.16695362396E+03  0.12509000000E+03 0.  0.
         25    1    3    3    0    0 -0.25113413725E+02 -0.71628219029E+02  0.65653206166E+01  0.14646466074E+03  0.12509000000E+03 0.  0.
         25    1    4    4    0    0  0.53752815392E+02  0.33704816514E+02 -0.10870416404E+03  0.17745276329E+03  0.12509000000E+03 0.  0.
<mgrwt>
<rscale>  2 0.44739220E+03</rscale>
<asrwt>0</asrwt>
<pdfrwt beam="1">  1       21 0.21242229E-01 0.44739220E+03</pdfrwt>
<pdfrwt beam="2">  1       21 0.50944690E-01 0.44739220E+03</pdfrwt>
<totfact> 0.70053057E+04</totfact>
</mgrwt>
</event>
<event>
 7    0  0.4748297E-002  0.4515898E+03  0.7546771E-02  0.1027249E+00
         21   -1    0    0  502  501  0.00000000000E+00  0.00000000000E+00  0.57111718508E+03  0.57111718508E+03  0.00000000000E+00 0.  1.
         21   -1    0    0  501  502 -0.00000000000E+00 -0.00000000000E+00 -0.89269490370E+02  0.89269490370E+02  0.00000000000E+00 0.  1.
      99926    2    1    2    0    0 -0.14210854715E-13  0.71054273576E-14  0.48184769471E+03  0.66038667545E+03  0.45158981412E+03 0.  0.
      99925    2    3    3    0    0  0.84574844074E+02 -0.44655970036E+02  0.38352515052E+03  0.47474753436E+03  0.26295744977E+03 0.  0.
         25    1    4    4    0    0  0.72396152111E+02 -0.51717874828E+02  0.22370216948E+03  0.27130446025E+03  0.12509000000E+03 0.  0.
         25    1    3    3    0    0 -0.84574844074E+02  0.44655970036E+02  0.98322544197E+02  0.18563914110E+03  0.12509000000E+03 0.  0.
         25    1    4    4    0    0  0.12178691963E+02  0.70619047914E+01  0.15982298103E+03  0.20344307411E+03  0.12509000000E+03 0.  0.
<mgrwt>
<rscale>  2 0.45158981E+03</rscale>
<asrwt>0</asrwt>
<pdfrwt beam="1">  1       21 0.83987820E-01 0.45158981E+03</pdfrwt>
<pdfrwt beam="2">  1       21 0.13127866E-01 0.45158981E+03</pdfrwt>
<totfact> 0.56613635E+04</totfact>
</mgrwt>
</event>
<event>
 7    0  0.4748297E-002  0.4367686E+03  0.7546771E-02  0.1031743E+00
         21   -1    0    0  502  501  0.00000000000E+00  0.00000000000E+00  0.27699954968E+02  0.27699954968E+02  0.00000000000E+00 0. -1.
         21   -1    0    0  501  502 -0.00000000000E+00 -0.00000000000E+00 -0.17217247906E+04  0.17217247906E+04  0.00000000000E+00 0. -1.
      99926    2    1    2    0    0  0.00000000000E+00  0.00000000000E+00 -0.16940248356E+04  0.17494247456E+04  0.43676858480E+03 0.  0.
      99925    2    3    3    0    0 -0.22253250284E+02 -0.91232386003E+02 -0.11151024497E+04  0.11497438367E+04  0.26389176066E+03 0.  0.
         25    1    4    4    0    0  0.11975238090E+02 -0.67014696564E+02 -0.46211176284E+03  0.48355885406E+03  0.12509000000E+03 0.  0.
         25    1    4    4    0    0 -0.34228488374E+02 -0.24217689439E+02 -0.65299068686E+03  0.66618498266E+03  0.12509000000E+03 0.  0.
         25    1    3    3    0    0  0.22253250284E+02  0.91232386003E+02 -0.57892238593E+03  0.59968090885E+03  0.12509000000E+03 0.  0.
<mgrwt>
<rscale>  2 0.43676858E+03</rscale>
<asrwt>0</asrwt>
<pdfrwt beam="1">  1       21 0.40735221E-02 0.43676858E+03</pdfrwt>
<pdfrwt beam="2">  1       21 0.25319487E+00 0.43676858E+03</pdfrwt>
<totfact> 0.21080990E+04</totfact>
</mgrwt>
</event>
<event>
 7    0  0.4748297E-002  0.4375413E+03  0.7546771E-02  0.1031504E+00
         21   -1    0    0  502  501  0.00000000000E+00  0.00000000000E+00  0.85780719328E+03  0.85780719328E+03  0.00000000000E+00 0.  1.
         21   -1    0    0  501  502 -0.00000000000E+00 -0.00000000000E+00 -0.55794131122E+02  0.55794131122E+02  0.00000000000E+00 0.  1.
      99926    2    1    2    0    0 -0.35527136788E-14 -0.35527136788E-14  0.80201306216E+03  0.91360132441E+03  0.43754134442E+03 0.  0.
      99925    2    3    3    0    0  0.28066871280E+02 -0.22434456710E+02  0.32687481319E+03  0.42096056498E+03  0.26281095803E+03 0.  0.
         25    1    4    4    0    0  0.32284657865E+02 -0.30153904363E+02  0.11911712308E+03  0.17829176704E+03  0.12509000000E+03 0.  0.
         25    1    4    4    0    0 -0.42177865847E+01  0.77194476528E+01  0.20775769011E+03  0.24266879794E+03  0.12509000000E+03 0.  0.
         25    1    3    3    0    0 -0.28066871280E+02  0.22434456710E+02  0.47513824898E+03  0.49264075943E+03  0.12509000000E+03 0.  0.
<mgrwt>
<rscale>  2 0.43754134E+03</rscale>
<asrwt>0</asrwt>
<pdfrwt beam="1">  1       21 0.12614811E+00 0.43754134E+03</pdfrwt>
<pdfrwt beam="2">  1       21 0.82050198E-02 0.43754134E+03</pdfrwt>
<totfact> 0.49009987E+04</totfact>
</mgrwt>
</event>
<event>
 7    0  0.4748297E-002  0.4498780E+03  0.7546771E-02  0.1027758E+00
         21   -1    0    0  502  501  0.00000000000E+00  0.00000000000E+00  0.17500125802E+03  0.17500125802E+03  0.00000000000E+00 0.  1.
         21   -1    0    0  501  502 -0.00000000000E+00 -0.00000000000E+00 -0.28912680879E+03  0.28912680879E+03  0.00000000000E+00 0.  1.
      99926    2    1    2    0    0  0.26645352591E-14  0.00000000000E+00 -0.11412555077E+03  0.46412806681E+03  0.44987800687E+03 0.  0.
      99925    2    3    3    0    0 -0.53967224496E+01 -0.10760262858E+03 -0.80923288544E+02  0.29573166362E+03  0.26325118794E+03 0.  0.
         25    1    4    4    0    0 -0.33156538718E+02 -0.72577163740E+02 -0.64861593102E+02  0.16193003154E+03  0.12509000000E+03 0.  0.
         25    1    3    3    0    0  0.53967224496E+01  0.10760262858E+03 -0.33202262227E+02  0.16839640319E+03  0.12509000000E+03 0.  0.
         25    1    4    4    0    0  0.27759816269E+02 -0.35025464839E+02 -0.16061695442E+02  0.13380163208E+03  0.12509000000E+03 0.  0.
<mgrwt>
<rscale>  2 0.44987801E+03</rscale>
<asrwt>0</asrwt>
<pdfrwt beam="1">  1       21 0.25735480E-01 0.44987801E+03</pdfrwt>
<pdfrwt beam="2">  1       21 0.42518648E-01 0.44987801E+03</pdfrwt>
<totfact> 0.70704361E+04</totfact>
</mgrwt>
</event>
<event>
 7    0  0.4748297E-002  0.4484233E+03  0.7546771E-02  0.1028193E+00
         21   -1    0    0  502  501  0.00000000000E+00  0.00000000000E+00  0.32062324708E+03  0.32062324708E+03  0.00000000000E+00 0.  1.
         21   -1    0    0  501  502 -0.00000000000E+00 -0.00000000000E+00 -0.15679107754E+03  0.15679107754E+03  0.00000000000E+00 0.  1.
      99926    2    1    2    0    0  0.00000000000E+00  0.14210854715E-13  0.16383216954E+03  0.47741432462E+03  0.44842330177E+03 0.  0.
      99925    2    3    3    0    0 -0.83275777859E+02  0.64266067730E+02  0.12385690321E+03  0.30915704347E+03  0.26300677257E+03 0.  0.
         25    1    4    4    0    0 -0.55503859819E+02  0.26437907867E+02  0.21892610909E+02  0.14109016954E+03  0.12509000000E+03 0.  0.
         25    1    4    4    0    0 -0.27771918041E+02  0.37828159863E+02  0.10196429230E+03  0.16806687394E+03  0.12509000000E+03 0.  0.
         25    1    3    3    0    0  0.83275777859E+02 -0.64266067730E+02  0.39975266328E+02  0.16825728114E+03  0.12509000000E+03 0.  0.
<mgrwt>
<rscale>  2 0.44842330E+03</rscale>
<asrwt>0</asrwt>
<pdfrwt beam="1">  1       21 0.47150477E-01 0.44842330E+03</pdfrwt>
<pdfrwt beam="2">  1       21 0.23057511E-01 0.44842330E+03</pdfrwt>
<totfact> 0.70497799E+04</totfact>
</mgrwt>
</event>
<event>
 7    0  0.4748297E-002  0.4549013E+03  0.7546771E-02  0.1026270E+00
         21   -1    0    0  502  501  0.00000000000E+00  0.00000000000E+00  0.55716343130E+03  0.55716343130E+03  0.00000000000E+00 0. -1.
         21   -1    0    0  501  502 -0.00000000000E+00 -0.00000000000E+00 -0.92852111469E+02  0.92852111469E+02  0.00000000000E+00 0. -1.
      99926    2    1    2    0    0 -0.71054273576E-14  0.00000000000E+00  0.46431131983E+03  0.65001554277E+03  0.45490131250E+03 0.  0.
      99925    2    3    3    0    0 -0.60341163811E+02  0.31618251938E+01  0.42879035446E+03  0.50662690909E+03  0.26298023451E+03 0.  0.
         25    1    4    4    0    0 -0.29187534089E+01 -0.16487986387E+02  0.25085157948E+03  0.28081024882E+03  0.12509000000E+03 0.  0.
         25    1    3    3    0    0  0.60341163811E+02 -0.31618251938E+01  0.35520965375E+02  0.14338863368E+03  0.12509000000E+03 0.  0.
         25    1    4    4    0    0 -0.57422410402E+02  0.19649811581E+02  0.17793877498E+03  0.22581666026E+03  0.12509000000E+03 0.  0.
<mgrwt>
<rscale>  2 0.45490131E+03</rscale>
<asrwt>0</asrwt>
<pdfrwt beam="1">  1       21 0.81935798E-01 0.45490131E+03</pdfrwt>
<pdfrwt beam="2">  1       21 0.13654722E-01 0.45490131E+03</pdfrwt>
<totfact> 0.55743982E+04</totfact>
</mgrwt>
</event>
<event>
 7    0  0.4748297E-002  0.4612007E+03  0.7546771E-02  0.1024434E+00
         21   -1    0    0  502  501  0.00000000000E+00  0.00000000000E+00  0.15492617623E+03  0.15492617623E+03  0.00000000000E+00 0.  1.
         21   -1    0    0  501  502 -0.00000000000E+00 -0.00000000000E+00 -0.34323779084E+03  0.34323779084E+03  0.00000000000E+00 0.  1.
      99926    2    1    2    0    0  0.00000000000E+00  0.00000000000E+00 -0.18831161461E+03  0.49816396707E+03  0.46120068722E+03 0.  0.
      99925    2    3    3    0    0  0.88221473925E+02 -0.79605099315E+02 -0.11068583990E+03  0.30897287505E+03  0.26285524926E+03 0.  0.
         25    1    3    3    0    0 -0.88221473925E+02  0.79605099315E+02 -0.77625774713E+02  0.18919109202E+03  0.12509000000E+03 0.  0.
         25    1    4    4    0    0  0.70716494362E+02 -0.41609511301E+02 -0.92342945680E+02  0.17580358848E+03  0.12509000000E+03 0.  0.
         25    1    4    4    0    0  0.17504979563E+02 -0.37995588014E+02 -0.18342894219E+02  0.13316928657E+03  0.12509000000E+03 0.  0.
<mgrwt>
<rscale>  2 0.46120069E+03</rscale>
<asrwt>0</asrwt>
<pdfrwt beam="1">  1       21 0.22783261E-01 0.46120069E+03</pdfrwt>
<pdfrwt beam="2">  1       21 0.50476146E-01 0.46120069E+03</pdfrwt>
<totfact> 0.62277356E+04</totfact>
</mgrwt>
</event>
<event>
 7    0  0.4748297E-002  0.4434413E+03  0.7546771E-02  0.1029696E+00
         21   -1    0    0  502  501  0.00000000000E+00  0.00000000000E+00  0.90694396457E+03  0.90694396457E+03  0.00000000000E+00 0. -1.
         21   -1    0    0  501  502 -0.00000000000E+00 -0.00000000000E+00 -0.54204053075E+02  0.54204053075E+02  0.00000000000E+00 0. -1.
      99926    2    1    2    0    0 -0.14210854715E-13  0.00000000000E+00  0.85273991149E+03  0.96114801764E+03  0.44344126462E+03 0.  0.
      99925    2    3    3    0    0  0.76024623863E+02  0.61220908551E+02  0.60628975252E+03  0.66803893891E+03  0.26298482240E+03 0.  0.
         25    1    4    4    0    0  0.77246108178E+02  0.30855003462E+02  0.36137128931E+03  0.39135113300E+03  0.12509000000E+03 0.  0.
         25    1    3    3    0    0 -0.76024623863E+02 -0.61220908551E+02  0.24645015897E+03  0.29310907873E+03  0.12509000000E+03 0.  0.
         25    1    4    4    0    0 -0.12214843152E+01  0.30365905090E+02  0.24491846321E+03  0.27668780591E+03  0.12509000000E+03 0.  0.
<mgrwt>
<rscale>  2 0.44344126E+03</rscale>
<asrwt>0</asrwt>
<pdfrwt beam="1">  1       21 0.13337410E+00 0.44344126E+03</pdfrwt>
<pdfrwt beam="2">  1       21 0.79711849E-02 0.44344126E+03</pdfrwt>
<totfact> 0.44587939E+04</totfact>
</mgrwt>
</event>
<event>
 7    0  0.4748297E-002  0.4487840E+03  0.7546771E-02  0.1028085E+00
         21   -1    0    0  502  501  0.00000000000E+00  0.00000000000E+00  0.23559227369E+03  0.23559227369E+03  0.00000000000E+00 0. -1.
         21   -1    0    0  501  502 -0.00000000000E+00 -0.00000000000E+00 -0.21372416361E+03  0.21372416361E+03  0.00000000000E+00 0. -1.
      99926    2    1    2    0    0 -0.35527136788E-14  0.00000000000E+00  0.21868110079E+02  0.44931643729E+03  0.44878396427E+03 0.  0.
      99925    2    3    3    0    0 -0.28024061195E+02 -0.10300085466E+03  0.23910884262E+02  0.28485913252E+03  0.26301800495E+03 0.  0.
         25    1    4    4    0    0  0.94461656188E+01 -0.69013422720E+02 -0.16202627025E+02  0.14409065127E+03  0.12509000000E+03 0.  0.
         25    1    3    3    0    0  0.28024061195E+02  0.10300085466E+03 -0.20427741824E+01  0.16445730477E+03  0.12509000000E+03 0.  0.
         25    1    4    4    0    0 -0.37470226814E+02 -0.33987431937E+02  0.40113511287E+02  0.14076848126E+03  0.12509000000E+03 0.  0.
<mgrwt>
<rscale>  2 0.44878396E+03</rscale>
<asrwt>0</asrwt>
<pdfrwt beam="1">  1       21 0.34645923E-01 0.44878396E+03</pdfrwt>
<pdfrwt beam="2">  1       21 0.31430024E-01 0.44878396E+03</pdfrwt>
<totfact> 0.72493500E+04</totfact>
</mgrwt>
</event>
<event>
 7    0  0.4748297E-002  0.4531029E+03  0.7546771E-02  0.1026801E+00
         21   -1    0    0  502  501  0.00000000000E+00  0.00000000000E+00  0.34781832247E+03  0.34781832247E+03  0.00000000000E+00 0.  1.
         21   -1    0    0  501  502 -0.00000000000E+00 -0.00000000000E+00 -0.14756426894E+03  0.14756426894E+03  0.00000000000E+00 0.  1.
      99926    2    1    2    0    0  0.00000000000E+00 -0.17763568394E-14  0.20025405352E+03  0.49538259141E+03  0.45310288668E+03 0.  0.
      99925    2    3    3    0    0  0.10357175087E+03  0.86565114423E+01  0.16979969445E+03  0.32992256948E+03  0.26308729132E+03 0.  0.
         25    1    4    4    0    0  0.44194755584E+02 -0.27837045254E+02  0.54596330475E+02  0.14613810219E+03  0.12509000000E+03 0.  0.
         25    1    4    4    0    0  0.59376995285E+02  0.36493556696E+02  0.11520336397E+03  0.18378446730E+03  0.12509000000E+03 0.  0.
         25    1    3    3    0    0 -0.10357175087E+03 -0.86565114423E+01  0.30454359075E+02  0.16546002192E+03  0.12509000000E+03 0.  0.
<mgrwt>
<rscale>  2 0.45310289E+03</rscale>
<asrwt>0</asrwt>
<pdfrwt beam="1">  1       21 0.51149753E-01 0.45310289E+03</pdfrwt>
<pdfrwt beam="2">  1       21 0.21700628E-01 0.45310289E+03</pdfrwt>
<totfact> 0.66593544E+04</totfact>
</mgrwt>
</event>
<event>
 7    0  0.4748297E-002  0.4572075E+03  0.7546771E-02  0.1025594E+00
         21   -1    0    0  502  501  0.00000000000E+00  0.00000000000E+00  0.30721404563E+03  0.30721404563E+03  0.00000000000E+00 0. -1.
         21   -1    0    0  501  502 -0.00000000000E+00 -0.00000000000E+00 -0.17010833773E+03  0.17010833773E+03  0.00000000000E+00 0. -1.
      99926    2    1    2    0    0  0.00000000000E+00 -0.17763568394E-14  0.13710570789E+03  0.47732238336E+03  0.45720748300E+03 0.  0.
      99925    2    3    3    0    0 -0.11437765895E+03 -0.59778001310E+01  0.85228238807E+02  0.29996183853E+03  0.26380915247E+03 0.  0.
         25    1    4    4    0    0 -0.73839329079E+02 -0.18438071644E+02  0.82039042059E+02  0.16783957080E+03  0.12509000000E+03 0.  0.
         25    1    3    3    0    0  0.11437765895E+03  0.59778001310E+01  0.51877469087E+02  0.17736054482E+03  0.12509000000E+03 0.  0.
         25    1    4    4    0    0 -0.40538329869E+02  0.12460271513E+02  0.31891967482E+01  0.13212226773E+03  0.12509000000E+03 0.  0.
<mgrwt>
<rscale>  2 0.45720748E+03</rscale>
<asrwt>0</asrwt>
<pdfrwt beam="1">  1       21 0.45178536E-01 0.45720748E+03</pdfrwt>
<pdfrwt beam="2">  1       21 0.25015932E-01 0.45720748E+03</pdfrwt>
<totfact> 0.65736323E+04</totfact>
</mgrwt>
</event>
<event>
 7    0  0.4748297E-002  0.4529721E+03  0.7546771E-02  0.1026839E+00
         21   -1    0    0  502  501  0.00000000000E+00  0.00000000000E+00  0.13495622090E+04  0.13495622090E+04  0.00000000000E+00 0.  1.
         21   -1    0    0  501  502 -0.00000000000E+00 -0.00000000000E+00 -0.38009305778E+02  0.38009305778E+02  0.00000000000E+00 0.  1.
      99926    2    1    2    0    0  0.00000000000E+00  0.00000000000E+00  0.13115529033E+04  0.13875715148E+04  0.45297206391E+03 0.  0.
      99925    2    3    3    0    0 -0.93271044760E+02 -0.54607424462E+02  0.73924718421E+03  0.79186789492E+03  0.26246314989E+03 0.  0.
         25    1    3    3    0    0  0.93271044760E+02  0.54607424462E+02  0.57230571906E+03  0.59570361990E+03  0.12509000000E+03 0.  0.
         25    1    4    4    0    0 -0.32377921346E+02 -0.39833658337E+02  0.26629252091E+03  0.29865408908E+03  0.12509000000E+03 0.  0.
         25    1    4    4    0    0 -0.60893123413E+02 -0.14773766126E+02  0.47295466329E+03  0.49321380584E+03  0.12509000000E+03 0.  0.
<mgrwt>
<rscale>  2 0.45297206E+03</rscale>
<asrwt>0</asrwt>
<pdfrwt beam="1">  1       21 0.19846500E+00 0.45297206E+03</pdfrwt>
<pdfrwt beam="2">  1       21 0.55896047E-02 0.45297206E+03</pdfrwt>
<totfact> 0.27089528E+04</totfact>
</mgrwt>
</event>
<event>
 7    0  0.4748297E-002  0.4587410E+03  0.7546771E-02  0.1025147E+00
         21   -1    0    0  502  501  0.00000000000E+00  0.00000000000E+00  0.15102681673E+03  0.15102681673E+03  0.00000000000E+00 0. -1.
         21   -1    0    0  501  502 -0.00000000000E+00 -0.00000000000E+00 -0.34835418035E+03  0.34835418035E+03  0.00000000000E+00 0. -1.
      99926    2    1    2    0    0 -0.71054273576E-14  0.00000000000E+00 -0.19732736362E+03  0.49938099708E+03  0.45874098554E+03 0.  0.
      99925    2    3    3    0    0  0.63773188869E+02  0.23957245216E+02 -0.20676552409E+02  0.27245813262E+03  0.26299229075E+03 0.  0.
         25    1    4    4    0    0  0.90248693631E+01 -0.12223208783E+02 -0.34160648557E+02  0.13055770031E+03  0.12509000000E+03 0.  0.
         25    1    3    3    0    0 -0.63773188869E+02 -0.23957245216E+02 -0.17665081121E+03  0.22692286447E+03  0.12509000000E+03 0.  0.
         25    1    4    4    0    0  0.54748319506E+02  0.36180453999E+02  0.13484096148E+02  0.14190043231E+03  0.12509000000E+03 0.  0.
<mgrwt>
<rscale>  2 0.45874099E+03</rscale>
<asrwt>0</asrwt>
<pdfrwt beam="1">  1       21 0.22209826E-01 0.45874099E+03</pdfrwt>
<pdfrwt beam="2">  1       21 0.51228555E-01 0.45874099E+03</pdfrwt>
<totfact> 0.63410040E+04</totfact>
</mgrwt>
</event>
<event>
 7    0  0.4748297E-002  0.4561164E+03  0.7546771E-02  0.1025914E+00
         21   -1    0    0  502  501  0.00000000000E+00  0.00000000000E+00  0.73768128304E+02  0.73768128304E+02  0.00000000000E+00 0. -1.
         21   -1    0    0  501  502 -0.00000000000E+00 -0.00000000000E+00 -0.70505436903E+03  0.70505436903E+03  0.00000000000E+00 0. -1.
      99926    2    1    2    0    0  0.35527136788E-14  0.71054273576E-14 -0.63128624073E+03  0.77882249734E+03  0.45611639373E+03 0.  0.
      99925    2    3    3    0    0 -0.16953159384E+02  0.61527620102E+02 -0.55855046003E+03  0.62067364485E+03  0.26302870445E+03 0.  0.
         25    1    4    4    0    0 -0.49138391099E+02  0.32618070551E+02 -0.28376807995E+03  0.31567443878E+03  0.12509000000E+03 0.  0.
         25    1    3    3    0    0  0.16953159384E+02 -0.61527620102E+02 -0.72735780695E+02  0.15814885248E+03  0.12509000000E+03 0.  0.
         25    1    4    4    0    0  0.32185231715E+02  0.28909549550E+02 -0.27478238009E+03  0.30499920607E+03  0.12509000000E+03 0.  0.
<mgrwt>
<rscale>  2 0.45611639E+03</rscale>
<asrwt>0</asrwt>
<pdfrwt beam="1">  1       21 0.10848255E-01 0.45611639E+03</pdfrwt>
<pdfrwt beam="2">  1       21 0.10368446E+00 0.45611639E+03</pdfrwt>
<totfact> 0.48380884E+04</totfact>
</mgrwt>
</event>
<event>
 7    0  0.4748297E-002  0.4444143E+03  0.7546771E-02  0.1029401E+00
         21   -1    0    0  502  501  0.00000000000E+00  0.00000000000E+00  0.22271980631E+03  0.22271980631E+03  0.00000000000E+00 0. -1.
         21   -1    0    0  501  502 -0.00000000000E+00 -0.00000000000E+00 -0.22169562708E+03  0.22169562708E+03  0.00000000000E+00 0. -1.
      99926    2    1    2    0    0  0.00000000000E+00  0.35527136788E-14  0.10241792390E+01  0.44441543339E+03  0.44441425325E+03 0.  0.
      99925    2    3    3    0    0  0.60542411904E+02  0.13058329800E+02  0.82993924012E+02  0.28254372254E+03  0.26288221717E+03 0.  0.
         25    1    4    4    0    0  0.22979967182E+02  0.44216855016E+02  0.54611349349E+02  0.14530353312E+03  0.12509000000E+03 0.  0.
         25    1    3    3    0    0 -0.60542411904E+02 -0.13058329800E+02 -0.81969744773E+02  0.16187171085E+03  0.12509000000E+03 0.  0.
         25    1    4    4    0    0  0.37562444722E+02 -0.31158525215E+02  0.28382574664E+02  0.13724018942E+03  0.12509000000E+03 0.  0.
<mgrwt>
<rscale>  2 0.44441425E+03</rscale>
<asrwt>0</asrwt>
<pdfrwt beam="1">  1       21 0.32752913E-01 0.44441425E+03</pdfrwt>
<pdfrwt beam="2">  1       21 0.32602298E-01 0.44441425E+03</pdfrwt>
<totfact> 0.75507139E+04</totfact>
</mgrwt>
</event>
<event>
 7    0  0.4748297E-002  0.4562685E+03  0.7546771E-02  0.1025869E+00
         21   -1    0    0  502  501  0.00000000000E+00  0.00000000000E+00  0.89292930956E+02  0.89292930956E+02  0.00000000000E+00 0.  1.
         21   -1    0    0  501  502 -0.00000000000E+00 -0.00000000000E+00 -0.58285964046E+03  0.58285964046E+03  0.00000000000E+00 0.  1.
      99926    2    1    2    0    0 -0.71054273576E-14 -0.14210854715E-13 -0.49356670950E+03  0.67215257141E+03  0.45626854212E+03 0.  0.
      99925    2    3    3    0    0 -0.35229253623E+02 -0.91844895706E+02 -0.39613239832E+03  0.48555798877E+03  0.26300018683E+03 0.  0.
         25    1    4    4    0    0 -0.44472247548E+02 -0.77194777358E+02 -0.23699640568E+03  0.28240329116E+03  0.12509000000E+03 0.  0.
         25    1    3    3    0    0  0.35229253623E+02  0.91844895706E+02 -0.97434311177E+02  0.18659458265E+03  0.12509000000E+03 0.  0.
         25    1    4    4    0    0  0.92429939249E+01 -0.14650118348E+02 -0.15913599264E+03  0.20315469760E+03  0.12509000000E+03 0.  0.
<mgrwt>
<rscale>  2 0.45626854E+03</rscale>
<asrwt>0</asrwt>
<pdfrwt beam="1">  1       21 0.13131314E-01 0.45626854E+03</pdfrwt>
<pdfrwt beam="2">  1       21 0.85714651E-01 0.45626854E+03</pdfrwt>
<totfact> 0.53900342E+04</totfact>
</mgrwt>
</event>
<event>
 7    0  0.4748297E-002  0.4471119E+03  0.7546771E-02  0.1028587E+00
         21   -1    0    0  502  501  0.00000000000E+00  0.00000000000E+00  0.73578393279E+02  0.73578393279E+02  0.00000000000E+00 0. -1.
         21   -1    0    0  501  502 -0.00000000000E+00 -0.00000000000E+00 -0.67923816002E+03  0.67923816002E+03  0.00000000000E+00 0. -1.
      99926    2    1    2    0    0  0.14210854715E-13  0.53290705182E-14 -0.60565976675E+03  0.75281655330E+03  0.44711185387E+03 0.  0.
      99925    2    3    3    0    0 -0.90246423781E+02 -0.10144360425E+02 -0.29369974083E+03  0.40465869985E+03  0.26313836768E+03 0.  0.
         25    1    3    3    0    0  0.90246423781E+02  0.10144360425E+02 -0.31196002592E+03  0.34815785346E+03  0.12509000000E+03 0.  0.
         25    1    4    4    0    0 -0.63571285265E+02  0.28535764908E+02 -0.13051626842E+03  0.19374623251E+03  0.12509000000E+03 0.  0.
         25    1    4    4    0    0 -0.26675138516E+02 -0.38680125333E+02 -0.16318347241E+03  0.21091246734E+03  0.12509000000E+03 0.  0.
<mgrwt>
<rscale>  2 0.44711185E+03</rscale>
<asrwt>0</asrwt>
<pdfrwt beam="1">  1       21 0.10820352E-01 0.44711185E+03</pdfrwt>
<pdfrwt beam="2">  1       21 0.99887965E-01 0.44711185E+03</pdfrwt>
<totfact> 0.53359102E+04</totfact>
</mgrwt>
</event>
<event>
 7    0  0.4748297E-002  0.4510147E+03  0.7546771E-02  0.1027420E+00
         21   -1    0    0  502  501  0.00000000000E+00  0.00000000000E+00  0.34118428978E+03  0.34118428978E+03  0.00000000000E+00 0. -1.
         21   -1    0    0  501  502 -0.00000000000E+00 -0.00000000000E+00 -0.14905014886E+03  0.14905014886E+03  0.00000000000E+00 0. -1.
      99926    2    1    2    0    0  0.00000000000E+00  0.00000000000E+00  0.19213414093E+03  0.49023443864E+03  0.45101471896E+03 0.  0.
      99925    2    3    3    0    0  0.70924696993E+02 -0.81541409205E+02  0.13988018328E+03  0.31686403099E+03  0.26297725073E+03 0.  0.
         25    1    3    3    0    0 -0.70924696993E+02  0.81541409205E+02  0.52253957644E+02  0.17337040765E+03  0.12509000000E+03 0.  0.
         25    1    4    4    0    0 -0.53927292935E+01 -0.28173975684E+02  0.60786275675E+02  0.14200469656E+03  0.12509000000E+03 0.  0.
         25    1    4    4    0    0  0.76317426287E+02 -0.53367433521E+02  0.79093907607E+02  0.17485933443E+03  0.12509000000E+03 0.  0.
<mgrwt>
<rscale>  2 0.45101472E+03</rscale>
<asrwt>0</asrwt>
<pdfrwt beam="1">  1       21 0.50174160E-01 0.45101472E+03</pdfrwt>
<pdfrwt beam="2">  1       21 0.21919140E-01 0.45101472E+03</pdfrwt>
<totfact> 0.68091203E+04</totfact>
</mgrwt>
</event>
<event>
 7    0  0.4748297E-002  0.4516484E+03  0.7546771E-02  0.1027232E+00
         21   -1    0    0  502  501  0.00000000000E+00  0.00000000000E+00  0.21080681203E+03  0.21080681203E+03  0.00000000000E+00 0.  1.
         21   -1    0    0  501  502 -0.00000000000E+00 -0.00000000000E+00 -0.24191138556E+03  0.24191138556E+03  0.00000000000E+00 0.  1.
      99926    2    1    2    0    0  0.00000000000E+00  0.00000000000E+00 -0.31104573528E+02  0.45271819759E+03  0.45164839415E+03 0.  0.
      99925    2    3    3    0    0 -0.36205050769E+02 -0.99138452188E+02  0.11541631628E+02  0.28358675369E+03  0.26296197292E+03 0.  0.
         25    1    4    4    0    0 -0.44558303041E+02 -0.48820666494E+02 -0.24933517350E+02  0.14365962632E+03  0.12509000000E+03 0.  0.
         25    1    3    3    0    0  0.36205050769E+02  0.99138452188E+02 -0.42646205156E+02  0.16913144391E+03  0.12509000000E+03 0.  0.
         25    1    4    4    0    0  0.83532522717E+01 -0.50317785694E+02  0.36475148979E+02  0.13992712737E+03  0.12509000000E+03 0.  0.
<mgrwt>
<rscale>  2 0.45164839E+03</rscale>
<asrwt>0</asrwt>
<pdfrwt beam="1">  1       21 0.31001002E-01 0.45164839E+03</pdfrwt>
<pdfrwt beam="2">  1       21 0.35575204E-01 0.45164839E+03</pdfrwt>
<totfact> 0.70581997E+04</totfact>
</mgrwt>
</event>
<event>
 7    0  0.4748297E-002  0.4498628E+03  0.7546771E-02  0.1027763E+00
         21   -1    0    0  502  501  0.00000000000E+00  0.00000000000E+00  0.13936318381E+03  0.13936318381E+03  0.00000000000E+00 0.  1.
         21   -1    0    0  501  502 -0.00000000000E+00 -0.00000000000E+00 -0.36303805092E+03  0.36303805092E+03  0.00000000000E+00 0.  1.
      99926    2    1    2    0    0  0.14210854715E-13 -0.14210854715E-13 -0.22367486711E+03  0.50240123474E+03  0.44986281741E+03 0.  0.
      99925    2    3    3    0    0 -0.82766103010E+02  0.66214845955E+02 -0.16687579547E+03  0.32888386883E+03  0.26283537515E+03 0.  0.
         25    1    3    3    0    0  0.82766103010E+02 -0.66214845955E+02 -0.56799071637E+02  0.17351736591E+03  0.12509000000E+03 0.  0.
         25    1    4    4    0    0 -0.24707060944E+02  0.63235021879E+02 -0.10911400655E+03  0.17933901242E+03  0.12509000000E+03 0.  0.
         25    1    4    4    0    0 -0.58059042066E+02  0.29798240761E+01 -0.57761788925E+02  0.14954485640E+03  0.12509000000E+03 0.  0.
<mgrwt>
<rscale>  2 0.44986282E+03</rscale>
<asrwt>0</asrwt>
<pdfrwt beam="1">  1       21 0.20494586E-01 0.44986282E+03</pdfrwt>
<pdfrwt beam="2">  1       21 0.53387949E-01 0.44986282E+03</pdfrwt>
<totfact> 0.67825990E+04</totfact>
</mgrwt>
</event>
<event>
 7    0  0.4748297E-002  0.4554049E+03  0.7546771E-02  0.1026122E+00
         21   -1    0    0  502  501  0.00000000000E+00  0.00000000000E+00  0.96903667682E+03  0.96903667682E+03  0.00000000000E+00 0.  1.
         21   -1    0    0  501  502 -0.00000000000E+00 -0.00000000000E+00 -0.53505091201E+02  0.53505091201E+02  0.00000000000E+00 0.  1.
      99926    2    1    2    0    0  0.17763568394E-14  0.00000000000E+00  0.91553158562E+03  0.10225417680E+04  0.45540485624E+03 0.  0.
      99925    2    3    3    0    0  0.14901391969E+02 -0.10185019995E+03  0.68330021796E+03  0.73939087020E+03  0.26306682869E+03 0.  0.
         25    1    3    3    0    0 -0.14901391969E+02  0.10185019995E+03  0.23223136766E+03  0.28315089782E+03  0.12509000000E+03 0.  0.
         25    1    4    4    0    0 -0.31483772406E+02 -0.41394548431E+02  0.35133038937E+03  0.37654387149E+03  0.12509000000E+03 0.  0.
         25    1    4    4    0    0  0.46385164376E+02 -0.60455651522E+02  0.33196982860E+03  0.36284699871E+03  0.12509000000E+03 0.  0.
<mgrwt>
<rscale>  2 0.45540486E+03</rscale>
<asrwt>0</asrwt>
<pdfrwt beam="1">  1       21 0.14250538E+00 0.45540486E+03</pdfrwt>
<pdfrwt beam="2">  1       21 0.78683964E-02 0.45540486E+03</pdfrwt>
<totfact> 0.38180489E+04</totfact>
</mgrwt>
</event>
<event>
 7    0  0.4748297E-002  0.4550616E+03  0.7546771E-02  0.1026223E+00
         21   -1    0    0  502  501  0.00000000000E+00  0.00000000000E+00  0.29809397970E+03  0.29809397970E+03  0.00000000000E+00 0.  1.
         21   -1    0    0  501  502 -0.00000000000E+00 -0.00000000000E+00 -0.17367095812E+03  0.17367095812E+03  0.00000000000E+00 0.  1.
      99926    2    1    2    0    0 -0.35527136788E-14  0.00000000000E+00  0.12442302158E+03  0.47176493783E+03  0.45506160930E+03 0.  0.
      99925    2    3    3    0    0  0.14385749250E+02  0.10532415728E+03  0.36709485223E+02  0.28564320227E+03  0.26257251343E+03 0.  0.
         25    1    3    3    0    0 -0.14385749250E+02 -0.10532415728E+03  0.87713536358E+02  0.18612173556E+03  0.12509000000E+03 0.  0.
         25    1    4    4    0    0  0.32254539124E+02  0.64377885668E+02 -0.10399142467E+02  0.14470838857E+03  0.12509000000E+03 0.  0.
         25    1    4    4    0    0 -0.17868789874E+02  0.40946271607E+02  0.47108627690E+02  0.14093481370E+03  0.12509000000E+03 0.  0.
<mgrwt>
<rscale>  2 0.45506161E+03</rscale>
<asrwt>0</asrwt>
<pdfrwt beam="1">  1       21 0.43837350E-01 0.45506161E+03</pdfrwt>
<pdfrwt beam="2">  1       21 0.25539847E-01 0.45506161E+03</pdfrwt>
<totfact> 0.67271803E+04</totfact>
</mgrwt>
</event>
<event>
 7    0  0.4748297E-002  0.4393204E+03  0.7546771E-02  0.1030956E+00
         21   -1    0    0  502  501  0.00000000000E+00  0.00000000000E+00  0.13209083441E+03  0.13209083441E+03  0.00000000000E+00 0.  1.
         21   -1    0    0  501  502 -0.00000000000E+00 -0.00000000000E+00 -0.36528357295E+03  0.36528357295E+03  0.00000000000E+00 0.  1.
      99926    2    1    2    0    0  0.00000000000E+00 -0.14210854715E-13 -0.23319273854E+03  0.49737440737E+03  0.43932043863E+03 0.  0.
      99925    2    3    3    0    0 -0.22362325625E+02  0.65385367484E+02 -0.70354304930E+02  0.28071988180E+03  0.26282808816E+03 0.  0.
         25    1    3    3    0    0  0.22362325625E+02 -0.65385367484E+02 -0.16283843361E+03  0.21665452557E+03  0.12509000000E+03 0.  0.
         25    1    4    4    0    0  0.23024438687E+02  0.99446596375E+01 -0.31145149032E+02  0.13132611865E+03  0.12509000000E+03 0.  0.
         25    1    4    4    0    0 -0.45386764312E+02  0.55440707846E+02 -0.39209155897E+02  0.14939376315E+03  0.12509000000E+03 0.  0.
<mgrwt>
<rscale>  2 0.43932044E+03</rscale>
<asrwt>0</asrwt>
<pdfrwt beam="1">  1       21 0.19425123E-01 0.43932044E+03</pdfrwt>
<pdfrwt beam="2">  1       21 0.53718171E-01 0.43932044E+03</pdfrwt>
<totfact> 0.74277648E+04</totfact>
</mgrwt>
</event>
<event>
 7    0  0.4748297E-002  0.4503940E+03  0.7546771E-02  0.1027605E+00
         21   -1    0    0  502  501  0.00000000000E+00  0.00000000000E+00  0.24493888741E+03  0.24493888741E+03  0.00000000000E+00 0.  1.
         21   -1    0    0  501  502 -0.00000000000E+00 -0.00000000000E+00 -0.20704629586E+03  0.20704629586E+03  0.00000000000E+00 0.  1.
      99926    2    1    2    0    0  0.17763568394E-14  0.00000000000E+00  0.37892591552E+02  0.45198518327E+03  0.45039400241E+03 0.  0.
      99925    2    3    3    0    0 -0.75657645004E+01 -0.10849872726E+03  0.25317887204E+02  0.28574786526E+03  0.26302401502E+03 0.  0.
         25    1    4    4    0    0 -0.29440345653E+02 -0.83495450864E+02 -0.29138161031E+01  0.15327825251E+03  0.12509000000E+03 0.  0.
         25    1    3    3    0    0  0.75657645004E+01  0.10849872726E+03  0.12574704348E+02  0.16623731801E+03  0.12509000000E+03 0.  0.
         25    1    4    4    0    0  0.21874581152E+02 -0.25003276400E+02  0.28231703308E+02  0.13246961275E+03  0.12509000000E+03 0.  0.
<mgrwt>
<rscale>  2 0.45039400E+03</rscale>
<asrwt>0</asrwt>
<pdfrwt beam="1">  1       21 0.36020425E-01 0.45039400E+03</pdfrwt>
<pdfrwt beam="2">  1       21 0.30447985E-01 0.45039400E+03</pdfrwt>
<totfact> 0.71353644E+04</totfact>
</mgrwt>
</event>
<event>
 7    0  0.4748297E-002  0.4539108E+03  0.7546771E-02  0.1026562E+00
         21   -1    0    0  502  501  0.00000000000E+00  0.00000000000E+00  0.37764235215E+03  0.37764235215E+03  0.00000000000E+00 0. -1.
         21   -1    0    0  501  502 -0.00000000000E+00 -0.00000000000E+00 -0.13639556952E+03  0.13639556952E+03  0.00000000000E+00 0. -1.
      99926    2    1    2    0    0 -0.17763568394E-14  0.00000000000E+00  0.24124678263E+03  0.51403792166E+03  0.45391075641E+03 0.  0.
      99925    2    3    3    0    0 -0.77166783929E+01  0.59523746159E+01  0.27842115813E+03  0.38317761377E+03  0.26308128879E+03 0.  0.
         25    1    4    4    0    0  0.13002163222E+02  0.11789118340E+02  0.86549653408E+02  0.15312214133E+03  0.12509000000E+03 0.  0.
         25    1    4    4    0    0 -0.20718841614E+02 -0.58367437238E+01  0.19187150472E+03  0.23005547244E+03  0.12509000000E+03 0.  0.
         25    1    3    3    0    0  0.77166783929E+01 -0.59523746159E+01 -0.37174375501E+02  0.13086030790E+03  0.12509000000E+03 0.  0.
<mgrwt>
<rscale>  2 0.45391076E+03</rscale>
<asrwt>0</asrwt>
<pdfrwt beam="1">  1       21 0.55535640E-01 0.45391076E+03</pdfrwt>
<pdfrwt beam="2">  1       21 0.20058172E-01 0.45391076E+03</pdfrwt>
<totfact> 0.64854032E+04</totfact>
</mgrwt>
</event>
<event>
 6    0  0.4748297E-002  0.4505015E+03  0.7546771E-02  0.1027573E+00
         21   -1    0    0  502  501  0.00000000000E+00  0.00000000000E+00  0.13073079303E+03  0.13073079303E+03  0.00000000000E+00 0. -1.
         21   -1    0    0  501  502 -0.00000000000E+00 -0.00000000000E+00 -0.38810973486E+03  0.38810973486E+03  0.00000000000E+00 0. -1.
      99926    2    1    2    0    0  0.17763568394E-14  0.00000000000E+00 -0.25737894184E+03  0.51884052789E+03  0.45050146912E+03 0.  0.
         25    1    3    3    0    0  0.34410500997E+02 -0.11911289444E+01 -0.58914793538E+02  0.14249197298E+03  0.12509000000E+03 0.  0.
         25    1    3    3    0    0 -0.21456519737E+02  0.39162972879E+02  0.64086740656E+01  0.13297631326E+03  0.12509000000E+03 0.  0.
         25    1    3    3    0    0 -0.12953981260E+02 -0.37971843934E+02 -0.20487282236E+03  0.24337224165E+03  0.12509000000E+03 0.  0.
<mgrwt>
<rscale>  2 0.45050147E+03</rscale>
<asrwt>0</asrwt>
<pdfrwt beam="1">  1       21 0.19225117E-01 0.45050147E+03</pdfrwt>
<pdfrwt beam="2">  1       21 0.57074961E-01 0.45050147E+03</pdfrwt>
<totfact> 0.66301094E+04</totfact>
</mgrwt>
</event>
<event>
 7    0  0.4748297E-002  0.4512268E+03  0.7546771E-02  0.1027357E+00
         21   -1    0    0  502  501  0.00000000000E+00  0.00000000000E+00  0.60579716745E+02  0.60579716745E+02  0.00000000000E+00 0.  1.
         21   -1    0    0  501  502 -0.00000000000E+00 -0.00000000000E+00 -0.84023829901E+03  0.84023829901E+03  0.00000000000E+00 0.  1.
      99926    2    1    2    0    0  0.22204460493E-14  0.00000000000E+00 -0.77965858227E+03  0.90081801576E+03  0.45122676407E+03 0.  0.
      99925    2    3    3    0    0 -0.33108577646E+01 -0.15856814567E+02 -0.27593803543E+03  0.38154516094E+03  0.26300667309E+03 0.  0.
         25    1    3    3    0    0  0.33108577646E+01  0.15856814567E+02 -0.50372054683E+03  0.51927285482E+03  0.12509000000E+03 0.  0.
         25    1    4    4    0    0  0.31628277582E+02 -0.16832264751E+02 -0.16909848175E+03  0.21336700239E+03  0.12509000000E+03 0.  0.
         25    1    4    4    0    0 -0.34939135346E+02  0.97545018411E+00 -0.10683955369E+03  0.16817815855E+03  0.12509000000E+03 0.  0.
<mgrwt>
<rscale>  2 0.45122676E+03</rscale>
<asrwt>0</asrwt>
<pdfrwt beam="1">  1       21 0.89087818E-02 0.45122676E+03</pdfrwt>
<pdfrwt beam="2">  1       21 0.12356446E+00 0.45122676E+03</pdfrwt>
<totfact> 0.44498417E+04</totfact>
</mgrwt>
</event>
<event>
 7    0  0.4748297E-002  0.4668032E+03  0.7546771E-02  0.1022826E+00
         21   -1    0    0  502  501  0.00000000000E+00  0.00000000000E+00  0.65779254132E+02  0.65779254132E+02  0.00000000000E+00 0. -1.
         21   -1    0    0  501  502 -0.00000000000E+00 -0.00000000000E+00 -0.82816846656E+03  0.82816846656E+03  0.00000000000E+00 0. -1.
      99926    2    1    2    0    0 -0.71054273576E-14  0.00000000000E+00 -0.76238921243E+03  0.89394772070E+03  0.46680318776E+03 0.  0.
      99925    2    3    3    0    0  0.63030134443E+02  0.54988818313E+01 -0.27081736819E+03  0.38277903846E+03  0.26301085495E+03 0.  0.
         25    1    4    4    0    0  0.23994575632E+02  0.59854667167E+01 -0.77439562147E+02  0.14918431337E+03  0.12509000000E+03 0.  0.
         25    1    3    3    0    0 -0.63030134443E+02 -0.54988818313E+01 -0.49157184424E+03  0.51116868224E+03  0.12509000000E+03 0.  0.
         25    1    4    4    0    0  0.39035558811E+02 -0.48658488535E+00 -0.19337780604E+03  0.23359472508E+03  0.12509000000E+03 0.  0.
<mgrwt>
<rscale>  2 0.46680319E+03</rscale>
<asrwt>0</asrwt>
<pdfrwt beam="1">  1       21 0.96734197E-02 0.46680319E+03</pdfrwt>
<pdfrwt beam="2">  1       21 0.12178948E+00 0.46680319E+03</pdfrwt>
<totfact> 0.39698230E+04</totfact>
</mgrwt>
</event>
<event>
 7    0  0.4748297E-002  0.4555900E+03  0.7546771E-02  0.1026068E+00
         21   -1    0    0  502  501  0.00000000000E+00  0.00000000000E+00  0.88092557676E+03  0.88092557676E+03  0.00000000000E+00 0.  1.
         21   -1    0    0  501  502 -0.00000000000E+00 -0.00000000000E+00 -0.58904588196E+02  0.58904588196E+02  0.00000000000E+00 0.  1.
      99926    2    1    2    0    0  0.00000000000E+00  0.00000000000E+00  0.82202098857E+03  0.93983016496E+03  0.45558998378E+03 0.  0.
      99925    2    3    3    0    0 -0.23202967077E+02  0.10949478929E+03  0.47532070949E+03  0.55463400950E+03  0.26298597124E+03 0.  0.
         25    1    3    3    0    0  0.23202967077E+02 -0.10949478929E+03  0.34670027908E+03  0.38519615546E+03  0.12509000000E+03 0.  0.
         25    1    4    4    0    0 -0.21578761634E+02  0.13758179871E+02  0.19499792893E+03  0.23308073891E+03  0.12509000000E+03 0.  0.
         25    1    4    4    0    0 -0.16242054422E+01  0.95736609420E+02  0.28032278056E+03  0.32155327059E+03  0.12509000000E+03 0.  0.
<mgrwt>
<rscale>  2 0.45558998E+03</rscale>
<asrwt>0</asrwt>
<pdfrwt beam="1">  1       21 0.12954787E+00 0.45558998E+03</pdfrwt>
<pdfrwt beam="2">  1       21 0.86624400E-02 0.45558998E+03</pdfrwt>
<totfact> 0.41364188E+04</totfact>
</mgrwt>
</event>
<event>
 7    0  0.4748297E-002  0.4551635E+03  0.7546771E-02  0.1026193E+00
         21   -1    0    0  502  501  0.00000000000E+00  0.00000000000E+00  0.13038282035E+03  0.13038282035E+03  0.00000000000E+00 0. -1.
         21   -1    0    0  501  502 -0.00000000000E+00 -0.00000000000E+00 -0.39724132685E+03  0.39724132685E+03  0.00000000000E+00 0. -1.
      99926    2    1    2    0    0  0.00000000000E+00  0.00000000000E+00 -0.26685850651E+03  0.52762414720E+03  0.45516346318E+03 0.  0.
      99925    2    3    3    0    0 -0.10267354142E+03 -0.31065401277E+02 -0.21030782295E+03  0.35340473618E+03  0.26298025001E+03 0.  0.
         25    1    4    4    0    0 -0.59396802559E+02  0.23859743199E+02 -0.11062980448E+03  0.17883995426E+03  0.12509000000E+03 0.  0.
         25    1    3    3    0    0  0.10267354142E+03  0.31065401277E+02 -0.56550683559E+02  0.17421941102E+03  0.12509000000E+03 0.  0.
         25    1    4    4    0    0 -0.43276738863E+02 -0.54925144476E+02 -0.99678018466E+02  0.17456478192E+03  0.12509000000E+03 0.  0.
<mgrwt>
<rscale>  2 0.45516346E+03</rscale>
<asrwt>0</asrwt>
<pdfrwt beam="1">  1       21 0.19173944E-01 0.45516346E+03</pdfrwt>
<pdfrwt beam="2">  1       21 0.58417842E-01 0.45516346E+03</pdfrwt>
<totfact> 0.63285617E+04</totfact>
</mgrwt>
</event>
<event>
 7    0  0.4748297E-002  0.4531936E+03  0.7546771E-02  0.1026774E+00
         21   -1    0    0  502  501  0.00000000000E+00  0.00000000000E+00  0.31782865388E+03  0.31782865388E+03  0.00000000000E+00 0.  1.
         21   -1    0    0  501  502 -0.00000000000E+00 -0.00000000000E+00 -0.16155278988E+03  0.16155278988E+03  0.00000000000E+00 0.  1.
      99926    2    1    2    0    0  0.00000000000E+00  0.00000000000E+00  0.15627586400E+03  0.47938144376E+03  0.45319358221E+03 0.  0.
      99925    2    3    3    0    0 -0.65239823254E+02  0.51867879991E+02  0.20176225248E+02  0.27660784765E+03  0.26297967565E+03 0.  0.
         25    1    4    4    0    0 -0.46406495714E+02 -0.11165942572E+02  0.19296786074E+02  0.13527052588E+03  0.12509000000E+03 0.  0.
         25    1    4    4    0    0 -0.18833327540E+02  0.63033822563E+02  0.87943917465E+00  0.14133732177E+03  0.12509000000E+03 0.  0.
         25    1    3    3    0    0  0.65239823254E+02 -0.51867879991E+02  0.13609963875E+03  0.20277359611E+03  0.12509000000E+03 0.  0.
<mgrwt>
<rscale>  2 0.45319358E+03</rscale>
<asrwt>0</asrwt>
<pdfrwt beam="1">  1       21 0.46739508E-01 0.45319358E+03</pdfrwt>
<pdfrwt beam="2">  1       21 0.23757763E-01 0.45319358E+03</pdfrwt>
<totfact> 0.67710829E+04</totfact>
</mgrwt>
</event>
<event>
 7    0  0.4748297E-002  0.4706254E+03  0.7546771E-02  0.1021744E+00
         21   -1    0    0  502  501  0.00000000000E+00  0.00000000000E+00  0.81937976973E+03  0.81937976973E+03  0.00000000000E+00 0.  1.
         21   -1    0    0  501  502 -0.00000000000E+00 -0.00000000000E+00 -0.67578026506E+02  0.67578026506E+02  0.00000000000E+00 0.  1.
      99926    2    1    2    0    0  0.00000000000E+00  0.00000000000E+00  0.75180174322E+03  0.88695779623E+03  0.47062540432E+03 0.  0.
      99925    2    3    3    0    0 -0.73684643070E+02  0.92746079270E+02  0.55551141284E+03  0.62578991202E+03  0.26265723356E+03 0.  0.
         25    1    3    3    0    0  0.73684643070E+02 -0.92746079270E+02  0.19629033038E+03  0.26116788422E+03  0.12509000000E+03 0.  0.
         25    1    4    4    0    0 -0.44747649277E+02  0.68959933433E+02  0.36814062610E+03  0.39740766628E+03  0.12509000000E+03 0.  0.
         25    1    4    4    0    0 -0.28936993792E+02  0.23786145837E+02  0.18737078674E+03  0.22838224573E+03  0.12509000000E+03 0.  0.
<mgrwt>
<rscale>  2 0.47062540E+03</rscale>
<asrwt>0</asrwt>
<pdfrwt beam="1">  1       21 0.12049702E+00 0.47062540E+03</pdfrwt>
<pdfrwt beam="2">  1       21 0.99379455E-02 0.47062540E+03</pdfrwt>
<totfact> 0.38828584E+04</totfact>
</mgrwt>
</event>
<event>
 7    0  0.4748297E-002  0.4515107E+03  0.7546771E-02  0.1027272E+00
         21   -1    0    0  502  501  0.00000000000E+00  0.00000000000E+00  0.13302466977E+04  0.13302466977E+04  0.00000000000E+00 0.  1.
         21   -1    0    0  501  502 -0.00000000000E+00 -0.00000000000E+00 -0.38312806997E+02  0.38312806997E+02  0.00000000000E+00 0.  1.
      99926    2    1    2    0    0  0.00000000000E+00  0.00000000000E+00  0.12919338907E+04  0.13685595047E+04  0.45151073072E+03 0.  0.
      99925    2    3    3    0    0  0.13489100550E+02 -0.33175750108E+02  0.50140451101E+03  0.56739360771E+03  0.26314717590E+03 0.  0.
         25    1    4    4    0    0 -0.85285037294E+01 -0.45160938904E+02  0.30926990864E+03  0.33676049393E+03  0.12509000000E+03 0.  0.
         25    1    3    3    0    0 -0.13489100550E+02  0.33175750108E+02  0.79052937974E+03  0.80116589703E+03  0.12509000000E+03 0.  0.
         25    1    4    4    0    0  0.22017604280E+02  0.11985188796E+02  0.19213460237E+03  0.23063311379E+03  0.12509000000E+03 0.  0.
<mgrwt>
<rscale>  2 0.45151073E+03</rscale>
<asrwt>0</asrwt>
<pdfrwt beam="1">  1       21 0.19562448E+00 0.45151073E+03</pdfrwt>
<pdfrwt beam="2">  1       21 0.56342372E-02 0.45151073E+03</pdfrwt>
<totfact> 0.27931906E+04</totfact>
</mgrwt>
</event>
<event>
 7    0  0.4748297E-002  0.4620925E+03  0.7546771E-02  0.1024176E+00
         21   -1    0    0  502  501  0.00000000000E+00  0.00000000000E+00  0.36632587759E+03  0.36632587759E+03  0.00000000000E+00 0.  1.
         21   -1    0    0  501  502 -0.00000000000E+00 -0.00000000000E+00 -0.14572373509E+03  0.14572373509E+03  0.00000000000E+00 0.  1.
      99926    2    1    2    0    0  0.00000000000E+00  0.00000000000E+00  0.22060214250E+03  0.51204961268E+03  0.46209252382E+03 0.  0.
      99925    2    3    3    0    0  0.11316136871E+03 -0.11546950547E+02  0.96489663615E+02  0.30231110180E+03  0.26295041291E+03 0.  0.
         25    1    4    4    0    0  0.56651939880E+02  0.34671881470E+02  0.45356217987E+02  0.14871542041E+03  0.12509000000E+03 0.  0.
         25    1    4    4    0    0  0.56509428828E+02 -0.46218832016E+02  0.51133445628E+02  0.15359568139E+03  0.12509000000E+03 0.  0.
         25    1    3    3    0    0 -0.11316136871E+03  0.11546950547E+02  0.12411247889E+03  0.20973851089E+03  0.12509000000E+03 0.  0.
<mgrwt>
<rscale>  2 0.46209252E+03</rscale>
<asrwt>0</asrwt>
<pdfrwt beam="1">  1       21 0.53871453E-01 0.46209252E+03</pdfrwt>
<pdfrwt beam="2">  1       21 0.21429961E-01 0.46209252E+03</pdfrwt>
<totfact> 0.60929449E+04</totfact>
</mgrwt>
</event>
<event>
 7    0  0.4748297E-002  0.4545514E+03  0.7546771E-02  0.1026373E+00
         21   -1    0    0  502  501  0.00000000000E+00  0.00000000000E+00  0.63589290825E+02  0.63589290825E+02  0.00000000000E+00 0. -1.
         21   -1    0    0  501  502 -0.00000000000E+00 -0.00000000000E+00 -0.81231058340E+03  0.81231058340E+03  0.00000000000E+00 0. -1.
      99926    2    1    2    0    0  0.71054273576E-14  0.00000000000E+00 -0.74872129258E+03  0.87589987423E+03  0.45455144452E+03 0.  0.
      99925    2    3    3    0    0  0.35747610234E+02  0.19845679246E+02 -0.67378263335E+03  0.72445663942E+03  0.26302593555E+03 0.  0.
         25    1    4    4    0    0  0.34742014008E+02  0.42141693663E+02 -0.39942948198E+03  0.42210703507E+03  0.12509000000E+03 0.  0.
         25    1    3    3    0    0 -0.35747610234E+02 -0.19845679246E+02 -0.74938659226E+02  0.15144323481E+03  0.12509000000E+03 0.  0.
         25    1    4    4    0    0  0.10055962264E+01 -0.22296014417E+02 -0.27435315137E+03  0.30234960435E+03  0.12509000000E+03 0.  0.
<mgrwt>
<rscale>  2 0.45455144E+03</rscale>
<asrwt>0</asrwt>
<pdfrwt beam="1">  1       21 0.93513673E-02 0.45455144E+03</pdfrwt>
<pdfrwt beam="2">  1       21 0.11945743E+00 0.45455144E+03</pdfrwt>
<totfact> 0.44448087E+04</totfact>
</mgrwt>
</event>
<event>
 7    0  0.4748297E-002  0.4602889E+03  0.7546771E-02  0.1024697E+00
         21   -1    0    0  502  501  0.00000000000E+00  0.00000000000E+00  0.74322573687E+03  0.74322573687E+03  0.00000000000E+00 0. -1.
         21   -1    0    0  501  502 -0.00000000000E+00 -0.00000000000E+00 -0.71265648783E+02  0.71265648783E+02  0.00000000000E+00 0. -1.
      99926    2    1    2    0    0  0.00000000000E+00  0.00000000000E+00  0.67196008809E+03  0.81449138566E+03  0.46028888464E+03 0.  0.
      99925    2    3    3    0    0 -0.59030889402E+02  0.22295909133E+02  0.24416645916E+03  0.36433957735E+03  0.26295306497E+03 0.  0.
         25    1    3    3    0    0  0.59030889402E+02 -0.22295909133E+02  0.42779362893E+03  0.45015180830E+03  0.12509000000E+03 0.  0.
         25    1    4    4    0    0 -0.48519849711E+02  0.31950612220E+02  0.16732374257E+03  0.21684040298E+03  0.12509000000E+03 0.  0.
         25    1    4    4    0    0 -0.10511039691E+02 -0.96547030869E+01  0.76842716589E+02  0.14749917437E+03  0.12509000000E+03 0.  0.
<mgrwt>
<rscale>  2 0.46028888E+03</rscale>
<asrwt>0</asrwt>
<pdfrwt beam="1">  1       21 0.10929790E+00 0.46028888E+03</pdfrwt>
<pdfrwt beam="2">  1       21 0.10480243E-01 0.46028888E+03</pdfrwt>
<totfact> 0.45167929E+04</totfact>
</mgrwt>
</event>
<event>
 7    0  0.4748297E-002  0.4553295E+03  0.7546771E-02  0.1026145E+00
         21   -1    0    0  502  501  0.00000000000E+00  0.00000000000E+00  0.91502496989E+03  0.91502496989E+03  0.00000000000E+00 0.  1.
         21   -1    0    0  501  502 -0.00000000000E+00 -0.00000000000E+00 -0.56644605286E+02  0.56644605286E+02  0.00000000000E+00 0.  1.
      99926    2    1    2    0    0  0.00000000000E+00 -0.71054273576E-14  0.85838036460E+03  0.97166957517E+03  0.45532945543E+03 0.  0.
      99925    2    3    3    0    0  0.27015133052E+02  0.48640206027E+02  0.32854604057E+03  0.42443324042E+03  0.26287903633E+03 0.  0.
         25    1    4    4    0    0  0.21232946605E+02  0.62421459325E+02  0.19463080212E+03  0.24057417533E+03  0.12509000000E+03 0.  0.
         25    1    4    4    0    0  0.57821864464E+01 -0.13781253298E+02  0.13391523845E+03  0.18385906508E+03  0.12509000000E+03 0.  0.
         25    1    3    3    0    0 -0.27015133052E+02 -0.48640206027E+02  0.52983432403E+03  0.54723633476E+03  0.12509000000E+03 0.  0.
<mgrwt>
<rscale>  2 0.45532946E+03</rscale>
<asrwt>0</asrwt>
<pdfrwt beam="1">  1       21 0.13456249E+00 0.45532946E+03</pdfrwt>
<pdfrwt beam="2">  1       21 0.83300896E-02 0.45532946E+03</pdfrwt>
<totfact> 0.40172013E+04</totfact>
</mgrwt>
</event>
<event>
 7    0  0.4748297E-002  0.4504502E+03  0.7546771E-02  0.1027588E+00
         21   -1    0    0  502  501  0.00000000000E+00  0.00000000000E+00  0.14429600273E+04  0.14429600273E+04  0.00000000000E+00 0. -1.
         21   -1    0    0  501  502 -0.00000000000E+00 -0.00000000000E+00 -0.35154364150E+02  0.35154364150E+02  0.00000000000E+00 0. -1.
      99926    2    1    2    0    0  0.00000000000E+00  0.00000000000E+00  0.14078056631E+04  0.14781143914E+04  0.45045018483E+03 0.  0.
      99925    2    3    3    0    0 -0.20203017695E+02  0.80994399504E+02  0.11192859657E+04  0.11527540088E+04  0.26281643241E+03 0.  0.
         25    1    4    4    0    0  0.29855064245E+02  0.45544596784E+02  0.55726303692E+03  0.57372052044E+03  0.12509000000E+03 0.  0.
         25    1    3    3    0    0  0.20203017695E+02 -0.80994399504E+02  0.28851969746E+03  0.32536038265E+03  0.12509000000E+03 0.  0.
         25    1    4    4    0    0 -0.50058081940E+02  0.35449802720E+02  0.56202292877E+03  0.57903348836E+03  0.12509000000E+03 0.  0.
<mgrwt>
<rscale>  2 0.45045018E+03</rscale>
<asrwt>0</asrwt>
<pdfrwt beam="1">  1       21 0.21219996E+00 0.45045018E+03</pdfrwt>
<pdfrwt beam="2">  1       21 0.51697604E-02 0.45045018E+03</pdfrwt>
<totfact> 0.25199567E+04</totfact>
</mgrwt>
</event>
<event>
 7    0  0.4748297E-002  0.4520693E+03  0.7546771E-02  0.1027107E+00
         21   -1    0    0  502  501  0.00000000000E+00  0.00000000000E+00  0.31511756736E+03  0.31511756736E+03  0.00000000000E+00 0.  1.
         21   -1    0    0  501  502 -0.00000000000E+00 -0.00000000000E+00 -0.16213521418E+03  0.16213521418E+03  0.00000000000E+00 0.  1.
      99926    2    1    2    0    0  0.17763568394E-14  0.00000000000E+00  0.15298235317E+03  0.47725278154E+03  0.45206926140E+03 0.  0.
      99925    2    3    3    0    0 -0.11283274003E+02 -0.69539476641E+02  0.70104217006E+01  0.27251303464E+03  0.26315614557E+03 0.  0.
         25    1    4    4    0    0  0.14278528891E+02 -0.32626390102E+01 -0.15554895629E+02  0.12690147390E+03  0.12509000000E+03 0.  0.
         25    1    4    4    0    0 -0.25561802894E+02 -0.66276837631E+02  0.22565317329E+02  0.14561156074E+03  0.12509000000E+03 0.  0.
         25    1    3    3    0    0  0.11283274003E+02  0.69539476641E+02  0.14597193147E+03  0.20473974690E+03  0.12509000000E+03 0.  0.
<mgrwt>
<rscale>  2 0.45206926E+03</rscale>
<asrwt>0</asrwt>
<pdfrwt beam="1">  1       21 0.46340819E-01 0.45206926E+03</pdfrwt>
<pdfrwt beam="2">  1       21 0.23843414E-01 0.45206926E+03</pdfrwt>
<totfact> 0.68479770E+04</totfact>
</mgrwt>
</event>
<event>
 7    0  0.4748297E-002  0.4487585E+03  0.7546771E-02  0.1028093E+00
         21   -1    0    0  502  501  0.00000000000E+00  0.00000000000E+00  0.14040023505E+03  0.14040023505E+03  0.00000000000E+00 0. -1.
         21   -1    0    0  501  502 -0.00000000000E+00 -0.00000000000E+00 -0.35858951930E+03  0.35858951930E+03  0.00000000000E+00 0. -1.
      99926    2    1    2    0    0 -0.14210854715E-13  0.71054273576E-14 -0.21818928425E+03  0.49898975435E+03  0.44875852213E+03 0.  0.
      99925    2    3    3    0    0 -0.93141950590E+02  0.52129423742E+02 -0.12647018945E+03  0.31070061438E+03  0.26295867200E+03 0.  0.
         25    1    3    3    0    0  0.93141950590E+02 -0.52129423742E+02 -0.91719094798E+02  0.18828913997E+03  0.12509000000E+03 0.  0.
         25    1    4    4    0    0 -0.53485828597E+02  0.27133153328E-01 -0.28910710861E+02  0.13908296768E+03  0.12509000000E+03 0.  0.
         25    1    4    4    0    0 -0.39656121994E+02  0.52102290589E+02 -0.97559478592E+02  0.17161764670E+03  0.12509000000E+03 0.  0.
<mgrwt>
<rscale>  2 0.44875852E+03</rscale>
<asrwt>0</asrwt>
<pdfrwt beam="1">  1       21 0.20647093E-01 0.44875852E+03</pdfrwt>
<pdfrwt beam="2">  1       21 0.52733753E-01 0.44875852E+03</pdfrwt>
<totfact> 0.68681832E+04</totfact>
</mgrwt>
</event>
<event>
 7    0  0.4748297E-002  0.4698140E+03  0.7546771E-02  0.1021973E+00
         21   -1    0    0  502  501  0.00000000000E+00  0.00000000000E+00  0.10146250831E+04  0.10146250831E+04  0.00000000000E+00 0.  1.
         21   -1    0    0  501  502 -0.00000000000E+00 -0.00000000000E+00 -0.54385902221E+02  0.54385902221E+02  0.00000000000E+00 0.  1.
      99926    2    1    2    0    0  0.00000000000E+00 -0.35527136788E-14  0.96023918091E+03  0.10690109854E+04  0.46981400815E+03 0.  0.
      99925    2    3    3    0    0 -0.12363032491E+03  0.13589677985E+02  0.65001619904E+03  0.71214274193E+03  0.26297735508E+03 0.  0.
         25    1    4    4    0    0 -0.45329016028E+02  0.39252396972E+02  0.35831722659E+03  0.38423197854E+03  0.12509000000E+03 0.  0.
         25    1    4    4    0    0 -0.78301308878E+02 -0.25662718987E+02  0.29169897245E+03  0.32791076339E+03  0.12509000000E+03 0.  0.
         25    1    3    3    0    0  0.12363032491E+03 -0.13589677985E+02  0.31022298187E+03  0.35686824343E+03  0.12509000000E+03 0.  0.
<mgrwt>
<rscale>  2 0.46981401E+03</rscale>
<asrwt>0</asrwt>
<pdfrwt beam="1">  1       21 0.14920956E+00 0.46981401E+03</pdfrwt>
<pdfrwt beam="2">  1       21 0.79979274E-02 0.46981401E+03</pdfrwt>
<totfact> 0.32646794E+04</totfact>
</mgrwt>
</event>
<event>
 7    0  0.4748297E-002  0.4759535E+03  0.7546771E-02  0.1020253E+00
         21   -1    0    0  502  501  0.00000000000E+00  0.00000000000E+00  0.10878198890E+03  0.10878198890E+03  0.00000000000E+00 0.  1.
         21   -1    0    0  501  502 -0.00000000000E+00 -0.00000000000E+00 -0.52060952897E+03  0.52060952897E+03  0.00000000000E+00 0.  1.
      99926    2    1    2    0    0  0.35527136788E-14  0.00000000000E+00 -0.41182754007E+03  0.62939151787E+03  0.47595352715E+03 0.  0.
      99925    2    3    3    0    0  0.28981253725E+02  0.11138026788E+03 -0.16965517526E+03  0.33351918135E+03  0.26307164175E+03 0.  0.
         25    1    4    4    0    0 -0.20541342349E+02  0.69749763874E+02 -0.68233817294E+02  0.15996980411E+03  0.12509000000E+03 0.  0.
         25    1    3    3    0    0 -0.28981253725E+02 -0.11138026788E+03 -0.24217236481E+03  0.29587233653E+03  0.12509000000E+03 0.  0.
         25    1    4    4    0    0  0.49522596075E+02  0.41630504010E+02 -0.10142135796E+03  0.17354937723E+03  0.12509000000E+03 0.  0.
<mgrwt>
<rscale>  2 0.47595353E+03</rscale>
<asrwt>0</asrwt>
<pdfrwt beam="1">  1       21 0.15997351E-01 0.47595353E+03</pdfrwt>
<pdfrwt beam="2">  1       21 0.76560226E-01 0.47595353E+03</pdfrwt>
<totfact> 0.48388613E+04</totfact>
</mgrwt>
</event>
<event>
 7    0  0.4748297E-002  0.4496675E+03  0.7546771E-02  0.1027821E+00
         21   -1    0    0  502  501  0.00000000000E+00  0.00000000000E+00  0.19262294099E+03  0.19262294099E+03  0.00000000000E+00 0.  1.
         21   -1    0    0  501  502 -0.00000000000E+00 -0.00000000000E+00 -0.26243090831E+03  0.26243090831E+03  0.00000000000E+00 0.  1.
      99926    2    1    2    0    0  0.00000000000E+00 -0.14210854715E-13 -0.69807967328E+02  0.45505384930E+03  0.44966749211E+03 0.  0.
      99925    2    3    3    0    0  0.94875372382E+01  0.87454848674E+02  0.19283060471E+02  0.27807056406E+03  0.26308370960E+03 0.  0.
         25    1    4    4    0    0 -0.24923842980E+02  0.64506697929E+02 -0.93712029988E+01  0.14323979745E+03  0.12509000000E+03 0.  0.
         25    1    3    3    0    0 -0.94875372382E+01 -0.87454848674E+02 -0.89091027799E+02  0.17698328524E+03  0.12509000000E+03 0.  0.
         25    1    4    4    0    0  0.34411380218E+02  0.22948150745E+02  0.28654263470E+02  0.13483076662E+03  0.12509000000E+03 0.  0.
<mgrwt>
<rscale>  2 0.44966749E+03</rscale>
<asrwt>0</asrwt>
<pdfrwt beam="1">  1       21 0.28326903E-01 0.44966749E+03</pdfrwt>
<pdfrwt beam="2">  1       21 0.38592780E-01 0.44966749E+03</pdfrwt>
<totfact> 0.71536527E+04</totfact>
</mgrwt>
</event>
<event>
 7    0  0.4748297E-002  0.4567151E+03  0.7546771E-02  0.1025738E+00
         21   -1    0    0  502  501  0.00000000000E+00  0.00000000000E+00  0.36043564090E+03  0.36043564090E+03  0.00000000000E+00 0.  1.
         21   -1    0    0  501  502 -0.00000000000E+00 -0.00000000000E+00 -0.14467817032E+03  0.14467817032E+03  0.00000000000E+00 0.  1.
      99926    2    1    2    0    0  0.00000000000E+00  0.00000000000E+00  0.21575747059E+03  0.50511381122E+03  0.45671509300E+03 0.  0.
      99925    2    3    3    0    0 -0.71976859272E+02  0.89414979275E+02  0.13705011438E+03  0.31798267321E+03  0.26297250773E+03 0.  0.
         25    1    4    4    0    0 -0.43214301456E+01  0.53666392759E+02  0.39269201362E+02  0.14173332264E+03  0.12509000000E+03 0.  0.
         25    1    4    4    0    0 -0.67655429127E+02  0.35748586516E+02  0.97780913016E+02  0.17624935058E+03  0.12509000000E+03 0.  0.
         25    1    3    3    0    0  0.71976859272E+02 -0.89414979275E+02  0.78707356207E+02  0.18713113800E+03  0.12509000000E+03 0.  0.
<mgrwt>
<rscale>  2 0.45671509E+03</rscale>
<asrwt>0</asrwt>
<pdfrwt beam="1">  1       21 0.53005241E-01 0.45671509E+03</pdfrwt>
<pdfrwt beam="2">  1       21 0.21276202E-01 0.45671509E+03</pdfrwt>
<totfact> 0.64036665E+04</totfact>
</mgrwt>
</event>
<event>
 7    0  0.4748297E-002  0.4543367E+03  0.7546771E-02  0.1026437E+00
         21   -1    0    0  502  501  0.00000000000E+00  0.00000000000E+00  0.10306145110E+03  0.10306145110E+03  0.00000000000E+00 0. -1.
         21   -1    0    0  501  502 -0.00000000000E+00 -0.00000000000E+00 -0.50072512627E+03  0.50072512627E+03  0.00000000000E+00 0. -1.
      99926    2    1    2    0    0  0.00000000000E+00  0.00000000000E+00 -0.39766367517E+03  0.60378657737E+03  0.45433669505E+03 0.  0.
      99925    2    3    3    0    0  0.29490331080E+02  0.59723512709E+02 -0.12979886395E+03  0.30074261557E+03  0.26298630789E+03 0.  0.
         25    1    3    3    0    0 -0.29490331080E+02 -0.59723512709E+02 -0.26786481122E+03  0.30304396180E+03  0.12509000000E+03 0.  0.
         25    1    4    4    0    0  0.45010741629E+01  0.69371838147E+02 -0.62019038987E+02  0.15596980763E+03  0.12509000000E+03 0.  0.
         25    1    4    4    0    0  0.24989256917E+02 -0.96483254384E+01 -0.67779824966E+02  0.14477280794E+03  0.12509000000E+03 0.  0.
<mgrwt>
<rscale>  2 0.45433670E+03</rscale>
<asrwt>0</asrwt>
<pdfrwt beam="1">  1       21 0.15156096E-01 0.45433670E+03</pdfrwt>
<pdfrwt beam="2">  1       21 0.73636048E-01 0.45433670E+03</pdfrwt>
<totfact> 0.58753080E+04</totfact>
</mgrwt>
</event>
<event>
 7    0  0.4748297E-002  0.4534511E+03  0.7546771E-02  0.1026698E+00
         21   -1    0    0  502  501  0.00000000000E+00  0.00000000000E+00  0.86900607089E+02  0.86900607089E+02  0.00000000000E+00 0.  1.
         21   -1    0    0  501  502 -0.00000000000E+00 -0.00000000000E+00 -0.59153173153E+03  0.59153173153E+03  0.00000000000E+00 0.  1.
      99926    2    1    2    0    0 -0.35527136788E-14 -0.17763568394E-14 -0.50463112444E+03  0.67843233862E+03  0.45345106277E+03 0.  0.
      99925    2    3    3    0    0  0.17626717236E+02  0.13227291436E+02 -0.48193445361E+03  0.54940401085E+03  0.26286553057E+03 0.  0.
         25    1    4    4    0    0  0.35028575471E+02  0.26966000920E+02 -0.29412939406E+03  0.32266666214E+03  0.12509000000E+03 0.  0.
         25    1    3    3    0    0 -0.17626717236E+02 -0.13227291436E+02 -0.22696670827E+02  0.12902832777E+03  0.12509000000E+03 0.  0.
         25    1    4    4    0    0 -0.17401858234E+02 -0.13738709484E+02 -0.18780505955E+03  0.22673734871E+03  0.12509000000E+03 0.  0.
<mgrwt>
<rscale>  2 0.45345106E+03</rscale>
<asrwt>0</asrwt>
<pdfrwt beam="1">  1       21 0.12779501E-01 0.45345106E+03</pdfrwt>
<pdfrwt beam="2">  1       21 0.86989964E-01 0.45345106E+03</pdfrwt>
<totfact> 0.54754956E+04</totfact>
</mgrwt>
</event>
<event>
 7    0  0.4748297E-002  0.4527484E+03  0.7546771E-02  0.1026906E+00
         21   -1    0    0  502  501  0.00000000000E+00  0.00000000000E+00  0.13028583877E+04  0.13028583877E+04  0.00000000000E+00 0.  1.
         21   -1    0    0  501  502 -0.00000000000E+00 -0.00000000000E+00 -0.39332955611E+02  0.39332955611E+02  0.00000000000E+00 0.  1.
      99926    2    1    2    0    0  0.00000000000E+00  0.14210854715E-13  0.12635254320E+04  0.13421913433E+04  0.45274836777E+03 0.  0.
      99925    2    3    3    0    0  0.58618873880E+02  0.92881812403E+02  0.74809986240E+03  0.80055102960E+03  0.26299304822E+03 0.  0.
         25    1    4    4    0    0  0.10164162218E+02  0.94640420820E+01  0.36823187642E+03  0.38914663201E+03  0.12509000000E+03 0.  0.
         25    1    3    3    0    0 -0.58618873880E+02 -0.92881812403E+02  0.51542556964E+03  0.54164031366E+03  0.12509000000E+03 0.  0.
         25    1    4    4    0    0  0.48454711662E+02  0.83417770321E+02  0.37986798598E+03  0.41140439759E+03  0.12509000000E+03 0.  0.
<mgrwt>
<rscale>  2 0.45274837E+03</rscale>
<asrwt>0</asrwt>
<pdfrwt beam="1">  1       21 0.19159679E+00 0.45274837E+03</pdfrwt>
<pdfrwt beam="2">  1       21 0.57842590E-02 0.45274837E+03</pdfrwt>
<totfact> 0.28407683E+04</totfact>
</mgrwt>
</event>
<event>
 7    0  0.4748297E-002  0.4537292E+03  0.7546771E-02  0.1026616E+00
         21   -1    0    0  502  501  0.00000000000E+00  0.00000000000E+00  0.38966893604E+03  0.38966893604E+03  0.00000000000E+00 0.  1.
         21   -1    0    0  501  502 -0.00000000000E+00 -0.00000000000E+00 -0.13208019339E+03  0.13208019339E+03  0.00000000000E+00 0.  1.
      99926    2    1    2    0    0 -0.71054273576E-14  0.00000000000E+00  0.25758874265E+03  0.52174912943E+03  0.45372920748E+03 0.  0.
      99925    2    3    3    0    0 -0.37695285457E+02 -0.38791386674E+02  0.27502297336E+03  0.38435492749E+03  0.26299309532E+03 0.  0.
         25    1    4    4    0    0 -0.41030468240E+02  0.13199364450E+02  0.12215767896E+03  0.18007700901E+03  0.12509000000E+03 0.  0.
         25    1    3    3    0    0  0.37695285457E+02  0.38791386674E+02 -0.17434230711E+02  0.13739420194E+03  0.12509000000E+03 0.  0.
         25    1    4    4    0    0  0.33351827833E+01 -0.51990751124E+02  0.15286529440E+03  0.20427791848E+03  0.12509000000E+03 0.  0.
<mgrwt>
<rscale>  2 0.45372921E+03</rscale>
<asrwt>0</asrwt>
<pdfrwt beam="1">  1       21 0.57304255E-01 0.45372921E+03</pdfrwt>
<pdfrwt beam="2">  1       21 0.19423558E-01 0.45372921E+03</pdfrwt>
<totfact> 0.64414975E+04</totfact>
</mgrwt>
</event>
<event>
 7    0  0.4748297E-002  0.4603808E+03  0.7546771E-02  0.1024671E+00
         21   -1    0    0  502  501  0.00000000000E+00  0.00000000000E+00  0.54069610370E+02  0.54069610370E+02  0.00000000000E+00 0. -1.
         21   -1    0    0  501  502 -0.00000000000E+00 -0.00000000000E+00 -0.97998875287E+03  0.97998875287E+03  0.00000000000E+00 0. -1.
      99926    2    1    2    0    0  0.00000000000E+00 -0.71054273576E-14 -0.92591914250E+03  0.10340583632E+04  0.46038075561E+03 0.  0.
      99925    2    3    3    0    0 -0.14078908355E+02 -0.62455516206E+02 -0.80288544599E+03  0.84728656199E+03  0.26300298778E+03 0.  0.
         25    1    3    3    0    0  0.14078908355E+02  0.62455516206E+02 -0.12303369651E+03  0.18677180125E+03  0.12509000000E+03 0.  0.
         25    1    4    4    0    0  0.13462248847E+02 -0.56743424520E+02 -0.33926047676E+03  0.36625978152E+03  0.12509000000E+03 0.  0.
         25    1    4    4    0    0 -0.27541157202E+02 -0.57120916857E+01 -0.46362496923E+03  0.48102678047E+03  0.12509000000E+03 0.  0.
<mgrwt>
<rscale>  2 0.46038076E+03</rscale>
<asrwt>0</asrwt>
<pdfrwt beam="1">  1       21 0.79514130E-02 0.46038076E+03</pdfrwt>
<pdfrwt beam="2">  1       21 0.14411600E+00 0.46038076E+03</pdfrwt>
<totfact> 0.36318118E+04</totfact>
</mgrwt>
</event>
<event>
 7    0  0.4748297E-002  0.4555956E+03  0.7546771E-02  0.1026066E+00
         21   -1    0    0  502  501  0.00000000000E+00  0.00000000000E+00  0.19665485235E+02  0.19665485235E+02  0.00000000000E+00 0.  1.
         21   -1    0    0  501  502 -0.00000000000E+00 -0.00000000000E+00 -0.26387266193E+04  0.26387266193E+04  0.00000000000E+00 0.  1.
      99926    2    1    2    0    0  0.00000000000E+00  0.00000000000E+00 -0.26190611341E+04  0.26583921046E+04  0.45559560741E+03 0.  0.
      99925    2    3    3    0    0 -0.32581182314E+02  0.24015877047E+02 -0.22672961037E+04  0.22828598949E+04  0.26301973704E+03 0.  0.
         25    1    4    4    0    0  0.47533976913E+01  0.24397483254E+02 -0.84283773340E+03  0.85243227585E+03  0.12509000000E+03 0.  0.
         25    1    4    4    0    0 -0.37334580006E+02 -0.38160620644E+00 -0.14244583703E+04  0.14304276191E+04  0.12509000000E+03 0.  0.
         25    1    3    3    0    0  0.32581182314E+02 -0.24015877047E+02 -0.35176503038E+03  0.37553220966E+03  0.12509000000E+03 0.  0.
<mgrwt>
<rscale>  2 0.45559561E+03</rscale>
<asrwt>0</asrwt>
<pdfrwt beam="1">  1       21 0.28919843E-02 0.45559561E+03</pdfrwt>
<pdfrwt beam="2">  1       21 0.38804788E+00 0.45559561E+03</pdfrwt>
<totfact> 0.56171954E+03</totfact>
</mgrwt>
</event>
<event>
 7    0  0.4748297E-002  0.4691959E+03  0.7546771E-02  0.1022147E+00
         21   -1    0    0  502  501  0.00000000000E+00  0.00000000000E+00  0.63567544700E+03  0.63567544700E+03  0.00000000000E+00 0. -1.
         21   -1    0    0  501  502 -0.00000000000E+00 -0.00000000000E+00 -0.86579099580E+02  0.86579099580E+02  0.00000000000E+00 0. -1.
      99926    2    1    2    0    0  0.14210854715E-13 -0.44408920985E-15  0.54909634742E+03  0.72225454658E+03  0.46919594127E+03 0.  0.
      99925    2    3    3    0    0  0.12420162991E+03 -0.28298015397E+01  0.37362196979E+03  0.47351207342E+03  0.26303280160E+03 0.  0.
         25    1    4    4    0    0  0.10123190672E+03  0.37112458059E+01  0.17693676467E+03  0.23919824221E+03  0.12509000000E+03 0.  0.
         25    1    3    3    0    0 -0.12420162991E+03  0.28298015397E+01  0.17547437763E+03  0.24874247316E+03  0.12509000000E+03 0.  0.
         25    1    4    4    0    0  0.22969723188E+02 -0.65410473456E+01  0.19668520512E+03  0.23431383121E+03  0.12509000000E+03 0.  0.
<mgrwt>
<rscale>  2 0.46919594E+03</rscale>
<asrwt>0</asrwt>
<pdfrwt beam="1">  1       21 0.93481681E-01 0.46919594E+03</pdfrwt>
<pdfrwt beam="2">  1       21 0.12732221E-01 0.46919594E+03</pdfrwt>
<totfact> 0.46318729E+04</totfact>
</mgrwt>
</event>
<event>
 7    0  0.4748297E-002  0.4556135E+03  0.7546771E-02  0.1026061E+00
         21   -1    0    0  502  501  0.00000000000E+00  0.00000000000E+00  0.33848422603E+03  0.33848422603E+03  0.00000000000E+00 0.  1.
         21   -1    0    0  501  502 -0.00000000000E+00 -0.00000000000E+00 -0.15331859662E+03  0.15331859662E+03  0.00000000000E+00 0.  1.
      99926    2    1    2    0    0 -0.14210854715E-13  0.00000000000E+00  0.18516562940E+03  0.49180282265E+03  0.45561354902E+03 0.  0.
      99925    2    3    3    0    0  0.84265294852E+02 -0.76061987786E+02  0.12218919058E+03  0.31152635206E+03  0.26312051199E+03 0.  0.
         25    1    3    3    0    0 -0.84265294852E+02  0.76061987786E+02  0.62976438824E+02  0.18027647059E+03  0.12509000000E+03 0.  0.
         25    1    4    4    0    0  0.25983958380E+02 -0.47885897604E+00  0.70430728451E+02  0.14588828263E+03  0.12509000000E+03 0.  0.
         25    1    4    4    0    0  0.58281336471E+02 -0.75583128810E+02  0.51758462128E+02  0.16563806943E+03  0.12509000000E+03 0.  0.
<mgrwt>
<rscale>  2 0.45561355E+03</rscale>
<asrwt>0</asrwt>
<pdfrwt beam="1">  1       21 0.49777092E-01 0.45561355E+03</pdfrwt>
<pdfrwt beam="2">  1       21 0.22546852E-01 0.45561355E+03</pdfrwt>
<totfact> 0.65530690E+04</totfact>
</mgrwt>
</event>
<event>
 7    0  0.4748297E-002  0.4297128E+03  0.7546771E-02  0.1033951E+00
         21   -1    0    0  502  501  0.00000000000E+00  0.00000000000E+00  0.23748046622E+03  0.23748046622E+03  0.00000000000E+00 0. -1.
         21   -1    0    0  501  502 -0.00000000000E+00 -0.00000000000E+00 -0.19438765477E+03  0.19438765477E+03  0.00000000000E+00 0. -1.
      99926    2    1    2    0    0  0.00000000000E+00  0.13322676296E-14  0.43092811453E+02  0.43186812099E+03  0.42971279191E+03 0.  0.
      99925    2    3    3    0    0 -0.51019419585E+02 -0.35182189281E+01 -0.43383195897E+02  0.27142820393E+03  0.26301294486E+03 0.  0.
         25    1    4    4    0    0 -0.34001666670E+02  0.36872489652E+02 -0.12633200174E+02  0.13536173638E+03  0.12509000000E+03 0.  0.
         25    1    4    4    0    0 -0.17017752914E+02 -0.40390708581E+02 -0.30749995722E+02  0.13606646755E+03  0.12509000000E+03 0.  0.
         25    1    3    3    0    0  0.51019419585E+02  0.35182189281E+01  0.86476007349E+02  0.16043991706E+03  0.12509000000E+03 0.  0.
<mgrwt>
<rscale>  2 0.42971279E+03</rscale>
<asrwt>0</asrwt>
<pdfrwt beam="1">  1       21 0.34923598E-01 0.42971279E+03</pdfrwt>
<pdfrwt beam="2">  1       21 0.28586420E-01 0.42971279E+03</pdfrwt>
<totfact> 0.86442150E+04</totfact>
</mgrwt>
</event>
<event>
 7    0  0.4748297E-002  0.4577009E+03  0.7546771E-02  0.1025450E+00
         21   -1    0    0  502  501  0.00000000000E+00  0.00000000000E+00  0.31934140020E+03  0.31934140020E+03  0.00000000000E+00 0. -1.
         21   -1    0    0  501  502 -0.00000000000E+00 -0.00000000000E+00 -0.16400170076E+03  0.16400170076E+03  0.00000000000E+00 0. -1.
      99926    2    1    2    0    0  0.71054273576E-14  0.14210854715E-13  0.15533969944E+03  0.48334310096E+03  0.45770091875E+03 0.  0.
      99925    2    3    3    0    0  0.34554985394E+02  0.10490611542E+03  0.60492821764E+02  0.29139837357E+03  0.26278183073E+03 0.  0.
         25    1    4    4    0    0  0.19776453951E+02  0.96239625028E+01  0.30855517852E+02  0.13070309815E+03  0.12509000000E+03 0.  0.
         25    1    3    3    0    0 -0.34554985394E+02 -0.10490611542E+03  0.94846877674E+02  0.19194472739E+03  0.12509000000E+03 0.  0.
         25    1    4    4    0    0  0.14778531443E+02  0.95282152919E+02  0.29637303911E+02  0.16069527541E+03  0.12509000000E+03 0.  0.
<mgrwt>
<rscale>  2 0.45770092E+03</rscale>
<asrwt>0</asrwt>
<pdfrwt beam="1">  1       21 0.46961971E-01 0.45770092E+03</pdfrwt>
<pdfrwt beam="2">  1       21 0.24117897E-01 0.45770092E+03</pdfrwt>
<totfact> 0.65051643E+04</totfact>
</mgrwt>
</event>
<event>
 7    0  0.4748297E-002  0.4501204E+03  0.7546771E-02  0.1027686E+00
         21   -1    0    0  502  501  0.00000000000E+00  0.00000000000E+00  0.97817119071E+03  0.97817119071E+03  0.00000000000E+00 0.  1.
         21   -1    0    0  501  502 -0.00000000000E+00 -0.00000000000E+00 -0.51782445303E+02  0.51782445303E+02  0.00000000000E+00 0.  1.
      99926    2    1    2    0    0 -0.71054273576E-14  0.00000000000E+00  0.92638874540E+03  0.10299536360E+04  0.45012041135E+03 0.  0.
      99925    2    3    3    0    0 -0.55421789695E+02  0.34159018415E+02  0.38687625384E+03  0.47231607454E+03  0.26300346988E+03 0.  0.
         25    1    4    4    0    0  0.70360119399E+01  0.28853615765E+02  0.15370099095E+03  0.20038348067E+03  0.12509000000E+03 0.  0.
         25    1    4    4    0    0 -0.62457801635E+02  0.53054026499E+01  0.23317526289E+03  0.27193259386E+03  0.12509000000E+03 0.  0.
         25    1    3    3    0    0  0.55421789695E+02 -0.34159018415E+02  0.53951249156E+03  0.55763756147E+03  0.12509000000E+03 0.  0.
<mgrwt>
<rscale>  2 0.45012041E+03</rscale>
<asrwt>0</asrwt>
<pdfrwt beam="1">  1       21 0.14384869E+00 0.45012041E+03</pdfrwt>
<pdfrwt beam="2">  1       21 0.76150661E-02 0.45012041E+03</pdfrwt>
<totfact> 0.39505277E+04</totfact>
</mgrwt>
</event>
<event>
 7    0  0.4748297E-002  0.4509077E+03  0.7546771E-02  0.1027452E+00
         21   -1    0    0  502  501  0.00000000000E+00  0.00000000000E+00  0.11399063665E+03  0.11399063665E+03  0.00000000000E+00 0.  1.
         21   -1    0    0  501  502 -0.00000000000E+00 -0.00000000000E+00 -0.44590883205E+03  0.44590883205E+03  0.00000000000E+00 0.  1.
      99926    2    1    2    0    0  0.00000000000E+00  0.00000000000E+00 -0.33191819540E+03  0.55989946870E+03  0.45090766972E+03 0.  0.
      99925    2    3    3    0    0  0.25488324050E+02  0.10563899375E+03 -0.22403233325E+03  0.36217208310E+03  0.26299977143E+03 0.  0.
         25    1    4    4    0    0  0.57486007886E+01  0.21941042096E+02 -0.66761337414E+02  0.14359331465E+03  0.12509000000E+03 0.  0.
         25    1    4    4    0    0  0.19739723261E+02  0.83697951657E+02 -0.15727099583E+03  0.21857876845E+03  0.12509000000E+03 0.  0.
         25    1    3    3    0    0 -0.25488324050E+02 -0.10563899375E+03 -0.10788586216E+03  0.19772738560E+03  0.12509000000E+03 0.  0.
<mgrwt>
<rscale>  2 0.45090767E+03</rscale>
<asrwt>0</asrwt>
<pdfrwt beam="1">  1       21 0.16763329E-01 0.45090767E+03</pdfrwt>
<pdfrwt beam="2">  1       21 0.65574827E-01 0.45090767E+03</pdfrwt>
<totfact> 0.63239361E+04</totfact>
</mgrwt>
</event>
<event>
 7    0  0.4748297E-002  0.4536289E+03  0.7546771E-02  0.1026645E+00
         21   -1    0    0  502  501  0.00000000000E+00  0.00000000000E+00  0.81169809657E+02  0.81169809657E+02  0.00000000000E+00 0.  1.
         21   -1    0    0  501  502 -0.00000000000E+00 -0.00000000000E+00 -0.63379216077E+03  0.63379216077E+03  0.00000000000E+00 0.  1.
      99926    2    1    2    0    0 -0.88817841970E-15  0.14210854715E-13 -0.55262235111E+03  0.71496197042E+03  0.45362887497E+03 0.  0.
      99925    2    3    3    0    0 -0.70331040532E+01  0.10687509816E+03 -0.29657394382E+03  0.41052799378E+03  0.26287901850E+03 0.  0.
         25    1    4    4    0    0  0.35076383521E+02  0.48561993071E+02 -0.16143852314E+03  0.21283450074E+03  0.12509000000E+03 0.  0.
         25    1    4    4    0    0 -0.42109487574E+02  0.58313105084E+02 -0.13513542068E+03  0.19769349304E+03  0.12509000000E+03 0.  0.
         25    1    3    3    0    0  0.70331040532E+01 -0.10687509816E+03 -0.25604840729E+03  0.30443397664E+03  0.12509000000E+03 0.  0.
<mgrwt>
<rscale>  2 0.45362887E+03</rscale>
<asrwt>0</asrwt>
<pdfrwt beam="1">  1       21 0.11936737E-01 0.45362887E+03</pdfrwt>
<pdfrwt beam="2">  1       21 0.93204730E-01 0.45362887E+03</pdfrwt>
<totfact> 0.52663907E+04</totfact>
</mgrwt>
</event>
<event>
 7    0  0.4748297E-002  0.4200758E+03  0.7546771E-02  0.1037042E+00
         21   -1    0    0  502  501  0.00000000000E+00  0.00000000000E+00  0.21736684260E+03  0.21736684260E+03  0.00000000000E+00 0. -1.
         21   -1    0    0  501  502 -0.00000000000E+00 -0.00000000000E+00 -0.20295609232E+03  0.20295609232E+03  0.00000000000E+00 0. -1.
      99926    2    1    2    0    0  0.00000000000E+00  0.00000000000E+00  0.14410750277E+02  0.42032293491E+03  0.42007582636E+03 0.  0.
      99925    2    3    3    0    0  0.28098880467E+02 -0.57196563926E+02  0.50945563607E+02  0.27525986348E+03  0.26289075295E+03 0.  0.
         25    1    3    3    0    0 -0.28098880467E+02  0.57196563926E+02 -0.36534813330E+02  0.14506307143E+03  0.12509000000E+03 0.  0.
         25    1    4    4    0    0 -0.82511442501E+01 -0.59920547696E+02  0.12995783865E+02  0.13955268509E+03  0.12509000000E+03 0.  0.
         25    1    4    4    0    0  0.36350024717E+02  0.27239837706E+01  0.37949779742E+02  0.13570717839E+03  0.12509000000E+03 0.  0.
<mgrwt>
<rscale>  2 0.42007583E+03</rscale>
<asrwt>0</asrwt>
<pdfrwt beam="1">  1       21 0.31965712E-01 0.42007583E+03</pdfrwt>
<pdfrwt beam="2">  1       21 0.29846484E-01 0.42007583E+03</pdfrwt>
<totfact> 0.95004428E+04</totfact>
</mgrwt>
</event>
<event>
 7    0  0.4748297E-002  0.4531114E+03  0.7546771E-02  0.1026798E+00
         21   -1    0    0  502  501  0.00000000000E+00  0.00000000000E+00  0.25937730507E+04  0.25937730507E+04  0.00000000000E+00 0. -1.
         21   -1    0    0  501  502 -0.00000000000E+00 -0.00000000000E+00 -0.19788737585E+02  0.19788737585E+02  0.00000000000E+00 0. -1.
      99926    2    1    2    0    0  0.00000000000E+00  0.71054273576E-14  0.25739843132E+04  0.26135617883E+04  0.45311143996E+03 0.  0.
      99925    2    3    3    0    0 -0.82069207390E+02 -0.45613160167E+02  0.12770338113E+04  0.13072141976E+04  0.26301651710E+03 0.  0.
         25    1    4    4    0    0 -0.68977961320E+02 -0.51940577546E+02  0.63407115313E+03  0.65203490556E+03  0.12509000000E+03 0.  0.
         25    1    3    3    0    0  0.82069207390E+02  0.45613160167E+02  0.12969505019E+04  0.13063475907E+04  0.12509000000E+03 0.  0.
         25    1    4    4    0    0 -0.13091246070E+02  0.63274173790E+01  0.64296265812E+03  0.65517929208E+03  0.12509000000E+03 0.  0.
<mgrwt>
<rscale>  2 0.45311144E+03</rscale>
<asrwt>0</asrwt>
<pdfrwt beam="1">  1       21 0.38143698E+00 0.45311144E+03</pdfrwt>
<pdfrwt beam="2">  1       21 0.29101103E-02 0.45311144E+03</pdfrwt>
<totfact> 0.61278397E+03</totfact>
</mgrwt>
</event>
<event>
 7    0  0.4748297E-002  0.4508618E+03  0.7546771E-02  0.1027465E+00
         21   -1    0    0  502  501  0.00000000000E+00  0.00000000000E+00  0.15355950552E+04  0.15355950552E+04  0.00000000000E+00 0. -1.
         21   -1    0    0  501  502 -0.00000000000E+00 -0.00000000000E+00 -0.33094064713E+02  0.33094064713E+02  0.00000000000E+00 0. -1.
      99926    2    1    2    0    0 -0.71054273576E-14  0.35527136788E-14  0.15025009905E+04  0.15686891199E+04  0.45086176209E+03 0.  0.
      99925    2    3    3    0    0 -0.30730570292E+02  0.28234172840E+02  0.12981740303E+04  0.13255049279E+04  0.26451080240E+03 0.  0.
         25    1    4    4    0    0 -0.56617677723E+02  0.96867789784E+01  0.72850879207E+03  0.74139865345E+03  0.12509000000E+03 0.  0.
         25    1    4    4    0    0  0.25887107432E+02  0.18547393862E+02  0.56966523820E+03  0.58410627446E+03  0.12509000000E+03 0.  0.
         25    1    3    3    0    0  0.30730570292E+02 -0.28234172840E+02  0.20432696021E+03  0.24318419199E+03  0.12509000000E+03 0.  0.
<mgrwt>
<rscale>  2 0.45086176E+03</rscale>
<asrwt>0</asrwt>
<pdfrwt beam="1">  1       21 0.22582275E+00 0.45086176E+03</pdfrwt>
<pdfrwt beam="2">  1       21 0.48667753E-02 0.45086176E+03</pdfrwt>
<totfact> 0.22871026E+04</totfact>
</mgrwt>
</event>
<event>
 7    0  0.4748297E-002  0.4622024E+03  0.7546771E-02  0.1024144E+00
         21   -1    0    0  502  501  0.00000000000E+00  0.00000000000E+00  0.12223771272E+04  0.12223771272E+04  0.00000000000E+00 0. -1.
         21   -1    0    0  501  502 -0.00000000000E+00 -0.00000000000E+00 -0.43691716435E+02  0.43691716435E+02  0.00000000000E+00 0. -1.
      99926    2    1    2    0    0 -0.26645352591E-14  0.00000000000E+00  0.11786854108E+04  0.12660688437E+04  0.46220235750E+03 0.  0.
      99925    2    3    3    0    0  0.64744488188E+01 -0.10160341267E+03  0.56451955429E+03  0.63107878126E+03  0.26308350201E+03 0.  0.
         25    1    4    4    0    0  0.42882612896E+02 -0.55890822492E+02  0.30586673749E+03  0.33788263011E+03  0.12509000000E+03 0.  0.
         25    1    4    4    0    0 -0.36408164077E+02 -0.45712590176E+02  0.25865281680E+03  0.29319615115E+03  0.12509000000E+03 0.  0.
         25    1    3    3    0    0 -0.64744488188E+01  0.10160341267E+03  0.61416585650E+03  0.63499006240E+03  0.12509000000E+03 0.  0.
<mgrwt>
<rscale>  2 0.46220236E+03</rscale>
<asrwt>0</asrwt>
<pdfrwt beam="1">  1       21 0.17976132E+00 0.46220236E+03</pdfrwt>
<pdfrwt beam="2">  1       21 0.64252532E-02 0.46220236E+03</pdfrwt>
<totfact> 0.28485608E+04</totfact>
</mgrwt>
</event>
<event>
 7    0  0.4748297E-002  0.4521151E+03  0.7546771E-02  0.1027093E+00
         21   -1    0    0  502  501  0.00000000000E+00  0.00000000000E+00  0.74798267553E+03  0.74798267553E+03  0.00000000000E+00 0.  1.
         21   -1    0    0  501  502 -0.00000000000E+00 -0.00000000000E+00 -0.68319783138E+02  0.68319783138E+02  0.00000000000E+00 0.  1.
      99926    2    1    2    0    0  0.00000000000E+00  0.00000000000E+00  0.67966289239E+03  0.81630245866E+03  0.45211509235E+03 0.  0.
      99925    2    3    3    0    0  0.13697835945E+02  0.45751827012E+02  0.24866040599E+03  0.36498049845E+03  0.26286480624E+03 0.  0.
         25    1    4    4    0    0  0.21566377572E+02  0.66482766811E+01  0.16879574609E+03  0.21130267443E+03  0.12509000000E+03 0.  0.
         25    1    3    3    0    0 -0.13697835945E+02 -0.45751827012E+02  0.43100248640E+03  0.45132196021E+03  0.12509000000E+03 0.  0.
         25    1    4    4    0    0 -0.78685416273E+01  0.39103550331E+02  0.79864659901E+02  0.15367782402E+03  0.12509000000E+03 0.  0.
<mgrwt>
<rscale>  2 0.45211509E+03</rscale>
<asrwt>0</asrwt>
<pdfrwt beam="1">  1       21 0.10999745E+00 0.45211509E+03</pdfrwt>
<pdfrwt beam="2">  1       21 0.10047027E-01 0.45211509E+03</pdfrwt>
<totfact> 0.48065249E+04</totfact>
</mgrwt>
</event>
<event>
 7    0  0.4748297E-002  0.4593091E+03  0.7546771E-02  0.1024982E+00
         21   -1    0    0  502  501  0.00000000000E+00  0.00000000000E+00  0.18101698350E+03  0.18101698350E+03  0.00000000000E+00 0. -1.
         21   -1    0    0  501  502 -0.00000000000E+00 -0.00000000000E+00 -0.29136058963E+03  0.29136058963E+03  0.00000000000E+00 0. -1.
      99926    2    1    2    0    0  0.00000000000E+00  0.88817841970E-15 -0.11034360613E+03  0.47237757312E+03  0.45930911179E+03 0.  0.
      99925    2    3    3    0    0 -0.78621305379E+02  0.79837918990E+01  0.19650396255E+02  0.27542326535E+03  0.26310983720E+03 0.  0.
         25    1    4    4    0    0 -0.65946245893E+02  0.29209211329E+02  0.30059537279E+02  0.14748955643E+03  0.12509000000E+03 0.  0.
         25    1    3    3    0    0  0.78621305379E+02 -0.79837918990E+01 -0.12999400239E+03  0.19695430777E+03  0.12509000000E+03 0.  0.
         25    1    4    4    0    0 -0.12675059486E+02 -0.21225419430E+02 -0.10409141024E+02  0.12793370893E+03  0.12509000000E+03 0.  0.
<mgrwt>
<rscale>  2 0.45930911E+03</rscale>
<asrwt>0</asrwt>
<pdfrwt beam="1">  1       21 0.26620145E-01 0.45930911E+03</pdfrwt>
<pdfrwt beam="2">  1       21 0.42847145E-01 0.45930911E+03</pdfrwt>
<totfact> 0.65008566E+04</totfact>
</mgrwt>
</event>
<event>
 7    0  0.4748297E-002  0.4555188E+03  0.7546771E-02  0.1026089E+00
         21   -1    0    0  502  501  0.00000000000E+00  0.00000000000E+00  0.59856594497E+02  0.59856594497E+02  0.00000000000E+00 0. -1.
         21   -1    0    0  501  502 -0.00000000000E+00 -0.00000000000E+00 -0.86664394018E+03  0.86664394018E+03  0.00000000000E+00 0. -1.
      99926    2    1    2    0    0  0.00000000000E+00 -0.71054273576E-14 -0.80678734568E+03  0.92650053468E+03  0.45551884660E+03 0.  0.
      99925    2    3    3    0    0  0.92422011584E+02 -0.41309886551E+02 -0.61258197495E+03  0.67428719428E+03  0.26297948473E+03 0.  0.
         25    1    4    4    0    0  0.34829028546E+02 -0.58082071494E+02 -0.28446722464E+03  0.31804983611E+03  0.12509000000E+03 0.  0.
         25    1    4    4    0    0  0.57592983037E+02  0.16772184943E+02 -0.32811475031E+03  0.35623735816E+03  0.12509000000E+03 0.  0.
         25    1    3    3    0    0 -0.92422011584E+02  0.41309886551E+02 -0.19420537074E+03  0.25221334040E+03  0.12509000000E+03 0.  0.
<mgrwt>
<rscale>  2 0.45551885E+03</rscale>
<asrwt>0</asrwt>
<pdfrwt beam="1">  1       21 0.88024410E-02 0.45551885E+03</pdfrwt>
<pdfrwt beam="2">  1       21 0.12744763E+00 0.45551885E+03</pdfrwt>
<totfact> 0.41936903E+04</totfact>
</mgrwt>
</event>
<event>
 7    0  0.4748297E-002  0.4568172E+03  0.7546771E-02  0.1025708E+00
         21   -1    0    0  502  501  0.00000000000E+00  0.00000000000E+00  0.29733323691E+03  0.29733323691E+03  0.00000000000E+00 0.  1.
         21   -1    0    0  501  502 -0.00000000000E+00 -0.00000000000E+00 -0.17546130334E+03  0.17546130334E+03  0.00000000000E+00 0.  1.
      99926    2    1    2    0    0  0.00000000000E+00  0.52527426853E-14  0.12187193358E+03  0.47279454025E+03  0.45681715061E+03 0.  0.
      99925    2    3    3    0    0  0.19467756408E+02  0.39942270986E-01 -0.40531739471E+02  0.26687840136E+03  0.26306323208E+03 0.  0.
         25    1    4    4    0    0  0.27518518278E+02 -0.36393473706E+02 -0.24048572970E+02  0.13530556433E+03  0.12509000000E+03 0.  0.
         25    1    3    3    0    0 -0.19467756408E+02 -0.39942270986E-01  0.16240367305E+03  0.20591613889E+03  0.12509000000E+03 0.  0.
         25    1    4    4    0    0 -0.80507618700E+01  0.36433415977E+02 -0.16483166501E+02  0.13157283703E+03  0.12509000000E+03 0.  0.
<mgrwt>
<rscale>  2 0.45681715E+03</rscale>
<asrwt>0</asrwt>
<pdfrwt beam="1">  1       21 0.43725476E-01 0.45681715E+03</pdfrwt>
<pdfrwt beam="2">  1       21 0.25803133E-01 0.45681715E+03</pdfrwt>
<totfact> 0.66267937E+04</totfact>
</mgrwt>
</event>
<event>
 7    0  0.4748297E-002  0.4479836E+03  0.7546771E-02  0.1028325E+00
         21   -1    0    0  502  501  0.00000000000E+00  0.00000000000E+00  0.69202080641E+02  0.69202080641E+02  0.00000000000E+00 0.  1.
         21   -1    0    0  501  502 -0.00000000000E+00 -0.00000000000E+00 -0.72501195980E+03  0.72501195980E+03  0.00000000000E+00 0.  1.
      99926    2    1    2    0    0  0.71054273576E-14  0.00000000000E+00 -0.65580987916E+03  0.79421404044E+03  0.44798364304E+03 0.  0.
      99925    2    3    3    0    0 -0.62679238801E+02  0.85568048174E+02 -0.43191291342E+03  0.51667496714E+03  0.26297087108E+03 0.  0.
         25    1    4    4    0    0 -0.10357084349E+02  0.13569487932E+02 -0.15358725087E+03  0.19881637742E+03  0.12509000000E+03 0.  0.
         25    1    4    4    0    0 -0.52322154452E+02  0.71998560242E+02 -0.27832566255E+03  0.31785858972E+03  0.12509000000E+03 0.  0.
         25    1    3    3    0    0  0.62679238801E+02 -0.85568048174E+02 -0.22389696574E+03  0.27753907330E+03  0.12509000000E+03 0.  0.
<mgrwt>
<rscale>  2 0.44798364E+03</rscale>
<asrwt>0</asrwt>
<pdfrwt beam="1">  1       21 0.10176777E-01 0.44798364E+03</pdfrwt>
<pdfrwt beam="2">  1       21 0.10661940E+00 0.44798364E+03</pdfrwt>
<totfact> 0.50785275E+04</totfact>
</mgrwt>
</event>
<event>
 7    0  0.4748297E-002  0.4747741E+03  0.7546771E-02  0.1020581E+00
         21   -1    0    0  502  501  0.00000000000E+00  0.00000000000E+00  0.79302820517E+02  0.79302820517E+02  0.00000000000E+00 0. -1.
         21   -1    0    0  501  502 -0.00000000000E+00 -0.00000000000E+00 -0.71060045645E+03  0.71060045645E+03  0.00000000000E+00 0. -1.
      99926    2    1    2    0    0  0.14210854715E-13  0.00000000000E+00 -0.63129763594E+03  0.78990327697E+03  0.47477413770E+03 0.  0.
      99925    2    3    3    0    0 -0.94553973187E+02  0.88609440251E+02 -0.36105626848E+03  0.46514183910E+03  0.26306503895E+03 0.  0.
         25    1    4    4    0    0 -0.15903955002E+02  0.24337835703E+02 -0.19720063249E+03  0.23533139099E+03  0.12509000000E+03 0.  0.
         25    1    3    3    0    0  0.94553973187E+02 -0.88609440251E+02 -0.27024136745E+03  0.32476143787E+03  0.12509000000E+03 0.  0.
         25    1    4    4    0    0 -0.78650018184E+02  0.64271604548E+02 -0.16385563599E+03  0.22981044811E+03  0.12509000000E+03 0.  0.
<mgrwt>
<rscale>  2 0.47477414E+03</rscale>
<asrwt>0</asrwt>
<pdfrwt beam="1">  1       21 0.11662180E-01 0.47477414E+03</pdfrwt>
<pdfrwt beam="2">  1       21 0.10450007E+00 0.47477414E+03</pdfrwt>
<totfact> 0.41441468E+04</totfact>
</mgrwt>
</event>
<event>
 7    0  0.4748297E-002  0.4498666E+03  0.7546771E-02  0.1027762E+00
         21   -1    0    0  502  501  0.00000000000E+00  0.00000000000E+00  0.29841439729E+03  0.29841439729E+03  0.00000000000E+00 0.  1.
         21   -1    0    0  501  502 -0.00000000000E+00 -0.00000000000E+00 -0.16954607075E+03  0.16954607075E+03  0.00000000000E+00 0.  1.
      99926    2    1    2    0    0 -0.71054273576E-14  0.26645352591E-14  0.12886832653E+03  0.46796046804E+03  0.44986659586E+03 0.  0.
      99925    2    3    3    0    0  0.62415512876E+02 -0.74229006677E+01  0.17326013340E+03  0.32109680229E+03  0.26293209563E+03 0.  0.
         25    1    4    4    0    0  0.19409161282E+02 -0.41975564843E+02  0.78504277973E+02  0.15475494611E+03  0.12509000000E+03 0.  0.
         25    1    4    4    0    0  0.43006351594E+02  0.34552664175E+02  0.94755855430E+02  0.16634185618E+03  0.12509000000E+03 0.  0.
         25    1    3    3    0    0 -0.62415512876E+02  0.74229006677E+01 -0.44391806868E+02  0.14686366575E+03  0.12509000000E+03 0.  0.
<mgrwt>
<rscale>  2 0.44986660E+03</rscale>
<asrwt>0</asrwt>
<pdfrwt beam="1">  1       21 0.43884470E-01 0.44986660E+03</pdfrwt>
<pdfrwt beam="2">  1       21 0.24933246E-01 0.44986660E+03</pdfrwt>
<totfact> 0.70411948E+04</totfact>
</mgrwt>
</event>
<event>
 7    0  0.4748297E-002  0.4534733E+03  0.7546771E-02  0.1026691E+00
         21   -1    0    0  502  501  0.00000000000E+00  0.00000000000E+00  0.13334013068E+03  0.13334013068E+03  0.00000000000E+00 0. -1.
         21   -1    0    0  501  502 -0.00000000000E+00 -0.00000000000E+00 -0.38555160007E+03  0.38555160007E+03  0.00000000000E+00 0. -1.
      99926    2    1    2    0    0 -0.88817841970E-15  0.00000000000E+00 -0.25221146939E+03  0.51889173074E+03  0.45347326596E+03 0.  0.
      99925    2    3    3    0    0  0.62864863002E+01  0.10247178751E+03 -0.20942083073E+03  0.35150435368E+03  0.26297954134E+03 0.  0.
         25    1    3    3    0    0 -0.62864863002E+01 -0.10247178751E+03 -0.42790638661E+02  0.16738737707E+03  0.12509000000E+03 0.  0.
         25    1    4    4    0    0  0.17760300052E+02  0.71461116430E+02 -0.69515150422E+02  0.16094093220E+03  0.12509000000E+03 0.  0.
         25    1    4    4    0    0 -0.11473813752E+02  0.31010671079E+02 -0.13990568030E+03  0.19056342147E+03  0.12509000000E+03 0.  0.
<mgrwt>
<rscale>  2 0.45347327E+03</rscale>
<asrwt>0</asrwt>
<pdfrwt beam="1">  1       21 0.19608843E-01 0.45347327E+03</pdfrwt>
<pdfrwt beam="2">  1       21 0.56698763E-01 0.45347327E+03</pdfrwt>
<totfact> 0.64743521E+04</totfact>
</mgrwt>
</event>
<event>
 7    0  0.4748297E-002  0.4545030E+03  0.7546771E-02  0.1026388E+00
         21   -1    0    0  502  501  0.00000000000E+00  0.00000000000E+00  0.52457004903E+02  0.52457004903E+02  0.00000000000E+00 0. -1.
         21   -1    0    0  501  502 -0.00000000000E+00 -0.00000000000E+00 -0.98448705666E+03  0.98448705666E+03  0.00000000000E+00 0. -1.
      99926    2    1    2    0    0 -0.88817841970E-15 -0.14210854715E-13 -0.93203005176E+03  0.10369440616E+04  0.45450299166E+03 0.  0.
      99925    2    3    3    0    0 -0.76817604023E+01 -0.11193981252E+03 -0.60948448876E+03  0.67325095002E+03  0.26307027313E+03 0.  0.
         25    1    4    4    0    0 -0.16650323521E+02 -0.72811988196E+02 -0.40289585666E+03  0.42842898865E+03  0.12509000000E+03 0.  0.
         25    1    4    4    0    0  0.89685631187E+01 -0.39127824324E+02 -0.20658863209E+03  0.24482196137E+03  0.12509000000E+03 0.  0.
         25    1    3    3    0    0  0.76817604023E+01  0.11193981252E+03 -0.32254556300E+03  0.36369311154E+03  0.12509000000E+03 0.  0.
<mgrwt>
<rscale>  2 0.45450299E+03</rscale>
<asrwt>0</asrwt>
<pdfrwt beam="1">  1       21 0.77142648E-02 0.45450299E+03</pdfrwt>
<pdfrwt beam="2">  1       21 0.14477752E+00 0.45450299E+03</pdfrwt>
<totfact> 0.37906989E+04</totfact>
</mgrwt>
</event>
<event>
 7    0  0.4748297E-002  0.4577603E+03  0.7546771E-02  0.1025433E+00
         21   -1    0    0  502  501  0.00000000000E+00  0.00000000000E+00  0.23027415168E+03  0.23027415168E+03  0.00000000000E+00 0. -1.
         21   -1    0    0  501  502 -0.00000000000E+00 -0.00000000000E+00 -0.22749460199E+03  0.22749460199E+03  0.00000000000E+00 0. -1.
      99926    2    1    2    0    0  0.00000000000E+00 -0.71054273576E-14  0.27795496822E+01  0.45776875367E+03  0.45776031495E+03 0.  0.
      99925    2    3    3    0    0  0.10040051281E+03 -0.56676858656E+02  0.13646072548E+02  0.28730433305E+03  0.26280227398E+03 0.  0.
         25    1    4    4    0    0  0.66084731457E+02  0.81315302654E+01  0.13003540712E+02  0.14230219144E+03  0.12509000000E+03 0.  0.
         25    1    3    3    0    0 -0.10040051281E+03  0.56676858656E+02 -0.10866522865E+02  0.17046442062E+03  0.12509000000E+03 0.  0.
         25    1    4    4    0    0  0.34315781353E+02 -0.64808388922E+02  0.64253183539E+00  0.14500214161E+03  0.12509000000E+03 0.  0.
<mgrwt>
<rscale>  2 0.45776031E+03</rscale>
<asrwt>0</asrwt>
<pdfrwt beam="1">  1       21 0.33863846E-01 0.45776031E+03</pdfrwt>
<pdfrwt beam="2">  1       21 0.33455088E-01 0.45776031E+03</pdfrwt>
<totfact> 0.66858723E+04</totfact>
</mgrwt>
</event>
<event>
 7    0  0.4748297E-002  0.4505288E+03  0.7546771E-02  0.1027564E+00
         21   -1    0    0  502  501  0.00000000000E+00  0.00000000000E+00  0.58712971217E+03  0.58712971217E+03  0.00000000000E+00 0. -1.
         21   -1    0    0  501  502 -0.00000000000E+00 -0.00000000000E+00 -0.86427315500E+02  0.86427315500E+02  0.00000000000E+00 0. -1.
      99926    2    1    2    0    0  0.71054273576E-14  0.00000000000E+00  0.50070239667E+03  0.67355702767E+03  0.45052877765E+03 0.  0.
      99925    2    3    3    0    0  0.49703121104E+02 -0.94860386148E+02  0.28641254530E+03  0.40330429113E+03  0.26297017327E+03 0.  0.
         25    1    4    4    0    0 -0.11520263661E+00 -0.26168552062E+02  0.16913377602E+03  0.21198714272E+03  0.12509000000E+03 0.  0.
         25    1    3    3    0    0 -0.49703121104E+02  0.94860386148E+02  0.21428985137E+03  0.27025273654E+03  0.12509000000E+03 0.  0.
         25    1    4    4    0    0  0.49818323741E+02 -0.68691834086E+02  0.11727876928E+03  0.19131714840E+03  0.12509000000E+03 0.  0.
<mgrwt>
<rscale>  2 0.45052878E+03</rscale>
<asrwt>0</asrwt>
<pdfrwt beam="1">  1       21 0.86342603E-01 0.45052878E+03</pdfrwt>
<pdfrwt beam="2">  1       21 0.12709900E-01 0.45052878E+03</pdfrwt>
<totfact> 0.56320239E+04</totfact>
</mgrwt>
</event>
<event>
 7    0  0.4748297E-002  0.4489664E+03  0.7546771E-02  0.1028031E+00
         21   -1    0    0  502  501  0.00000000000E+00  0.00000000000E+00  0.74766360867E+02  0.74766360867E+02  0.00000000000E+00 0. -1.
         21   -1    0    0  501  502 -0.00000000000E+00 -0.00000000000E+00 -0.67400233225E+03  0.67400233225E+03  0.00000000000E+00 0. -1.
      99926    2    1    2    0    0 -0.14210854715E-13  0.00000000000E+00 -0.59923597139E+03  0.74876869312E+03  0.44896637557E+03 0.  0.
      99925    2    3    3    0    0  0.72168436414E+02  0.50760424700E+02 -0.27733508409E+03  0.39232431699E+03  0.26309450186E+03 0.  0.
         25    1    3    3    0    0 -0.72168436414E+02 -0.50760424700E+02 -0.32190088730E+03  0.35644437613E+03  0.12509000000E+03 0.  0.
         25    1    4    4    0    0  0.81536852141E+01 -0.59051827061E-02 -0.99410708351E+02  0.15998899853E+03  0.12509000000E+03 0.  0.
         25    1    4    4    0    0  0.64014751200E+02  0.50766329882E+02 -0.17792437574E+03  0.23233531846E+03  0.12509000000E+03 0.  0.
<mgrwt>
<rscale>  2 0.44896638E+03</rscale>
<asrwt>0</asrwt>
<pdfrwt beam="1">  1       21 0.10995053E-01 0.44896638E+03</pdfrwt>
<pdfrwt beam="2">  1       21 0.99117991E-01 0.44896638E+03</pdfrwt>
<totfact> 0.52793204E+04</totfact>
</mgrwt>
</event>
<event>
 7    0  0.4748297E-002  0.4613543E+03  0.7546771E-02  0.1024389E+00
         21   -1    0    0  502  501  0.00000000000E+00  0.00000000000E+00  0.62864916688E+03  0.62864916688E+03  0.00000000000E+00 0.  1.
         21   -1    0    0  501  502 -0.00000000000E+00 -0.00000000000E+00 -0.84644892951E+02  0.84644892951E+02  0.00000000000E+00 0.  1.
      99926    2    1    2    0    0  0.14210854715E-13  0.71054273576E-14  0.54400427393E+03  0.71329405984E+03  0.46135427357E+03 0.  0.
      99925    2    3    3    0    0  0.69523606124E+02  0.21038425986E+02  0.48626595908E+03  0.55754628849E+03  0.26292039418E+03 0.  0.
         25    1    4    4    0    0  0.35711391100E+01 -0.16286491105E+02  0.23871277572E+03  0.27001722208E+03  0.12509000000E+03 0.  0.
         25    1    3    3    0    0 -0.69523606124E+02 -0.21038425986E+02  0.57738314855E+02  0.15574777134E+03  0.12509000000E+03 0.  0.
         25    1    4    4    0    0  0.65952467014E+02  0.37324917091E+02  0.24755318335E+03  0.28752906641E+03  0.12509000000E+03 0.  0.
<mgrwt>
<rscale>  2 0.46135427E+03</rscale>
<asrwt>0</asrwt>
<pdfrwt beam="1">  1       21 0.92448405E-01 0.46135427E+03</pdfrwt>
<pdfrwt beam="2">  1       21 0.12447779E-01 0.46135427E+03</pdfrwt>
<totfact> 0.49657800E+04</totfact>
</mgrwt>
</event>
<event>
 7    0  0.4748297E-002  0.4531338E+03  0.7546771E-02  0.1026792E+00
         21   -1    0    0  502  501  0.00000000000E+00  0.00000000000E+00  0.61245857950E+03  0.61245857950E+03  0.00000000000E+00 0. -1.
         21   -1    0    0  501  502 -0.00000000000E+00 -0.00000000000E+00 -0.83813923212E+02  0.83813923212E+02  0.00000000000E+00 0. -1.
      99926    2    1    2    0    0  0.00000000000E+00  0.00000000000E+00  0.52864465629E+03  0.69627250272E+03  0.45313378313E+03 0.  0.
      99925    2    3    3    0    0 -0.27684232554E+02 -0.22350298281E+02  0.49495582678E+03  0.56192817682E+03  0.26365897079E+03 0.  0.
         25    1    4    4    0    0 -0.28715988394E+02 -0.34615712743E+02  0.31991031471E+03  0.34642888609E+03  0.12509000000E+03 0.  0.
         25    1    4    4    0    0  0.10317558396E+01  0.12265414462E+02  0.17504551207E+03  0.21549929074E+03  0.12509000000E+03 0.  0.
         25    1    3    3    0    0  0.27684232554E+02  0.22350298281E+02  0.33688829512E+02  0.13434432589E+03  0.12509000000E+03 0.  0.
<mgrwt>
<rscale>  2 0.45313378E+03</rscale>
<asrwt>0</asrwt>
<pdfrwt beam="1">  1       21 0.90067437E-01 0.45313378E+03</pdfrwt>
<pdfrwt beam="2">  1       21 0.12325577E-01 0.45313378E+03</pdfrwt>
<totfact> 0.53893062E+04</totfact>
</mgrwt>
</event>
<event>
 7    0  0.4748297E-002  0.4585358E+03  0.7546771E-02  0.1025207E+00
         21   -1    0    0  502  501  0.00000000000E+00  0.00000000000E+00  0.20665630375E+03  0.20665630375E+03  0.00000000000E+00 0. -1.
         21   -1    0    0  501  502 -0.00000000000E+00 -0.00000000000E+00 -0.25435354915E+03  0.25435354915E+03  0.00000000000E+00 0. -1.
      99926    2    1    2    0    0  0.00000000000E+00  0.00000000000E+00 -0.47697245397E+02  0.46100985289E+03  0.45853577532E+03 0.  0.
      99925    2    3    3    0    0 -0.10472664061E+02  0.17064120043E+02  0.85038158698E+02  0.27752400471E+03  0.26341454756E+03 0.  0.
         25    1    4    4    0    0 -0.29185024016E+02 -0.22494597785E+02  0.55641847065E+02  0.14177903865E+03  0.12509000000E+03 0.  0.
         25    1    4    4    0    0  0.18712359955E+02  0.39558717828E+02  0.29396311633E+02  0.13574496605E+03  0.12509000000E+03 0.  0.
         25    1    3    3    0    0  0.10472664061E+02 -0.17064120043E+02 -0.13273540410E+03  0.18348584819E+03  0.12509000000E+03 0.  0.
<mgrwt>
<rscale>  2 0.45853578E+03</rscale>
<asrwt>0</asrwt>
<pdfrwt beam="1">  1       21 0.30390633E-01 0.45853578E+03</pdfrwt>
<pdfrwt beam="2">  1       21 0.37404934E-01 0.45853578E+03</pdfrwt>
<totfact> 0.66219823E+04</totfact>
</mgrwt>
</event>
<event>
 7    0  0.4748297E-002  0.4513309E+03  0.7546771E-02  0.1027326E+00
         21   -1    0    0  502  501  0.00000000000E+00  0.00000000000E+00  0.46036122226E+02  0.46036122226E+02  0.00000000000E+00 0.  1.
         21   -1    0    0  501  502 -0.00000000000E+00 -0.00000000000E+00 -0.11061941270E+04  0.11061941270E+04  0.00000000000E+00 0.  1.
      99926    2    1    2    0    0  0.00000000000E+00  0.00000000000E+00 -0.10601580048E+04  0.11522302493E+04  0.45133086772E+03 0.  0.
      99925    2    3    3    0    0  0.35265524862E+02  0.95824867667E+02 -0.77168655363E+03  0.82164085326E+03  0.26299713340E+03 0.  0.
         25    1    4    4    0    0  0.13753623026E+02  0.84555825265E+02 -0.35819349797E+03  0.38895878936E+03  0.12509000000E+03 0.  0.
         25    1    3    3    0    0 -0.35265524862E+02 -0.95824867667E+02 -0.28847145119E+03  0.33058939602E+03  0.12509000000E+03 0.  0.
         25    1    4    4    0    0  0.21511901835E+02  0.11269042401E+02 -0.41349305566E+03  0.43268206390E+03  0.12509000000E+03 0.  0.
<mgrwt>
<rscale>  2 0.45133087E+03</rscale>
<asrwt>0</asrwt>
<pdfrwt beam="1">  1       21 0.67700188E-02 0.45133087E+03</pdfrwt>
<pdfrwt beam="2">  1       21 0.16267559E+00 0.45133087E+03</pdfrwt>
<totfact> 0.34689382E+04</totfact>
</mgrwt>
</event>
<event>
 7    0  0.4748297E-002  0.4525607E+03  0.7546771E-02  0.1026961E+00
         21   -1    0    0  502  501  0.00000000000E+00  0.00000000000E+00  0.12110567058E+04  0.12110567058E+04  0.00000000000E+00 0.  1.
         21   -1    0    0  501  502 -0.00000000000E+00 -0.00000000000E+00 -0.42279431656E+02  0.42279431656E+02  0.00000000000E+00 0.  1.
      99926    2    1    2    0    0  0.35527136788E-14 -0.71054273576E-14  0.11687772742E+04  0.12533361375E+04  0.45256066655E+03 0.  0.
      99925    2    3    3    0    0  0.21296991463E+02 -0.57161026474E+02  0.48066886243E+03  0.55129508512E+03  0.26298815710E+03 0.  0.
         25    1    4    4    0    0  0.27278476816E+01  0.64425109687E+01  0.18424493112E+03  0.22280630567E+03  0.12509000000E+03 0.  0.
         25    1    4    4    0    0  0.18569143782E+02 -0.63603537442E+02  0.29642393130E+03  0.32848877945E+03  0.12509000000E+03 0.  0.
         25    1    3    3    0    0 -0.21296991463E+02  0.57161026474E+02  0.68810841174E+03  0.70204105236E+03  0.12509000000E+03 0.  0.
<mgrwt>
<rscale>  2 0.45256067E+03</rscale>
<asrwt>0</asrwt>
<pdfrwt beam="1">  1       21 0.17809655E+00 0.45256067E+03</pdfrwt>
<pdfrwt beam="2">  1       21 0.62175642E-02 0.45256067E+03</pdfrwt>
<totfact> 0.31086676E+04</totfact>
</mgrwt>
</event>
<event>
 7    0  0.4748297E-002  0.4522442E+03  0.7546771E-02  0.1027055E+00
         21   -1    0    0  502  501  0.00000000000E+00  0.00000000000E+00  0.33949649268E+03  0.33949649268E+03  0.00000000000E+00 0.  1.
         21   -1    0    0  501  502 -0.00000000000E+00 -0.00000000000E+00 -0.15060895662E+03  0.15060895662E+03  0.00000000000E+00 0.  1.
      99926    2    1    2    0    0  0.35527136788E-14  0.71054273576E-14  0.18888753607E+03  0.49010544930E+03  0.45224423728E+03 0.  0.
      99925    2    3    3    0    0  0.20797590064E+02  0.47489966520E+02  0.11938521723E+02  0.26729095595E+03  0.26194291393E+03 0.  0.
         25    1    4    4    0    0 -0.10132858690E+02 -0.22241256951E+00  0.29062645647E+02  0.12882107655E+03  0.12509000000E+03 0.  0.
         25    1    3    3    0    0 -0.20797590064E+02 -0.47489966520E+02  0.17694901434E+03  0.22281449336E+03  0.12509000000E+03 0.  0.
         25    1    4    4    0    0  0.30930448753E+02  0.47712379090E+02 -0.17124123923E+02  0.13846987939E+03  0.12509000000E+03 0.  0.
<mgrwt>
<rscale>  2 0.45224424E+03</rscale>
<asrwt>0</asrwt>
<pdfrwt beam="1">  1       21 0.49925955E-01 0.45224424E+03</pdfrwt>
<pdfrwt beam="2">  1       21 0.22148376E-01 0.45224424E+03</pdfrwt>
<totfact> 0.67434773E+04</totfact>
</mgrwt>
</event>
<event>
 7    0  0.4748297E-002  0.4572933E+03  0.7546771E-02  0.1025569E+00
         21   -1    0    0  502  501  0.00000000000E+00  0.00000000000E+00  0.64050740151E+03  0.64050740151E+03  0.00000000000E+00 0. -1.
         21   -1    0    0  501  502 -0.00000000000E+00 -0.00000000000E+00 -0.81621691064E+02  0.81621691064E+02  0.00000000000E+00 0. -1.
      99926    2    1    2    0    0  0.14210854715E-13 -0.71054273576E-14  0.55888571045E+03  0.72212909258E+03  0.45729332928E+03 0.  0.
      99925    2    3    3    0    0 -0.90117641032E+02  0.56524935218E+02  0.28036328982E+03  0.39880494498E+03  0.26291738690E+03 0.  0.
         25    1    4    4    0    0 -0.50229861480E+02  0.12126428741E+02  0.86977584014E+02  0.16088100410E+03  0.12509000000E+03 0.  0.
         25    1    4    4    0    0 -0.39887779552E+02  0.44398506477E+02  0.19338570581E+03  0.23792394088E+03  0.12509000000E+03 0.  0.
         25    1    3    3    0    0  0.90117641032E+02 -0.56524935218E+02  0.27852242063E+03  0.32332414760E+03  0.12509000000E+03 0.  0.
<mgrwt>
<rscale>  2 0.45729333E+03</rscale>
<asrwt>0</asrwt>
<pdfrwt beam="1">  1       21 0.94192262E-01 0.45729333E+03</pdfrwt>
<pdfrwt beam="2">  1       21 0.12003190E-01 0.45729333E+03</pdfrwt>
<totfact> 0.50795509E+04</totfact>
</mgrwt>
</event>
<event>
 7    0  0.4748297E-002  0.4557837E+03  0.7546771E-02  0.1026011E+00
         21   -1    0    0  502  501  0.00000000000E+00  0.00000000000E+00  0.32959933330E+03  0.32959933330E+03  0.00000000000E+00 0.  1.
         21   -1    0    0  501  502 -0.00000000000E+00 -0.00000000000E+00 -0.15756915986E+03  0.15756915986E+03  0.00000000000E+00 0.  1.
      99926    2    1    2    0    0  0.00000000000E+00  0.00000000000E+00  0.17203017345E+03  0.48716849316E+03  0.45578367692E+03 0.  0.
      99925    2    3    3    0    0 -0.71023109855E+02  0.77306960423E+02  0.15575174038E+03  0.32305528910E+03  0.26284114388E+03 0.  0.
         25    1    4    4    0    0 -0.68679773658E+02  0.52795623321E+02  0.59777987893E+02  0.16347845451E+03  0.12509000000E+03 0.  0.
         25    1    3    3    0    0  0.71023109855E+02 -0.77306960423E+02  0.16278433063E+02  0.16411320406E+03  0.12509000000E+03 0.  0.
         25    1    4    4    0    0 -0.23433361976E+01  0.24511337102E+02  0.95973752490E+02  0.15957683459E+03  0.12509000000E+03 0.  0.
<mgrwt>
<rscale>  2 0.45578368E+03</rscale>
<asrwt>0</asrwt>
<pdfrwt beam="1">  1       21 0.48470490E-01 0.45578368E+03</pdfrwt>
<pdfrwt beam="2">  1       21 0.23171935E-01 0.45578368E+03</pdfrwt>
<totfact> 0.65771740E+04</totfact>
</mgrwt>
</event>
<event>
 7    0  0.4748297E-002  0.4581328E+03  0.7546771E-02  0.1025324E+00
         21   -1    0    0  502  501  0.00000000000E+00  0.00000000000E+00  0.11330127744E+03  0.11330127744E+03  0.00000000000E+00 0. -1.
         21   -1    0    0  501  502 -0.00000000000E+00 -0.00000000000E+00 -0.46311409958E+03  0.46311409958E+03  0.00000000000E+00 0. -1.
      99926    2    1    2    0    0  0.00000000000E+00 -0.35527136788E-14 -0.34981282213E+03  0.57641537702E+03  0.45813281517E+03 0.  0.
      99925    2    3    3    0    0 -0.11238972843E+03 -0.17976267594E+02 -0.19085574139E+03  0.34431742599E+03  0.26300946478E+03 0.  0.
         25    1    4    4    0    0 -0.26552206687E+02 -0.34231987482E+01 -0.51817940731E+02  0.13801936477E+03  0.12509000000E+03 0.  0.
         25    1    4    4    0    0 -0.85837521744E+02 -0.14553068846E+02 -0.13903780066E+03  0.20629806122E+03  0.12509000000E+03 0.  0.
         25    1    3    3    0    0  0.11238972843E+03  0.17976267594E+02 -0.15895708074E+03  0.23209795103E+03  0.12509000000E+03 0.  0.
<mgrwt>
<rscale>  2 0.45813282E+03</rscale>
<asrwt>0</asrwt>
<pdfrwt beam="1">  1       21 0.16661953E-01 0.45813282E+03</pdfrwt>
<pdfrwt beam="2">  1       21 0.68105014E-01 0.45813282E+03</pdfrwt>
<totfact> 0.58686744E+04</totfact>
</mgrwt>
</event>
<event>
 7    0  0.4748297E-002  0.4597285E+03  0.7546771E-02  0.1024860E+00
         21   -1    0    0  502  501  0.00000000000E+00  0.00000000000E+00  0.58542778417E+02  0.58542778417E+02  0.00000000000E+00 0.  1.
         21   -1    0    0  501  502 -0.00000000000E+00 -0.00000000000E+00 -0.90254622700E+03  0.90254622700E+03  0.00000000000E+00 0.  1.
      99926    2    1    2    0    0  0.00000000000E+00  0.00000000000E+00 -0.84400344858E+03  0.96108900542E+03  0.45972845802E+03 0.  0.
      99925    2    3    3    0    0  0.90400726414E+02 -0.18331194077E+02 -0.37660092200E+03  0.46852332049E+03  0.26301620364E+03 0.  0.
         25    1    4    4    0    0  0.78116540829E+02 -0.84632487408E+01 -0.15896124502E+03  0.21700231807E+03  0.12509000000E+03 0.  0.
         25    1    4    4    0    0  0.12284185584E+02 -0.98679453365E+01 -0.21763967698E+03  0.25152100242E+03  0.12509000000E+03 0.  0.
         25    1    3    3    0    0 -0.90400726414E+02  0.18331194077E+02 -0.46740252658E+03  0.49256568493E+03  0.12509000000E+03 0.  0.
<mgrwt>
<rscale>  2 0.45972846E+03</rscale>
<asrwt>0</asrwt>
<pdfrwt beam="1">  1       21 0.86092326E-02 0.45972846E+03</pdfrwt>
<pdfrwt beam="2">  1       21 0.13272738E+00 0.45972846E+03</pdfrwt>
<totfact> 0.39224655E+04</totfact>
</mgrwt>
</event>
<event>
 7    0  0.4748297E-002  0.4555221E+03  0.7546771E-02  0.1026088E+00
         21   -1    0    0  502  501  0.00000000000E+00  0.00000000000E+00  0.40560074198E+02  0.40560074198E+02  0.00000000000E+00 0. -1.
         21   -1    0    0  501  502 -0.00000000000E+00 -0.00000000000E+00 -0.12789693963E+04  0.12789693963E+04  0.00000000000E+00 0. -1.
      99926    2    1    2    0    0  0.00000000000E+00  0.00000000000E+00 -0.12384093221E+04  0.13195294705E+04  0.45552208996E+03 0.  0.
      99925    2    3    3    0    0 -0.11141547774E+03  0.42145515872E+01 -0.84320401663E+03  0.89026741452E+03  0.26296745915E+03 0.  0.
         25    1    3    3    0    0  0.11141547774E+03 -0.42145515872E+01 -0.39520530543E+03  0.42926205594E+03  0.12509000000E+03 0.  0.
         25    1    4    4    0    0 -0.28597822706E+02 -0.29557221638E+02 -0.40452725822E+03  0.42541894123E+03  0.12509000000E+03 0.  0.
         25    1    4    4    0    0 -0.82817655034E+02  0.33771773225E+02 -0.43867675841E+03  0.46484847329E+03  0.12509000000E+03 0.  0.
<mgrwt>
<rscale>  2 0.45552209E+03</rscale>
<asrwt>0</asrwt>
<pdfrwt beam="1">  1       21 0.59647174E-02 0.45552209E+03</pdfrwt>
<pdfrwt beam="2">  1       21 0.18808371E+00 0.45552209E+03</pdfrwt>
<totfact> 0.28437143E+04</totfact>
</mgrwt>
</event>
<event>
 7    0  0.4748297E-002  0.4529963E+03  0.7546771E-02  0.1026832E+00
         21   -1    0    0  502  501  0.00000000000E+00  0.00000000000E+00  0.74334534695E+02  0.74334534695E+02  0.00000000000E+00 0. -1.
         21   -1    0    0  501  502 -0.00000000000E+00 -0.00000000000E+00 -0.69014250458E+03  0.69014250458E+03  0.00000000000E+00 0. -1.
      99926    2    1    2    0    0 -0.17763568394E-14  0.00000000000E+00 -0.61580796989E+03  0.76447703927E+03  0.45299634414E+03 0.  0.
      99925    2    3    3    0    0 -0.23386628758E+01 -0.75115469306E+02 -0.24845755340E+03  0.36920290697E+03  0.26254871473E+03 0.  0.
         25    1    3    3    0    0  0.23386628758E+01  0.75115469306E+02 -0.36735041649E+03  0.39527413230E+03  0.12509000000E+03 0.  0.
         25    1    4    4    0    0  0.12170436689E+02 -0.60315612286E+02 -0.17098933660E+03  0.22061494497E+03  0.12509000000E+03 0.  0.
         25    1    4    4    0    0 -0.14509099565E+02 -0.14799857020E+02 -0.77468216804E+02  0.14858796200E+03  0.12509000000E+03 0.  0.
<mgrwt>
<rscale>  2 0.45299634E+03</rscale>
<asrwt>0</asrwt>
<pdfrwt beam="1">  1       21 0.10931550E-01 0.45299634E+03</pdfrwt>
<pdfrwt beam="2">  1       21 0.10149154E+00 0.45299634E+03</pdfrwt>
<totfact> 0.50317641E+04</totfact>
</mgrwt>
</event>
<event>
 7    0  0.4748297E-002  0.4473747E+03  0.7546771E-02  0.1028508E+00
         21   -1    0    0  502  501  0.00000000000E+00  0.00000000000E+00  0.39345243646E+03  0.39345243646E+03  0.00000000000E+00 0. -1.
         21   -1    0    0  501  502 -0.00000000000E+00 -0.00000000000E+00 -0.12717174104E+03  0.12717174104E+03  0.00000000000E+00 0. -1.
      99926    2    1    2    0    0  0.00000000000E+00  0.00000000000E+00  0.26628069542E+03  0.52062417750E+03  0.44737470363E+03 0.  0.
      99925    2    3    3    0    0 -0.53868136641E+02  0.79568916482E+02  0.22048090238E+03  0.35637400929E+03  0.26297835951E+03 0.  0.
         25    1    4    4    0    0 -0.19872385504E+02  0.78281123462E+02  0.99702325806E+02  0.17919516697E+03  0.12509000000E+03 0.  0.
         25    1    3    3    0    0  0.53868136641E+02 -0.79568916482E+02  0.45799793038E+02  0.16425016821E+03  0.12509000000E+03 0.  0.
         25    1    4    4    0    0 -0.33995751137E+02  0.12877930204E+01  0.12077857657E+03  0.17717884232E+03  0.12509000000E+03 0.  0.
<mgrwt>
<rscale>  2 0.44737470E+03</rscale>
<asrwt>0</asrwt>
<pdfrwt beam="1">  1       21 0.57860652E-01 0.44737470E+03</pdfrwt>
<pdfrwt beam="2">  1       21 0.18701727E-01 0.44737470E+03</pdfrwt>
<totfact> 0.67855323E+04</totfact>
</mgrwt>
</event>
<event>
 7    0  0.4748297E-002  0.4553348E+03  0.7546771E-02  0.1026143E+00
         21   -1    0    0  502  501  0.00000000000E+00  0.00000000000E+00  0.69789271535E+03  0.69789271535E+03  0.00000000000E+00 0. -1.
         21   -1    0    0  501  502 -0.00000000000E+00 -0.00000000000E+00 -0.74269930636E+02  0.74269930636E+02  0.00000000000E+00 0. -1.
      99926    2    1    2    0    0  0.00000000000E+00  0.00000000000E+00  0.62362278471E+03  0.77216264598E+03  0.45533479358E+03 0.  0.
      99925    2    3    3    0    0 -0.76573600767E+02  0.73294207569E+02  0.46104749666E+03  0.54126485565E+03  0.26299675394E+03 0.  0.
         25    1    3    3    0    0  0.76573600767E+02 -0.73294207569E+02  0.16257528805E+03  0.23089779034E+03  0.12509000000E+03 0.  0.
         25    1    4    4    0    0 -0.42730750636E+02  0.21197255855E+02  0.15472029625E+03  0.20459989951E+03  0.12509000000E+03 0.  0.
         25    1    4    4    0    0 -0.33842850131E+02  0.52096951714E+02  0.30632720041E+03  0.33666495614E+03  0.12509000000E+03 0.  0.
<mgrwt>
<rscale>  2 0.45533479E+03</rscale>
<asrwt>0</asrwt>
<pdfrwt beam="1">  1       21 0.10263128E+00 0.45533479E+03</pdfrwt>
<pdfrwt beam="2">  1       21 0.10922049E-01 0.45533479E+03</pdfrwt>
<totfact> 0.49011792E+04</totfact>
</mgrwt>
</event>
<event>
 7    0  0.4748297E-002  0.4432664E+03  0.7546771E-02  0.1029749E+00
         21   -1    0    0  502  501  0.00000000000E+00  0.00000000000E+00  0.11484155667E+04  0.11484155667E+04  0.00000000000E+00 0.  1.
         21   -1    0    0  501  502 -0.00000000000E+00 -0.00000000000E+00 -0.42773086147E+02  0.42773086147E+02  0.00000000000E+00 0.  1.
      99926    2    1    2    0    0  0.00000000000E+00 -0.14210854715E-13  0.11056424805E+04  0.11911886528E+04  0.44326641184E+03 0.  0.
      99925    2    3    3    0    0 -0.49818649610E+02 -0.62817569348E+02  0.53496799762E+03  0.60148973099E+03  0.26300416944E+03 0.  0.
         25    1    4    4    0    0 -0.21139787782E+02  0.34924759338E+01  0.29896280253E+03  0.32478508804E+03  0.12509000000E+03 0.  0.
         25    1    3    3    0    0  0.49818649610E+02  0.62817569348E+02  0.57067448292E+03  0.58969892184E+03  0.12509000000E+03 0.  0.
         25    1    4    4    0    0 -0.28678861828E+02 -0.66310045282E+02  0.23600519508E+03  0.27670464295E+03  0.12509000000E+03 0.  0.
<mgrwt>
<rscale>  2 0.44326641E+03</rscale>
<asrwt>0</asrwt>
<pdfrwt beam="1">  1       21 0.16888462E+00 0.44326641E+03</pdfrwt>
<pdfrwt beam="2">  1       21 0.62901605E-02 0.44326641E+03</pdfrwt>
<totfact> 0.35579224E+04</totfact>
</mgrwt>
</event>
<event>
 7    0  0.4748297E-002  0.4565238E+03  0.7546771E-02  0.1025794E+00
         21   -1    0    0  502  501  0.00000000000E+00  0.00000000000E+00  0.31640497847E+02  0.31640497847E+02  0.00000000000E+00 0. -1.
         21   -1    0    0  501  502 -0.00000000000E+00 -0.00000000000E+00 -0.16467340194E+04  0.16467340194E+04  0.00000000000E+00 0. -1.
      99926    2    1    2    0    0  0.00000000000E+00  0.00000000000E+00 -0.16150935216E+04  0.16783745173E+04  0.45652375270E+03 0.  0.
      99925    2    3    3    0    0 -0.85796268375E+02 -0.56218135538E+02 -0.12029413541E+04  0.12356122835E+04  0.26296071038E+03 0.  0.
         25    1    4    4    0    0 -0.52059228584E+02  0.18663386701E+01 -0.70097434275E+03  0.71395110743E+03  0.12509000000E+03 0.  0.
         25    1    3    3    0    0  0.85796268375E+02  0.56218135538E+02 -0.41215216742E+03  0.44276223375E+03  0.12509000000E+03 0.  0.
         25    1    4    4    0    0 -0.33737039791E+02 -0.58084474208E+02 -0.50196701139E+03  0.52166117608E+03  0.12509000000E+03 0.  0.
<mgrwt>
<rscale>  2 0.45652375E+03</rscale>
<asrwt>0</asrwt>
<pdfrwt beam="1">  1       21 0.46530138E-02 0.45652375E+03</pdfrwt>
<pdfrwt beam="2">  1       21 0.24216680E+00 0.45652375E+03</pdfrwt>
<totfact> 0.19483811E+04</totfact>
</mgrwt>
</event>
<event>
 7    0  0.4748297E-002  0.4606591E+03  0.7546771E-02  0.1024590E+00
         21   -1    0    0  502  501  0.00000000000E+00  0.00000000000E+00  0.29200005019E+03  0.29200005019E+03  0.00000000000E+00 0.  1.
         21   -1    0    0  501  502 -0.00000000000E+00 -0.00000000000E+00 -0.18168390296E+03  0.18168390296E+03  0.00000000000E+00 0.  1.
      99926    2    1    2    0    0  0.17763568394E-14  0.00000000000E+00  0.11031614723E+03  0.47368395315E+03  0.46065913117E+03 0.  0.
      99925    2    3    3    0    0 -0.10281323927E+02 -0.98805417019E+02  0.13535404912E+03  0.31199715503E+03  0.26297013154E+03 0.  0.
         25    1    4    4    0    0  0.28281266375E+02 -0.71039047299E+02  0.59853301755E+02  0.15835498761E+03  0.12509000000E+03 0.  0.
         25    1    4    4    0    0 -0.38562590302E+02 -0.27766369720E+02  0.75500747361E+02  0.15364216742E+03  0.12509000000E+03 0.  0.
         25    1    3    3    0    0  0.10281323927E+02  0.98805417019E+02 -0.25037901890E+02  0.16168679812E+03  0.12509000000E+03 0.  0.
<mgrwt>
<rscale>  2 0.46065913E+03</rscale>
<asrwt>0</asrwt>
<pdfrwt beam="1">  1       21 0.42941184E-01 0.46065913E+03</pdfrwt>
<pdfrwt beam="2">  1       21 0.26718221E-01 0.46065913E+03</pdfrwt>
<totfact> 0.64230445E+04</totfact>
</mgrwt>
</event>
<event>
 7    0  0.4748297E-002  0.4531214E+03  0.7546771E-02  0.1026795E+00
         21   -1    0    0  502  501  0.00000000000E+00  0.00000000000E+00  0.17469829429E+03  0.17469829429E+03  0.00000000000E+00 0.  1.
         21   -1    0    0  501  502 -0.00000000000E+00 -0.00000000000E+00 -0.29381944938E+03  0.29381944938E+03  0.00000000000E+00 0.  1.
      99926    2    1    2    0    0  0.00000000000E+00  0.88817841970E-15 -0.11912115509E+03  0.46851774367E+03  0.45312142583E+03 0.  0.
      99925    2    3    3    0    0 -0.90590125826E+02  0.28014500667E+01 -0.80250277905E+01  0.27824352939E+03  0.26294608108E+03 0.  0.
         25    1    4    4    0    0 -0.48538559935E+02  0.22786227421E+02 -0.38289322355E+02  0.14138169707E+03  0.12509000000E+03 0.  0.
         25    1    3    3    0    0  0.90590125826E+02 -0.28014500667E+01 -0.11109612730E+03  0.19027421428E+03  0.12509000000E+03 0.  0.
         25    1    4    4    0    0 -0.42051565891E+02 -0.19984777354E+02  0.30264294565E+02  0.13686183232E+03  0.12509000000E+03 0.  0.
<mgrwt>
<rscale>  2 0.45312143E+03</rscale>
<asrwt>0</asrwt>
<pdfrwt beam="1">  1       21 0.25690926E-01 0.45312143E+03</pdfrwt>
<pdfrwt beam="2">  1       21 0.43208742E-01 0.45312143E+03</pdfrwt>
<totfact> 0.68562196E+04</totfact>
</mgrwt>
</event>
<event>
 7    0  0.4748297E-002  0.4351384E+03  0.7546771E-02  0.1032249E+00
         21   -1    0    0  502  501  0.00000000000E+00  0.00000000000E+00  0.41774647835E+03  0.41774647835E+03  0.00000000000E+00 0.  1.
         21   -1    0    0  501  502 -0.00000000000E+00 -0.00000000000E+00 -0.11331360808E+03  0.11331360808E+03  0.00000000000E+00 0.  1.
      99926    2    1    2    0    0  0.00000000000E+00  0.00000000000E+00  0.30443287027E+03  0.53106008643E+03  0.43513841809E+03 0.  0.
      99925    2    3    3    0    0  0.20565978503E+02 -0.90950430795E+02  0.18968509826E+03  0.33738639278E+03  0.26297186388E+03 0.  0.
         25    1    4    4    0    0  0.18867550064E+02 -0.28851642950E+02  0.47757603560E+02  0.13826314962E+03  0.12509000000E+03 0.  0.
         25    1    4    4    0    0  0.16984284389E+01 -0.62098787845E+02  0.14192749470E+03  0.19912324315E+03  0.12509000000E+03 0.  0.
         25    1    3    3    0    0 -0.20565978503E+02  0.90950430795E+02  0.11474777201E+03  0.19367369366E+03  0.12509000000E+03 0.  0.
<mgrwt>
<rscale>  2 0.43513842E+03</rscale>
<asrwt>0</asrwt>
<pdfrwt beam="1">  1       21 0.61433305E-01 0.43513842E+03</pdfrwt>
<pdfrwt beam="2">  1       21 0.16663766E-01 0.43513842E+03</pdfrwt>
<totfact> 0.74119025E+04</totfact>
</mgrwt>
</event>
<event>
 7    0  0.4748297E-002  0.4548986E+03  0.7546771E-02  0.1026271E+00
         21   -1    0    0  502  501  0.00000000000E+00  0.00000000000E+00  0.29199156306E+03  0.29199156306E+03  0.00000000000E+00 0.  1.
         21   -1    0    0  501  502 -0.00000000000E+00 -0.00000000000E+00 -0.17717352163E+03  0.17717352163E+03  0.00000000000E+00 0.  1.
      99926    2    1    2    0    0  0.00000000000E+00  0.00000000000E+00  0.11481804143E+03  0.46916508469E+03  0.45489855359E+03 0.  0.
      99925    2    3    3    0    0  0.74767331300E+02  0.43743442822E+02 -0.27676938129E+01  0.27686959371E+03  0.26295526078E+03 0.  0.
         25    1    3    3    0    0 -0.74767331300E+02 -0.43743442822E+02  0.11758573525E+03  0.19229549099E+03  0.12509000000E+03 0.  0.
         25    1    4    4    0    0  0.76511686839E+01 -0.63488447448E+01  0.94372082858E+01  0.12583885414E+03  0.12509000000E+03 0.  0.
         25    1    4    4    0    0  0.67116162616E+02  0.50092287567E+02 -0.12204902099E+02  0.15103073956E+03  0.12509000000E+03 0.  0.
<mgrwt>
<rscale>  2 0.45489855E+03</rscale>
<asrwt>0</asrwt>
<pdfrwt beam="1">  1       21 0.42939936E-01 0.45489855E+03</pdfrwt>
<pdfrwt beam="2">  1       21 0.26054930E-01 0.45489855E+03</pdfrwt>
<totfact> 0.67552234E+04</totfact>
</mgrwt>
</event>
<event>
 7    0  0.4748297E-002  0.4491671E+03  0.7546771E-02  0.1027971E+00
         21   -1    0    0  502  501  0.00000000000E+00  0.00000000000E+00  0.47614518682E+03  0.47614518682E+03  0.00000000000E+00 0.  1.
         21   -1    0    0  501  502 -0.00000000000E+00 -0.00000000000E+00 -0.10592937952E+03  0.10592937952E+03  0.00000000000E+00 0.  1.
      99926    2    1    2    0    0  0.35527136788E-14  0.00000000000E+00  0.37021580730E+03  0.58207456634E+03  0.44916707004E+03 0.  0.
      99925    2    3    3    0    0  0.22757974600E+02 -0.79049753806E+02  0.32184153217E+03  0.42473935865E+03  0.26467860127E+03 0.  0.
         25    1    4    4    0    0 -0.37962321592E+01 -0.25997230374E+02  0.96060962717E+02  0.15989210119E+03  0.12509000000E+03 0.  0.
         25    1    3    3    0    0 -0.22757974600E+02  0.79049753806E+02  0.48374275128E+02  0.15733520769E+03  0.12509000000E+03 0.  0.
         25    1    4    4    0    0  0.26554206760E+02 -0.53052523433E+02  0.22578056945E+03  0.26484725746E+03  0.12509000000E+03 0.  0.
<mgrwt>
<rscale>  2 0.44916707E+03</rscale>
<asrwt>0</asrwt>
<pdfrwt beam="1">  1       21 0.70021350E-01 0.44916707E+03</pdfrwt>
<pdfrwt beam="2">  1       21 0.15577850E-01 0.44916707E+03</pdfrwt>
<totfact> 0.62633882E+04</totfact>
</mgrwt>
</event>
<event>
 7    0  0.4748297E-002  0.4491496E+03  0.7546771E-02  0.1027976E+00
         21   -1    0    0  502  501  0.00000000000E+00  0.00000000000E+00  0.97622013317E+02  0.97622013317E+02  0.00000000000E+00 0. -1.
         21   -1    0    0  501  502 -0.00000000000E+00 -0.00000000000E+00 -0.51662360518E+03  0.51662360518E+03  0.00000000000E+00 0. -1.
      99926    2    1    2    0    0  0.00000000000E+00  0.00000000000E+00 -0.41900159186E+03  0.61424561850E+03  0.44914958072E+03 0.  0.
      99925    2    3    3    0    0  0.71164262244E+02  0.72240184524E+02 -0.21553192499E+03  0.35476457889E+03  0.26290853782E+03 0.  0.
         25    1    3    3    0    0 -0.71164262244E+02 -0.72240184524E+02 -0.20346966687E+03  0.25948103961E+03  0.12509000000E+03 0.  0.
         25    1    4    4    0    0  0.34659523998E+02  0.66169347084E+02 -0.14874761155E+03  0.20821389276E+03  0.12509000000E+03 0.  0.
         25    1    4    4    0    0  0.36504738247E+02  0.60708374399E+01 -0.66784313445E+02  0.14655068613E+03  0.12509000000E+03 0.  0.
<mgrwt>
<rscale>  2 0.44914958E+03</rscale>
<asrwt>0</asrwt>
<pdfrwt beam="1">  1       21 0.14356178E-01 0.44914958E+03</pdfrwt>
<pdfrwt beam="2">  1       21 0.75974061E-01 0.44914958E+03</pdfrwt>
<totfact> 0.60559880E+04</totfact>
</mgrwt>
</event>
<event>
 7    0  0.4748297E-002  0.4540475E+03  0.7546771E-02  0.1026522E+00
         21   -1    0    0  502  501  0.00000000000E+00  0.00000000000E+00  0.12922888885E+03  0.12922888885E+03  0.00000000000E+00 0.  1.
         21   -1    0    0  501  502 -0.00000000000E+00 -0.00000000000E+00 -0.39882559048E+03  0.39882559048E+03  0.00000000000E+00 0.  1.
      99926    2    1    2    0    0  0.00000000000E+00  0.00000000000E+00 -0.26959670163E+03  0.52805447934E+03  0.45404752132E+03 0.  0.
      99925    2    3    3    0    0  0.80438861434E+02  0.26316960516E+02 -0.84186407715E+02  0.28891544440E+03  0.26310034194E+03 0.  0.
         25    1    3    3    0    0 -0.80438861434E+02 -0.26316960516E+02 -0.18541029392E+03  0.23913903494E+03  0.12509000000E+03 0.  0.
         25    1    4    4    0    0  0.16102353056E+02 -0.16192507211E+02 -0.57543143000E+02  0.13957150307E+03  0.12509000000E+03 0.  0.
         25    1    4    4    0    0  0.64336508378E+02  0.42509467726E+02 -0.26643264715E+02  0.14934394133E+03  0.12509000000E+03 0.  0.
<mgrwt>
<rscale>  2 0.45404752E+03</rscale>
<asrwt>0</asrwt>
<pdfrwt beam="1">  1       21 0.19004248E-01 0.45404752E+03</pdfrwt>
<pdfrwt beam="2">  1       21 0.58650822E-01 0.45404752E+03</pdfrwt>
<totfact> 0.63818883E+04</totfact>
</mgrwt>
</event>
<event>
 7    0  0.4748297E-002  0.4537060E+03  0.7546771E-02  0.1026623E+00
         21   -1    0    0  502  501  0.00000000000E+00  0.00000000000E+00  0.62534726985E+03  0.62534726985E+03  0.00000000000E+00 0.  1.
         21   -1    0    0  501  502 -0.00000000000E+00 -0.00000000000E+00 -0.82293931426E+02  0.82293931426E+02  0.00000000000E+00 0.  1.
      99926    2    1    2    0    0  0.00000000000E+00  0.00000000000E+00  0.54305333842E+03  0.70764120128E+03  0.45370600764E+03 0.  0.
      99925    2    3    3    0    0 -0.21543056368E+02  0.83972717962E+02  0.45193437813E+03  0.53025548126E+03  0.26345905305E+03 0.  0.
         25    1    4    4    0    0  0.12522596607E+01  0.24699891751E+00  0.20077924272E+03  0.23656170774E+03  0.12509000000E+03 0.  0.
         25    1    3    3    0    0  0.21543056368E+02 -0.83972717962E+02  0.91118960296E+02  0.17738572001E+03  0.12509000000E+03 0.  0.
         25    1    4    4    0    0 -0.22795316029E+02  0.83725719045E+02  0.25115513540E+03  0.29369377352E+03  0.12509000000E+03 0.  0.
<mgrwt>
<rscale>  2 0.45370601E+03</rscale>
<asrwt>0</asrwt>
<pdfrwt beam="1">  1       21 0.91962831E-01 0.45370601E+03</pdfrwt>
<pdfrwt beam="2">  1       21 0.12102049E-01 0.45370601E+03</pdfrwt>
<totfact> 0.53027891E+04</totfact>
</mgrwt>
</event>
<event>
 7    0  0.4748297E-002  0.4483271E+03  0.7546771E-02  0.1028222E+00
         21   -1    0    0  502  501  0.00000000000E+00  0.00000000000E+00  0.12618014136E+03  0.12618014136E+03  0.00000000000E+00 0.  1.
         21   -1    0    0  501  502 -0.00000000000E+00 -0.00000000000E+00 -0.39823456397E+03  0.39823456397E+03  0.00000000000E+00 0.  1.
      99926    2    1    2    0    0  0.53290705182E-14  0.00000000000E+00 -0.27205442260E+03  0.52441470533E+03  0.44832708407E+03 0.  0.
      99925    2    3    3    0    0  0.15351331928E+02 -0.87850934122E+01 -0.49177236802E+02  0.26822222045E+03  0.26308157987E+03 0.  0.
         25    1    3    3    0    0 -0.15351331928E+02  0.87850934122E+01 -0.22287718580E+03  0.25619248488E+03  0.12509000000E+03 0.  0.
         25    1    4    4    0    0 -0.31598041156E+02 -0.15083631907E+02 -0.22628538729E+02  0.13185412781E+03  0.12509000000E+03 0.  0.
         25    1    4    4    0    0  0.46949373084E+02  0.62985384949E+01 -0.26548698073E+02  0.13636809264E+03  0.12509000000E+03 0.  0.
<mgrwt>
<rscale>  2 0.44832708E+03</rscale>
<asrwt>0</asrwt>
<pdfrwt beam="1">  1       21 0.18555903E-01 0.44832708E+03</pdfrwt>
<pdfrwt beam="2">  1       21 0.58563906E-01 0.44832708E+03</pdfrwt>
<totfact> 0.67062806E+04</totfact>
</mgrwt>
</event>
<event>
 7    0  0.4748297E-002  0.4140173E+03  0.7546771E-02  0.1039031E+00
         21   -1    0    0  502  501  0.00000000000E+00  0.00000000000E+00  0.48611172214E+03  0.48611172214E+03  0.00000000000E+00 0. -1.
         21   -1    0    0  501  502 -0.00000000000E+00 -0.00000000000E+00 -0.88153762085E+02  0.88153762085E+02  0.00000000000E+00 0. -1.
      99926    2    1    2    0    0  0.00000000000E+00  0.00000000000E+00  0.39795796005E+03  0.57426548422E+03  0.41401728032E+03 0.  0.
      99925    2    3    3    0    0  0.39276592842E+02  0.38034560099E+02  0.31713214092E+03  0.41561618657E+03  0.26301091465E+03 0.  0.
         25    1    3    3    0    0 -0.39276592842E+02 -0.38034560099E+02  0.80825819133E+02  0.15864929765E+03  0.12509000000E+03 0.  0.
         25    1    4    4    0    0  0.10722547133E+02  0.99508066577E+01  0.95767356420E+02  0.15821784421E+03  0.12509000000E+03 0.  0.
         25    1    4    4    0    0  0.28554045709E+02  0.28083753441E+02  0.22136478450E+03  0.25739834236E+03  0.12509000000E+03 0.  0.
<mgrwt>
<rscale>  2 0.41401728E+03</rscale>
<asrwt>0</asrwt>
<pdfrwt beam="1">  1       21 0.71487017E-01 0.41401728E+03</pdfrwt>
<pdfrwt beam="2">  1       21 0.12963789E-01 0.41401728E+03</pdfrwt>
<totfact> 0.84526153E+04</totfact>
</mgrwt>
</event>
<event>
 7    0  0.4748297E-002  0.4590463E+03  0.7546771E-02  0.1025058E+00
         21   -1    0    0  502  501  0.00000000000E+00  0.00000000000E+00  0.24094404624E+03  0.24094404624E+03  0.00000000000E+00 0. -1.
         21   -1    0    0  501  502 -0.00000000000E+00 -0.00000000000E+00 -0.21864363192E+03  0.21864363192E+03  0.00000000000E+00 0. -1.
      99926    2    1    2    0    0  0.00000000000E+00  0.00000000000E+00  0.22300414322E+02  0.45958767815E+03  0.45904632166E+03 0.  0.
      99925    2    3    3    0    0 -0.84382200322E+02 -0.80111523891E+02  0.23073750513E+01  0.28758348719E+03  0.26298426974E+03 0.  0.
         25    1    4    4    0    0 -0.24672596924E+01 -0.41566335688E+02  0.14798578444E+02  0.13266632450E+03  0.12509000000E+03 0.  0.
         25    1    4    4    0    0 -0.81914940630E+02 -0.38545188203E+02 -0.12491203393E+02  0.15491716268E+03  0.12509000000E+03 0.  0.
         25    1    3    3    0    0  0.84382200322E+02  0.80111523891E+02  0.19993039271E+02  0.17200419097E+03  0.12509000000E+03 0.  0.
<mgrwt>
<rscale>  2 0.45904632E+03</rscale>
<asrwt>0</asrwt>
<pdfrwt beam="1">  1       21 0.35432948E-01 0.45904632E+03</pdfrwt>
<pdfrwt beam="2">  1       21 0.32153475E-01 0.45904632E+03</pdfrwt>
<totfact> 0.66052618E+04</totfact>
</mgrwt>
</event>
<event>
 7    0  0.4748297E-002  0.4557034E+03  0.7546771E-02  0.1026035E+00
         21   -1    0    0  502  501  0.00000000000E+00  0.00000000000E+00  0.19974920078E+03  0.19974920078E+03  0.00000000000E+00 0.  1.
         21   -1    0    0  501  502 -0.00000000000E+00 -0.00000000000E+00 -0.25990794792E+03  0.25990794792E+03  0.00000000000E+00 0.  1.
      99926    2    1    2    0    0  0.00000000000E+00  0.00000000000E+00 -0.60158747139E+02  0.45965714871E+03  0.45570343372E+03 0.  0.
      99925    2    3    3    0    0  0.98078813241E+02 -0.39879490508E+02  0.32893841428E+01  0.28392154949E+03  0.26342133332E+03 0.  0.
         25    1    3    3    0    0 -0.98078813241E+02  0.39879490508E+02 -0.63448131282E+02  0.17573559922E+03  0.12509000000E+03 0.  0.
         25    1    4    4    0    0  0.17208290503E+02 -0.47113507540E+02  0.12393974585E+01  0.13477704575E+03  0.12509000000E+03 0.  0.
         25    1    4    4    0    0  0.80870522739E+02  0.72340170319E+01  0.20499866843E+01  0.14914450374E+03  0.12509000000E+03 0.  0.
<mgrwt>
<rscale>  2 0.45570343E+03</rscale>
<asrwt>0</asrwt>
<pdfrwt beam="1">  1       21 0.29374882E-01 0.45570343E+03</pdfrwt>
<pdfrwt beam="2">  1       21 0.38221757E-01 0.45570343E+03</pdfrwt>
<totfact> 0.67824276E+04</totfact>
</mgrwt>
</event>
<event>
 7    0  0.4748297E-002  0.4535193E+03  0.7546771E-02  0.1026678E+00
         21   -1    0    0  502  501  0.00000000000E+00  0.00000000000E+00  0.10138548002E+03  0.10138548002E+03  0.00000000000E+00 0.  1.
         21   -1    0    0  501  502 -0.00000000000E+00 -0.00000000000E+00 -0.50717268860E+03  0.50717268860E+03  0.00000000000E+00 0.  1.
      99926    2    1    2    0    0  0.00000000000E+00 -0.17763568394E-14 -0.40578720857E+03  0.60855816862E+03  0.45351933360E+03 0.  0.
      99925    2    3    3    0    0  0.69956712404E+02 -0.59289360129E+01 -0.13851831649E+03  0.30522788219E+03  0.26276918040E+03 0.  0.
         25    1    3    3    0    0 -0.69956712404E+02  0.59289360129E+01 -0.26726889208E+03  0.30333028643E+03  0.12509000000E+03 0.  0.
         25    1    4    4    0    0  0.50429250879E+02 -0.31305200677E+02 -0.44257052262E+02  0.14535927803E+03  0.12509000000E+03 0.  0.
         25    1    4    4    0    0  0.19527461524E+02  0.25376264664E+02 -0.94261264231E+02  0.15986860416E+03  0.12509000000E+03 0.  0.
<mgrwt>
<rscale>  2 0.45351933E+03</rscale>
<asrwt>0</asrwt>
<pdfrwt beam="1">  1       21 0.14909629E-01 0.45351933E+03</pdfrwt>
<pdfrwt beam="2">  1       21 0.74584219E-01 0.45351933E+03</pdfrwt>
<totfact> 0.58839741E+04</totfact>
</mgrwt>
</event>
<event>
 7    0  0.4748297E-002  0.4857328E+03  0.7546771E-02  0.1017571E+00
         21   -1    0    0  502  501  0.00000000000E+00  0.00000000000E+00  0.43410204844E+02  0.43410204844E+02  0.00000000000E+00 0. -1.
         21   -1    0    0  501  502 -0.00000000000E+00 -0.00000000000E+00 -0.13587608999E+04  0.13587608999E+04  0.00000000000E+00 0. -1.
      99926    2    1    2    0    0  0.17763568394E-14  0.28421709430E-13 -0.13153506950E+04  0.14021711047E+04  0.48573280308E+03 0.  0.
      99925    2    3    3    0    0  0.55407833027E+01  0.13987508769E+03 -0.80470498343E+03  0.85811017862E+03  0.26307266648E+03 0.  0.
         25    1    3    3    0    0 -0.55407833027E+01 -0.13987508769E+03 -0.51064571161E+03  0.54406092611E+03  0.12509000000E+03 0.  0.
         25    1    4    4    0    0 -0.24068833181E+02  0.10376017300E+03 -0.45867861915E+03  0.48721562577E+03  0.12509000000E+03 0.  0.
         25    1    4    4    0    0  0.29609616483E+02  0.36114914690E+02 -0.34602636429E+03  0.37089455285E+03  0.12509000000E+03 0.  0.
<mgrwt>
<rscale>  2 0.48573280E+03</rscale>
<asrwt>0</asrwt>
<pdfrwt beam="1">  1       21 0.63838542E-02 0.48573280E+03</pdfrwt>
<pdfrwt beam="2">  1       21 0.19981776E+00 0.48573280E+03</pdfrwt>
<totfact> 0.20834938E+04</totfact>
</mgrwt>
</event>
<event>
 7    0  0.4748297E-002  0.4649626E+03  0.7546771E-02  0.1023352E+00
         21   -1    0    0  502  501  0.00000000000E+00  0.00000000000E+00  0.41512550440E+03  0.41512550440E+03  0.00000000000E+00 0.  1.
         21   -1    0    0  501  502 -0.00000000000E+00 -0.00000000000E+00 -0.13019571277E+03  0.13019571277E+03  0.00000000000E+00 0.  1.
      99926    2    1    2    0    0  0.00000000000E+00  0.00000000000E+00  0.28492979163E+03  0.54532121717E+03  0.46496262618E+03 0.  0.
      99925    2    3    3    0    0 -0.53476310901E+02  0.10881883715E+03  0.19598391409E+03  0.34971924280E+03  0.26304486131E+03 0.  0.
         25    1    4    4    0    0 -0.21061590501E+02  0.96509887619E+02  0.98318950314E+02  0.18727485975E+03  0.12509000000E+03 0.  0.
         25    1    3    3    0    0  0.53476310901E+02 -0.10881883715E+03  0.88945877543E+02  0.19560197437E+03  0.12509000000E+03 0.  0.
         25    1    4    4    0    0 -0.32414720399E+02  0.12308949530E+02  0.97664963774E+02  0.16244438305E+03  0.12509000000E+03 0.  0.
<mgrwt>
<rscale>  2 0.46496263E+03</rscale>
<asrwt>0</asrwt>
<pdfrwt beam="1">  1       21 0.61047868E-01 0.46496263E+03</pdfrwt>
<pdfrwt beam="2">  1       21 0.19146428E-01 0.46496263E+03</pdfrwt>
<totfact> 0.57505381E+04</totfact>
</mgrwt>
</event>
<event>
 7    0  0.4748297E-002  0.4512754E+03  0.7546771E-02  0.1027342E+00
         21   -1    0    0  502  501  0.00000000000E+00  0.00000000000E+00  0.54590520910E+02  0.54590520910E+02  0.00000000000E+00 0.  1.
         21   -1    0    0  501  502 -0.00000000000E+00 -0.00000000000E+00 -0.93262284631E+03  0.93262284631E+03  0.00000000000E+00 0.  1.
      99926    2    1    2    0    0  0.17763568394E-14  0.00000000000E+00 -0.87803232540E+03  0.98721336722E+03  0.45127537931E+03 0.  0.
      99925    2    3    3    0    0 -0.11250299484E+02  0.21165791876E+02 -0.78848347935E+03  0.83151794689E+03  0.26294740691E+03 0.  0.
         25    1    3    3    0    0  0.11250299484E+02 -0.21165791876E+02 -0.89548846047E+02  0.15569542033E+03  0.12509000000E+03 0.  0.
         25    1    4    4    0    0 -0.95397359433E+00  0.67419043908E+01 -0.26669887225E+03  0.29465600265E+03  0.12509000000E+03 0.  0.
         25    1    4    4    0    0 -0.10296325889E+02  0.14423887485E+02 -0.52178460710E+03  0.53686194424E+03  0.12509000000E+03 0.  0.
<mgrwt>
<rscale>  2 0.45127538E+03</rscale>
<asrwt>0</asrwt>
<pdfrwt beam="1">  1       21 0.80280184E-02 0.45127538E+03</pdfrwt>
<pdfrwt beam="2">  1       21 0.13715041E+00 0.45127538E+03</pdfrwt>
<totfact> 0.40843142E+04</totfact>
</mgrwt>
</event>
<event>
 7    0  0.4748297E-002  0.4122120E+03  0.7546771E-02  0.1039631E+00
         21   -1    0    0  502  501  0.00000000000E+00  0.00000000000E+00  0.16249281772E+03  0.16249281772E+03  0.00000000000E+00 0. -1.
         21   -1    0    0  501  502 -0.00000000000E+00 -0.00000000000E+00 -0.26142504968E+03  0.26142504968E+03  0.00000000000E+00 0. -1.
      99926    2    1    2    0    0 -0.17763568394E-14  0.35527136788E-14 -0.98932231962E+02  0.42391786741E+03  0.41221204711E+03 0.  0.
      99925    2    3    3    0    0 -0.11772454627E+02 -0.24680025376E+02 -0.12618069200E+03  0.29300690142E+03  0.26302810288E+03 0.  0.
         25    1    4    4    0    0 -0.43396126689E+02  0.24184623748E+01 -0.57833791260E+02  0.14450373104E+03  0.12509000000E+03 0.  0.
         25    1    4    4    0    0  0.31623672062E+02 -0.27098487751E+02 -0.68346900744E+02  0.14850317038E+03  0.12509000000E+03 0.  0.
         25    1    3    3    0    0  0.11772454627E+02  0.24680025376E+02  0.27248460042E+02  0.13091096599E+03  0.12509000000E+03 0.  0.
<mgrwt>
<rscale>  2 0.41221205E+03</rscale>
<asrwt>0</asrwt>
<pdfrwt beam="1">  1       21 0.23896003E-01 0.41221205E+03</pdfrwt>
<pdfrwt beam="2">  1       21 0.38444860E-01 0.41221205E+03</pdfrwt>
<totfact> 0.10126213E+05</totfact>
</mgrwt>
</event>
<event>
 7    0  0.4748297E-002  0.4519934E+03  0.7546771E-02  0.1027129E+00
         21   -1    0    0  502  501  0.00000000000E+00  0.00000000000E+00  0.26537624091E+03  0.26537624091E+03  0.00000000000E+00 0.  1.
         21   -1    0    0  501  502 -0.00000000000E+00 -0.00000000000E+00 -0.19246078015E+03  0.19246078015E+03  0.00000000000E+00 0.  1.
      99926    2    1    2    0    0  0.71054273576E-14 -0.17763568394E-14  0.72915460761E+02  0.45783702107E+03  0.45199344403E+03 0.  0.
      99925    2    3    3    0    0 -0.61619854183E+02 -0.67309759178E+01  0.13911846852E+03  0.30332922579E+03  0.26232109802E+03 0.  0.
         25    1    3    3    0    0  0.61619854183E+02  0.67309759178E+01 -0.66203007763E+02  0.15450779528E+03  0.12509000000E+03 0.  0.
         25    1    4    4    0    0 -0.66219727032E+02  0.12429052488E+02  0.61647727864E+02  0.15487893351E+03  0.12509000000E+03 0.  0.
         25    1    4    4    0    0  0.45998728491E+01 -0.19160028406E+02  0.77470740660E+02  0.14845029228E+03  0.12509000000E+03 0.  0.
<mgrwt>
<rscale>  2 0.45199344E+03</rscale>
<asrwt>0</asrwt>
<pdfrwt beam="1">  1       21 0.39025918E-01 0.45199344E+03</pdfrwt>
<pdfrwt beam="2">  1       21 0.28303056E-01 0.45199344E+03</pdfrwt>
<totfact> 0.70001801E+04</totfact>
</mgrwt>
</event>
<event>
 7    0  0.4748297E-002  0.4535661E+03  0.7546771E-02  0.1026664E+00
         21   -1    0    0  502  501  0.00000000000E+00  0.00000000000E+00  0.90520953638E+02  0.90520953638E+02  0.00000000000E+00 0. -1.
         21   -1    0    0  501  502 -0.00000000000E+00 -0.00000000000E+00 -0.56816172888E+03  0.56816172888E+03  0.00000000000E+00 0. -1.
      99926    2    1    2    0    0  0.35527136788E-14  0.00000000000E+00 -0.47764077524E+03  0.65868268252E+03  0.45356605481E+03 0.  0.
      99925    2    3    3    0    0  0.25950149271E+02  0.22703590483E+02 -0.45538862969E+03  0.52703341610E+03  0.26305237950E+03 0.  0.
         25    1    3    3    0    0 -0.25950149271E+02 -0.22703590483E+02 -0.22252145553E+02  0.13164926642E+03  0.12509000000E+03 0.  0.
         25    1    4    4    0    0  0.42690323993E+02  0.16501512687E+02 -0.17891600473E+03  0.22305427261E+03  0.12509000000E+03 0.  0.
         25    1    4    4    0    0 -0.16740174723E+02  0.62020777965E+01 -0.27647262496E+03  0.30397914348E+03  0.12509000000E+03 0.  0.
<mgrwt>
<rscale>  2 0.45356605E+03</rscale>
<asrwt>0</asrwt>
<pdfrwt beam="1">  1       21 0.13311905E-01 0.45356605E+03</pdfrwt>
<pdfrwt beam="2">  1       21 0.83553193E-01 0.45356605E+03</pdfrwt>
<totfact> 0.55832426E+04</totfact>
</mgrwt>
</event>
<event>
 7    0  0.4748297E-002  0.4099819E+03  0.7546771E-02  0.1040377E+00
         21   -1    0    0  502  501  0.00000000000E+00  0.00000000000E+00  0.23804058175E+03  0.23804058175E+03  0.00000000000E+00 0.  1.
         21   -1    0    0  501  502 -0.00000000000E+00 -0.00000000000E+00 -0.17652990084E+03  0.17652990084E+03  0.00000000000E+00 0.  1.
      99926    2    1    2    0    0  0.88817841970E-15  0.00000000000E+00  0.61510680916E+02  0.41457048259E+03  0.40998185468E+03 0.  0.
      99925    2    3    3    0    0  0.67627979119E+01  0.46794109015E+02  0.81341425514E+02  0.27938102070E+03  0.26306254608E+03 0.  0.
         25    1    4    4    0    0 -0.12801248385E+01 -0.24737878003E+01  0.72037906717E+02  0.14437702882E+03  0.12509000000E+03 0.  0.
         25    1    4    4    0    0  0.80429227505E+01  0.49267896816E+02  0.93035187976E+01  0.13500399189E+03  0.12509000000E+03 0.  0.
         25    1    3    3    0    0 -0.67627979119E+01 -0.46794109015E+02 -0.19830744598E+02  0.13518946189E+03  0.12509000000E+03 0.  0.
<mgrwt>
<rscale>  2 0.40998185E+03</rscale>
<asrwt>0</asrwt>
<pdfrwt beam="1">  1       21 0.35005968E-01 0.40998185E+03</pdfrwt>
<pdfrwt beam="2">  1       21 0.25960279E-01 0.40998185E+03</pdfrwt>
<totfact> 0.10434397E+05</totfact>
</mgrwt>
</event>
<event>
 7    0  0.4748297E-002  0.4601906E+03  0.7546771E-02  0.1024726E+00
         21   -1    0    0  502  501  0.00000000000E+00  0.00000000000E+00  0.38957470456E+03  0.38957470456E+03  0.00000000000E+00 0.  1.
         21   -1    0    0  501  502 -0.00000000000E+00 -0.00000000000E+00 -0.13590163765E+03  0.13590163765E+03  0.00000000000E+00 0.  1.
      99926    2    1    2    0    0 -0.71054273576E-14 -0.35527136788E-14  0.25367306691E+03  0.52547634221E+03  0.46019057068E+03 0.  0.
      99925    2    3    3    0    0  0.57531787706E+02  0.31855510721E+02  0.27062724294E+03  0.38314000692E+03  0.26312065696E+03 0.  0.
         25    1    4    4    0    0  0.58672243786E+02  0.40123180780E+02  0.12147479776E+03  0.18829746790E+03  0.12509000000E+03 0.  0.
         25    1    3    3    0    0 -0.57531787706E+02 -0.31855510721E+02 -0.16954176023E+02  0.14233633529E+03  0.12509000000E+03 0.  0.
         25    1    4    4    0    0 -0.11404560800E+01 -0.82676700594E+01  0.14915244518E+03  0.19484253902E+03  0.12509000000E+03 0.  0.
<mgrwt>
<rscale>  2 0.46019057E+03</rscale>
<asrwt>0</asrwt>
<pdfrwt beam="1">  1       21 0.57290397E-01 0.46019057E+03</pdfrwt>
<pdfrwt beam="2">  1       21 0.19985535E-01 0.46019057E+03</pdfrwt>
<totfact> 0.60966085E+04</totfact>
</mgrwt>
</event>
<event>
 7    0  0.4748297E-002  0.4554999E+03  0.7546771E-02  0.1026095E+00
         21   -1    0    0  502  501  0.00000000000E+00  0.00000000000E+00  0.53919815270E+03  0.53919815270E+03  0.00000000000E+00 0.  1.
         21   -1    0    0  501  502 -0.00000000000E+00 -0.00000000000E+00 -0.96198470322E+02  0.96198470322E+02  0.00000000000E+00 0.  1.
      99926    2    1    2    0    0 -0.14210854715E-13  0.71054273576E-14  0.44299968238E+03  0.63539662302E+03  0.45549989019E+03 0.  0.
      99925    2    3    3    0    0 -0.97471894329E+02  0.40658028979E+02  0.33704285806E+03  0.44038841237E+03  0.26304033924E+03 0.  0.
         25    1    4    4    0    0 -0.30739943375E+02 -0.13852833425E+02  0.18136846348E+03  0.22288757874E+03  0.12509000000E+03 0.  0.
         25    1    3    3    0    0  0.97471894329E+02 -0.40658028979E+02  0.10595682432E+03  0.19500821066E+03  0.12509000000E+03 0.  0.
         25    1    4    4    0    0 -0.66731950954E+02  0.54510862403E+02  0.15567439459E+03  0.21750083363E+03  0.12509000000E+03 0.  0.
<mgrwt>
<rscale>  2 0.45549989E+03</rscale>
<asrwt>0</asrwt>
<pdfrwt beam="1">  1       21 0.79293845E-01 0.45549989E+03</pdfrwt>
<pdfrwt beam="2">  1       21 0.14146834E-01 0.45549989E+03</pdfrwt>
<totfact> 0.56328159E+04</totfact>
</mgrwt>
</event>
<event>
 7    0  0.4748297E-002  0.4593598E+03  0.7546771E-02  0.1024967E+00
         21   -1    0    0  502  501  0.00000000000E+00  0.00000000000E+00  0.30185489698E+03  0.30185489698E+03  0.00000000000E+00 0.  1.
         21   -1    0    0  501  502 -0.00000000000E+00 -0.00000000000E+00 -0.17476226862E+03  0.17476226862E+03  0.00000000000E+00 0.  1.
      99926    2    1    2    0    0  0.00000000000E+00  0.35527136788E-14  0.12709262836E+03  0.47661716560E+03  0.45935975702E+03 0.  0.
      99925    2    3    3    0    0  0.10883405350E+03  0.23935873612E+02  0.43940653883E+02  0.28958899605E+03  0.26365361429E+03 0.  0.
         25    1    4    4    0    0  0.93496586496E+02 -0.31861170150E+01  0.11312496482E+02  0.15661176107E+03  0.12509000000E+03 0.  0.
         25    1    3    3    0    0 -0.10883405350E+03 -0.23935873612E+02  0.83151974473E+02  0.18702816955E+03  0.12509000000E+03 0.  0.
         25    1    4    4    0    0  0.15337467000E+02  0.27121990627E+02  0.32628157401E+02  0.13297723499E+03  0.12509000000E+03 0.  0.
<mgrwt>
<rscale>  2 0.45935976E+03</rscale>
<asrwt>0</asrwt>
<pdfrwt beam="1">  1       21 0.44390426E-01 0.45935976E+03</pdfrwt>
<pdfrwt beam="2">  1       21 0.25700333E-01 0.45935976E+03</pdfrwt>
<totfact> 0.64680361E+04</totfact>
</mgrwt>
</event>
<event>
 7    0  0.4748297E-002  0.4498226E+03  0.7546771E-02  0.1027775E+00
         21   -1    0    0  502  501  0.00000000000E+00  0.00000000000E+00  0.25091982377E+04  0.25091982377E+04  0.00000000000E+00 0. -1.
         21   -1    0    0  501  502 -0.00000000000E+00 -0.00000000000E+00 -0.20159863890E+02  0.20159863890E+02  0.00000000000E+00 0. -1.
      99926    2    1    2    0    0  0.00000000000E+00  0.00000000000E+00  0.24890383738E+04  0.25293581016E+04  0.44982260924E+03 0.  0.
      99925    2    3    3    0    0 -0.36435083954E+02  0.87156099574E+02  0.18716014198E+04  0.18923340822E+04  0.26289294956E+03 0.  0.
         25    1    4    4    0    0  0.90976386180E+01  0.42027607013E+02  0.70563598160E+03  0.71792669083E+03  0.12509000000E+03 0.  0.
         25    1    4    4    0    0 -0.45532722572E+02  0.45128492561E+02  0.11659654382E+04  0.11744073914E+04  0.12509000000E+03 0.  0.
         25    1    3    3    0    0  0.36435083954E+02 -0.87156099574E+02  0.61743695400E+03  0.63702401941E+03  0.12509000000E+03 0.  0.
<mgrwt>
<rscale>  2 0.44982261E+03</rscale>
<asrwt>0</asrwt>
<pdfrwt beam="1">  1       21 0.36899953E+00 0.44982261E+03</pdfrwt>
<pdfrwt beam="2">  1       21 0.29646876E-02 0.44982261E+03</pdfrwt>
<totfact> 0.71183251E+03</totfact>
</mgrwt>
</event>
<event>
 7    0  0.4748297E-002  0.4514863E+03  0.7546771E-02  0.1027280E+00
         21   -1    0    0  502  501  0.00000000000E+00  0.00000000000E+00  0.53390826665E+03  0.53390826665E+03  0.00000000000E+00 0. -1.
         21   -1    0    0  501  502 -0.00000000000E+00 -0.00000000000E+00 -0.95447060566E+02  0.95447060566E+02  0.00000000000E+00 0. -1.
      99926    2    1    2    0    0  0.14210854715E-13  0.00000000000E+00  0.43846120608E+03  0.62935532721E+03  0.45148632167E+03 0.  0.
      99925    2    3    3    0    0  0.10583184520E+03  0.28761078179E+02  0.27880705237E+03  0.39878096617E+03  0.26318303031E+03 0.  0.
         25    1    4    4    0    0  0.69239878785E+02  0.60939996423E+01  0.19610902170E+03  0.24277057923E+03  0.12509000000E+03 0.  0.
         25    1    3    3    0    0 -0.10583184520E+03 -0.28761078179E+02  0.15965415371E+03  0.23057436105E+03  0.12509000000E+03 0.  0.
         25    1    4    4    0    0  0.36591966414E+02  0.22667078537E+02  0.82698030675E+02  0.15601038694E+03  0.12509000000E+03 0.  0.
<mgrwt>
<rscale>  2 0.45148632E+03</rscale>
<asrwt>0</asrwt>
<pdfrwt beam="1">  1       21 0.78515920E-01 0.45148632E+03</pdfrwt>
<pdfrwt beam="2">  1       21 0.14036333E-01 0.45148632E+03</pdfrwt>
<totfact> 0.58512959E+04</totfact>
</mgrwt>
</event>
<event>
 7    0  0.4748297E-002  0.4531622E+03  0.7546771E-02  0.1026783E+00
         21   -1    0    0  502  501  0.00000000000E+00  0.00000000000E+00  0.11463951034E+03  0.11463951034E+03  0.00000000000E+00 0.  1.
         21   -1    0    0  501  502 -0.00000000000E+00 -0.00000000000E+00 -0.44782978570E+03  0.44782978570E+03  0.00000000000E+00 0.  1.
      99926    2    1    2    0    0 -0.14210854715E-13  0.35527136788E-14 -0.33319027536E+03  0.56246929604E+03  0.45316216677E+03 0.  0.
      99925    2    3    3    0    0 -0.10130413946E+03  0.26259405742E+02 -0.16247768902E+03  0.32637105315E+03  0.26299615937E+03 0.  0.
         25    1    3    3    0    0  0.10130413946E+03 -0.26259405742E+02 -0.17071258634E+03  0.23609824289E+03  0.12509000000E+03 0.  0.
         25    1    4    4    0    0 -0.49811406086E+02  0.11911688437E+02 -0.34275224225E+02  0.13944663350E+03  0.12509000000E+03 0.  0.
         25    1    4    4    0    0 -0.51492733372E+02  0.14347717306E+02 -0.12820246480E+03  0.18692441965E+03  0.12509000000E+03 0.  0.
<mgrwt>
<rscale>  2 0.45316217E+03</rscale>
<asrwt>0</asrwt>
<pdfrwt beam="1">  1       21 0.16858752E-01 0.45316217E+03</pdfrwt>
<pdfrwt beam="2">  1       21 0.65857321E-01 0.45316217E+03</pdfrwt>
<totfact> 0.61945520E+04</totfact>
</mgrwt>
</event>
<event>
 7    0  0.4748297E-002  0.4545489E+03  0.7546771E-02  0.1026374E+00
         21   -1    0    0  502  501  0.00000000000E+00  0.00000000000E+00  0.16322118794E+04  0.16322118794E+04  0.00000000000E+00 0. -1.
         21   -1    0    0  501  502 -0.00000000000E+00 -0.00000000000E+00 -0.31646432559E+02  0.31646432559E+02  0.00000000000E+00 0. -1.
      99926    2    1    2    0    0  0.00000000000E+00  0.71054273576E-14  0.16005654469E+04  0.16638583120E+04  0.45454893318E+03 0.  0.
      99925    2    3    3    0    0  0.94212388856E+02  0.53048585316E+02  0.89218119745E+03  0.93643417193E+03  0.26311887551E+03 0.  0.
         25    1    4    4    0    0  0.58040482182E+02  0.40103605527E+02  0.34247078282E+03  0.37136335567E+03  0.12509000000E+03 0.  0.
         25    1    3    3    0    0 -0.94212388856E+02 -0.53048585316E+02  0.70838424941E+03  0.72742414005E+03  0.12509000000E+03 0.  0.
         25    1    4    4    0    0  0.36171906674E+02  0.12944979789E+02  0.54971041463E+03  0.56507081626E+03  0.12509000000E+03 0.  0.
<mgrwt>
<rscale>  2 0.45454893E+03</rscale>
<asrwt>0</asrwt>
<pdfrwt beam="1">  1       21 0.24003110E+00 0.45454893E+03</pdfrwt>
<pdfrwt beam="2">  1       21 0.46538882E-02 0.45454893E+03</pdfrwt>
<totfact> 0.20094775E+04</totfact>
</mgrwt>
</event>
<event>
 7    0  0.4748297E-002  0.4547840E+03  0.7546771E-02  0.1026305E+00
         21   -1    0    0  502  501  0.00000000000E+00  0.00000000000E+00  0.80106542571E+03  0.80106542571E+03  0.00000000000E+00 0.  1.
         21   -1    0    0  501  502 -0.00000000000E+00 -0.00000000000E+00 -0.64547928313E+02  0.64547928313E+02  0.00000000000E+00 0.  1.
      99926    2    1    2    0    0  0.00000000000E+00  0.00000000000E+00  0.73651749739E+03  0.86561335402E+03  0.45478396486E+03 0.  0.
      99925    2    3    3    0    0  0.84657939211E+02 -0.22821958258E+02  0.59936421687E+03  0.66031761878E+03  0.26285753699E+03 0.  0.
         25    1    4    4    0    0  0.70540641146E+02 -0.42209922279E+02  0.32964603401E+03  0.36203822371E+03  0.12509000000E+03 0.  0.
         25    1    3    3    0    0 -0.84657939211E+02  0.22821958258E+02  0.13715328052E+03  0.20529573524E+03  0.12509000000E+03 0.  0.
         25    1    4    4    0    0  0.14117298064E+02  0.19387964021E+02  0.26971818287E+03  0.29827939507E+03  0.12509000000E+03 0.  0.
<mgrwt>
<rscale>  2 0.45478396E+03</rscale>
<asrwt>0</asrwt>
<pdfrwt beam="1">  1       21 0.11780373E+00 0.45478396E+03</pdfrwt>
<pdfrwt beam="2">  1       21 0.94923429E-02 0.45478396E+03</pdfrwt>
<totfact> 0.44824621E+04</totfact>
</mgrwt>
</event>
<event>
 7    0  0.4748297E-002  0.4095477E+03  0.7546771E-02  0.1040523E+00
         21   -1    0    0  502  501  0.00000000000E+00  0.00000000000E+00  0.13975242855E+03  0.13975242855E+03  0.00000000000E+00 0.  1.
         21   -1    0    0  501  502 -0.00000000000E+00 -0.00000000000E+00 -0.30004726175E+03  0.30004726175E+03  0.00000000000E+00 0.  1.
      99926    2    1    2    0    0  0.35527136788E-14 -0.17763568394E-14 -0.16029483320E+03  0.43979969030E+03  0.40954771887E+03 0.  0.
      99925    2    3    3    0    0  0.83203722691E+01  0.95488176063E+01 -0.17049746669E+03  0.31365687305E+03  0.26296547179E+03 0.  0.
         25    1    3    3    0    0 -0.83203722691E+01 -0.95488176063E+01  0.10202633488E+02  0.12614281724E+03  0.12509000000E+03 0.  0.
         25    1    4    4    0    0 -0.24814960563E+02  0.29439139495E+02 -0.68714058598E+02  0.14782278292E+03  0.12509000000E+03 0.  0.
         25    1    4    4    0    0  0.33135332833E+02 -0.19890321889E+02 -0.10178340809E+03  0.16583409013E+03  0.12509000000E+03 0.  0.
<mgrwt>
<rscale>  2 0.40954772E+03</rscale>
<asrwt>0</asrwt>
<pdfrwt beam="1">  1       21 0.20551828E-01 0.40954772E+03</pdfrwt>
<pdfrwt beam="2">  1       21 0.44124598E-01 0.40954772E+03</pdfrwt>
<totfact> 0.10180124E+05</totfact>
</mgrwt>
</event>
<event>
 7    0  0.4748297E-002  0.4497111E+03  0.7546771E-02  0.1027808E+00
         21   -1    0    0  502  501  0.00000000000E+00  0.00000000000E+00  0.16551811199E+03  0.16551811199E+03  0.00000000000E+00 0.  1.
         21   -1    0    0  501  502 -0.00000000000E+00 -0.00000000000E+00 -0.30546518581E+03  0.30546518581E+03  0.00000000000E+00 0.  1.
      99926    2    1    2    0    0 -0.71054273576E-14 -0.14210854715E-13 -0.13994707381E+03  0.47098329780E+03  0.44971111098E+03 0.  0.
      99925    2    3    3    0    0 -0.47750626719E+02 -0.83315576283E+02 -0.14044110078E+03  0.31328307660E+03  0.26306078327E+03 0.  0.
         25    1    3    3    0    0  0.47750626719E+02  0.83315576283E+02  0.49402696169E+00  0.15770022120E+03  0.12509000000E+03 0.  0.
         25    1    4    4    0    0 -0.34168250929E+02 -0.29687082291E+02 -0.27355592340E+02  0.13581100382E+03  0.12509000000E+03 0.  0.
         25    1    4    4    0    0 -0.13582375790E+02 -0.53628493992E+02 -0.11308550843E+03  0.17747207278E+03  0.12509000000E+03 0.  0.
<mgrwt>
<rscale>  2 0.44971111E+03</rscale>
<asrwt>0</asrwt>
<pdfrwt beam="1">  1       21 0.24340899E-01 0.44971111E+03</pdfrwt>
<pdfrwt beam="2">  1       21 0.44921350E-01 0.44971111E+03</pdfrwt>
<totfact> 0.70265598E+04</totfact>
</mgrwt>
</event>
<event>
 7    0  0.4748297E-002  0.4468672E+03  0.7546771E-02  0.1028660E+00
         21   -1    0    0  502  501  0.00000000000E+00  0.00000000000E+00  0.44640787897E+03  0.44640787897E+03  0.00000000000E+00 0.  1.
         21   -1    0    0  501  502 -0.00000000000E+00 -0.00000000000E+00 -0.11183175442E+03  0.11183175442E+03  0.00000000000E+00 0.  1.
      99926    2    1    2    0    0  0.00000000000E+00  0.71054273576E-14  0.33457612455E+03  0.55823963339E+03  0.44686721201E+03 0.  0.
      99925    2    3    3    0    0  0.90193294674E+02 -0.34483672969E+02  0.15929648698E+03  0.32224299454E+03  0.26294718606E+03 0.  0.
         25    1    3    3    0    0 -0.90193294674E+02  0.34483672969E+02  0.17527963757E+03  0.23599663886E+03  0.12509000000E+03 0.  0.
         25    1    4    4    0    0  0.31245665709E+02  0.21511354012E+02  0.80630337748E+02  0.15358316784E+03  0.12509000000E+03 0.  0.
         25    1    4    4    0    0  0.58947628965E+02 -0.55995026981E+02  0.78666149233E+02  0.16865982670E+03  0.12509000000E+03 0.  0.
<mgrwt>
<rscale>  2 0.44686721E+03</rscale>
<asrwt>0</asrwt>
<pdfrwt beam="1">  1       21 0.65648217E-01 0.44686721E+03</pdfrwt>
<pdfrwt beam="2">  1       21 0.16445846E-01 0.44686721E+03</pdfrwt>
<totfact> 0.65434260E+04</totfact>
</mgrwt>
</event>
<event>
 7    0  0.4748297E-002  0.4544753E+03  0.7546771E-02  0.1026396E+00
         21   -1    0    0  502  501  0.00000000000E+00  0.00000000000E+00  0.43205473039E+03  0.43205473039E+03  0.00000000000E+00 0.  1.
         21   -1    0    0  501  502 -0.00000000000E+00 -0.00000000000E+00 -0.11951481264E+03  0.11951481264E+03  0.00000000000E+00 0.  1.
      99926    2    1    2    0    0 -0.26645352591E-14  0.00000000000E+00  0.31253991775E+03  0.55156954304E+03  0.45447525853E+03 0.  0.
      99925    2    3    3    0    0 -0.68767847408E+00 -0.10318245636E+03  0.25185860426E+03  0.37843138402E+03  0.26292672680E+03 0.  0.
         25    1    3    3    0    0  0.68767847408E+00  0.10318245636E+03  0.60681313494E+02  0.17313815902E+03  0.12509000000E+03 0.  0.
         25    1    4    4    0    0  0.31999597596E+02 -0.70017276787E+02  0.10889808282E+03  0.18284609330E+03  0.12509000000E+03 0.  0.
         25    1    4    4    0    0 -0.32687276070E+02 -0.33165179570E+02  0.14296052144E+03  0.19558529071E+03  0.12509000000E+03 0.  0.
<mgrwt>
<rscale>  2 0.45447526E+03</rscale>
<asrwt>0</asrwt>
<pdfrwt beam="1">  1       21 0.63537460E-01 0.45447526E+03</pdfrwt>
<pdfrwt beam="2">  1       21 0.17575708E-01 0.45447526E+03</pdfrwt>
<totfact> 0.62019992E+04</totfact>
</mgrwt>
</event>
<event>
 7    0  0.4748297E-002  0.4588453E+03  0.7546771E-02  0.1025117E+00
         21   -1    0    0  502  501  0.00000000000E+00  0.00000000000E+00  0.19671203275E+04  0.19671203275E+04  0.00000000000E+00 0.  1.
         21   -1    0    0  501  502 -0.00000000000E+00 -0.00000000000E+00 -0.26757266636E+02  0.26757266636E+02  0.00000000000E+00 0.  1.
      99926    2    1    2    0    0  0.00000000000E+00  0.00000000000E+00  0.19403630608E+04  0.19938775941E+04  0.45884534696E+03 0.  0.
      99925    2    3    3    0    0  0.67883514131E+02  0.34188463308E+02  0.16017573755E+04  0.16249896155E+04  0.26303524104E+03 0.  0.
         25    1    3    3    0    0 -0.67883514131E+02 -0.34188463308E+02  0.33860568536E+03  0.36888797863E+03  0.12509000000E+03 0.  0.
         25    1    4    4    0    0  0.12246558780E+02 -0.18592086564E+02  0.73513960245E+03  0.74603846220E+03  0.12509000000E+03 0.  0.
         25    1    4    4    0    0  0.55636955351E+02  0.52780549873E+02  0.86661777301E+03  0.87895115327E+03  0.12509000000E+03 0.  0.
<mgrwt>
<rscale>  2 0.45884535E+03</rscale>
<asrwt>0</asrwt>
<pdfrwt beam="1">  1       21 0.28928230E+00 0.45884535E+03</pdfrwt>
<pdfrwt beam="2">  1       21 0.39348935E-02 0.45884535E+03</pdfrwt>
<totfact> 0.13405323E+04</totfact>
</mgrwt>
</event>
<event>
 7    0  0.4748297E-002  0.4554814E+03  0.7546771E-02  0.1026100E+00
         21   -1    0    0  502  501  0.00000000000E+00  0.00000000000E+00  0.13978881271E+03  0.13978881271E+03  0.00000000000E+00 0.  1.
         21   -1    0    0  501  502 -0.00000000000E+00 -0.00000000000E+00 -0.37102983367E+03  0.37102983367E+03  0.00000000000E+00 0.  1.
      99926    2    1    2    0    0  0.00000000000E+00 -0.14210854715E-13 -0.23124102096E+03  0.51081864638E+03  0.45548137142E+03 0.  0.
      99925    2    3    3    0    0 -0.75291198043E+02 -0.66859746761E+02 -0.20458931379E+03  0.34804023308E+03  0.26293768518E+03 0.  0.
         25    1    3    3    0    0  0.75291198043E+02  0.66859746761E+02 -0.26651707174E+02  0.16277841330E+03  0.12509000000E+03 0.  0.
         25    1    4    4    0    0 -0.45707971411E+01 -0.26337980220E+02 -0.64285976002E+02  0.14315996717E+03  0.12509000000E+03 0.  0.
         25    1    4    4    0    0 -0.70720400902E+02 -0.40521766541E+02 -0.14030333779E+03  0.20488026591E+03  0.12509000000E+03 0.  0.
<mgrwt>
<rscale>  2 0.45548137E+03</rscale>
<asrwt>0</asrwt>
<pdfrwt beam="1">  1       21 0.20557179E-01 0.45548137E+03</pdfrwt>
<pdfrwt beam="2">  1       21 0.54563210E-01 0.45548137E+03</pdfrwt>
<totfact> 0.64271224E+04</totfact>
</mgrwt>
</event>
<event>
 7    0  0.4748297E-002  0.4556782E+03  0.7546771E-02  0.1026042E+00
         21   -1    0    0  502  501  0.00000000000E+00  0.00000000000E+00  0.78233638786E+03  0.78233638786E+03  0.00000000000E+00 0.  1.
         21   -1    0    0  501  502 -0.00000000000E+00 -0.00000000000E+00 -0.66353375137E+02  0.66353375137E+02  0.00000000000E+00 0.  1.
      99926    2    1    2    0    0  0.00000000000E+00  0.88817841970E-15  0.71598301273E+03  0.84868976300E+03  0.45567821904E+03 0.  0.
      99925    2    3    3    0    0 -0.97277439222E+02  0.56838452272E+01  0.34242973369E+03  0.44287605370E+03  0.26341197799E+03 0.  0.
         25    1    3    3    0    0  0.97277439222E+02 -0.56838452272E+01  0.37355327903E+03  0.40581370930E+03  0.12509000000E+03 0.  0.
         25    1    4    4    0    0 -0.26404632965E+02 -0.32804630623E+02  0.16442385833E+03  0.21084606166E+03  0.12509000000E+03 0.  0.
         25    1    4    4    0    0 -0.70872806257E+02  0.38488475850E+02  0.17800587537E+03  0.23202999204E+03  0.12509000000E+03 0.  0.
<mgrwt>
<rscale>  2 0.45567822E+03</rscale>
<asrwt>0</asrwt>
<pdfrwt beam="1">  1       21 0.11504946E+00 0.45567822E+03</pdfrwt>
<pdfrwt beam="2">  1       21 0.97578498E-02 0.45567822E+03</pdfrwt>
<totfact> 0.45256782E+04</totfact>
</mgrwt>
</event>
<event>
 7    0  0.4748297E-002  0.4187336E+03  0.7546771E-02  0.1037479E+00
         21   -1    0    0  502  501  0.00000000000E+00  0.00000000000E+00  0.52369821848E+03  0.52369821848E+03  0.00000000000E+00 0. -1.
         21   -1    0    0  501  502 -0.00000000000E+00 -0.00000000000E+00 -0.83701738273E+02  0.83701738273E+02  0.00000000000E+00 0. -1.
      99926    2    1    2    0    0  0.00000000000E+00  0.00000000000E+00  0.43999648021E+03  0.60739995676E+03  0.41873357266E+03 0.  0.
      99925    2    3    3    0    0 -0.17981379584E+02  0.68437040212E+02  0.31903716156E+03  0.41955527796E+03  0.26312537377E+03 0.  0.
         25    1    3    3    0    0  0.17981379584E+02 -0.68437040212E+02  0.12095931865E+03  0.18784467880E+03  0.12509000000E+03 0.  0.
         25    1    4    4    0    0 -0.95693098968E+01 -0.59401177405E+01  0.16655823726E+03  0.20860491650E+03  0.12509000000E+03 0.  0.
         25    1    4    4    0    0 -0.84120696873E+01  0.74377157953E+02  0.15247892430E+03  0.21095036146E+03  0.12509000000E+03 0.  0.
<mgrwt>
<rscale>  2 0.41873357E+03</rscale>
<asrwt>0</asrwt>
<pdfrwt beam="1">  1       21 0.77014442E-01 0.41873357E+03</pdfrwt>
<pdfrwt beam="2">  1       21 0.12309079E-01 0.41873357E+03</pdfrwt>
<totfact> 0.78370980E+04</totfact>
</mgrwt>
</event>
<event>
 7    0  0.4748297E-002  0.4517640E+03  0.7546771E-02  0.1027197E+00
         21   -1    0    0  502  501  0.00000000000E+00  0.00000000000E+00  0.14824420088E+03  0.14824420088E+03  0.00000000000E+00 0. -1.
         21   -1    0    0  501  502 -0.00000000000E+00 -0.00000000000E+00 -0.34417999171E+03  0.34417999171E+03  0.00000000000E+00 0. -1.
      99926    2    1    2    0    0  0.00000000000E+00  0.00000000000E+00 -0.19593579083E+03  0.49242419259E+03  0.45176404386E+03 0.  0.
      99925    2    3    3    0    0 -0.89111043207E+01  0.10518830617E+03 -0.91287309340E+02  0.29814912905E+03  0.26346829557E+03 0.  0.
         25    1    3    3    0    0  0.89111043207E+01 -0.10518830617E+03 -0.10464848149E+03  0.19427506354E+03  0.12509000000E+03 0.  0.
         25    1    4    4    0    0  0.52798930461E+01  0.19283202010E+02 -0.14546989779E+02  0.12751016494E+03  0.12509000000E+03 0.  0.
         25    1    4    4    0    0 -0.14190997367E+02  0.85905104164E+02 -0.76740319561E+02  0.17063896411E+03  0.12509000000E+03 0.  0.
<mgrwt>
<rscale>  2 0.45176404E+03</rscale>
<asrwt>0</asrwt>
<pdfrwt beam="1">  1       21 0.21800618E-01 0.45176404E+03</pdfrwt>
<pdfrwt beam="2">  1       21 0.50614704E-01 0.45176404E+03</pdfrwt>
<totfact> 0.67524248E+04</totfact>
</mgrwt>
</event>
<event>
 7    0  0.4748297E-002  0.4252779E+03  0.7546771E-02  0.1035362E+00
         21   -1    0    0  502  501  0.00000000000E+00  0.00000000000E+00  0.63185606566E+03  0.63185606566E+03  0.00000000000E+00 0. -1.
         21   -1    0    0  501  502 -0.00000000000E+00 -0.00000000000E+00 -0.71559536416E+02  0.71559536416E+02  0.00000000000E+00 0. -1.
      99926    2    1    2    0    0  0.00000000000E+00  0.44408920985E-15  0.56029652924E+03  0.70341560207E+03  0.42527791920E+03 0.  0.
      99925    2    3    3    0    0  0.76452354510E+02 -0.26518405344E+01  0.31399564808E+03  0.41677361818E+03  0.26316342267E+03 0.  0.
         25    1    3    3    0    0 -0.76452354510E+02  0.26518405344E+01  0.24630088116E+03  0.28664198389E+03  0.12509000000E+03 0.  0.
         25    1    4    4    0    0  0.28973164311E+02  0.26216276104E+02  0.19755180020E+03  0.23706741498E+03  0.12509000000E+03 0.  0.
         25    1    4    4    0    0  0.47479190199E+02 -0.28868116639E+02  0.11644384788E+03  0.17970620320E+03  0.12509000000E+03 0.  0.
<mgrwt>
<rscale>  2 0.42527792E+03</rscale>
<asrwt>0</asrwt>
<pdfrwt beam="1">  1       21 0.92920007E-01 0.42527792E+03</pdfrwt>
<pdfrwt beam="2">  1       21 0.10523462E-01 0.42527792E+03</pdfrwt>
<totfact> 0.67084064E+04</totfact>
</mgrwt>
</event>
<event>
 7    0  0.4748297E-002  0.4459783E+03  0.7546771E-02  0.1028928E+00
         21   -1    0    0  502  501  0.00000000000E+00  0.00000000000E+00  0.35311004067E+03  0.35311004067E+03  0.00000000000E+00 0.  1.
         21   -1    0    0  501  502 -0.00000000000E+00 -0.00000000000E+00 -0.14081775683E+03  0.14081775683E+03  0.00000000000E+00 0.  1.
      99926    2    1    2    0    0  0.00000000000E+00  0.00000000000E+00  0.21229228385E+03  0.49392779750E+03  0.44597831266E+03 0.  0.
      99925    2    3    3    0    0 -0.69256432475E+02  0.76224235304E+01  0.48587375603E+02  0.27643903949E+03  0.26306511495E+03 0.  0.
         25    1    4    4    0    0 -0.39154990665E+02  0.44189802039E+02  0.21901722515E+02  0.14004658313E+03  0.12509000000E+03 0.  0.
         25    1    4    4    0    0 -0.30101441810E+02 -0.36567378509E+02  0.26685653088E+02  0.13639245636E+03  0.12509000000E+03 0.  0.
         25    1    3    3    0    0  0.69256432475E+02 -0.76224235304E+01  0.16370490824E+03  0.21748875801E+03  0.12509000000E+03 0.  0.
<mgrwt>
<rscale>  2 0.44597831E+03</rscale>
<asrwt>0</asrwt>
<pdfrwt beam="1">  1       21 0.51927947E-01 0.44597831E+03</pdfrwt>
<pdfrwt beam="2">  1       21 0.20708494E-01 0.44597831E+03</pdfrwt>
<totfact> 0.70623188E+04</totfact>
</mgrwt>
</event>
<event>
 7    0  0.4748297E-002  0.4570807E+03  0.7546771E-02  0.1025631E+00
         21   -1    0    0  502  501  0.00000000000E+00  0.00000000000E+00  0.76053626927E+03  0.76053626927E+03  0.00000000000E+00 0. -1.
         21   -1    0    0  501  502 -0.00000000000E+00 -0.00000000000E+00 -0.68676146319E+02  0.68676146319E+02  0.00000000000E+00 0. -1.
      99926    2    1    2    0    0  0.00000000000E+00  0.35527136788E-14  0.69186012295E+03  0.82921241558E+03  0.45708073733E+03 0.  0.
      99925    2    3    3    0    0 -0.87395079888E+02  0.29688835631E+02  0.55940088715E+03  0.62497656125E+03  0.26295821457E+03 0.  0.
         25    1    4    4    0    0 -0.69185985478E+02  0.48257033258E+02  0.29710850293E+03  0.33322126652E+03  0.12509000000E+03 0.  0.
         25    1    4    4    0    0 -0.18209094410E+02 -0.18568197627E+02  0.26229238422E+03  0.29175529473E+03  0.12509000000E+03 0.  0.
         25    1    3    3    0    0  0.87395079888E+02 -0.29688835631E+02  0.13245923579E+03  0.20423585434E+03  0.12509000000E+03 0.  0.
<mgrwt>
<rscale>  2 0.45708074E+03</rscale>
<asrwt>0</asrwt>
<pdfrwt beam="1">  1       21 0.11184356E+00 0.45708074E+03</pdfrwt>
<pdfrwt beam="2">  1       21 0.10099434E-01 0.45708074E+03</pdfrwt>
<totfact> 0.45634487E+04</totfact>
</mgrwt>
</event>
<event>
 7    0  0.4748297E-002  0.4540671E+03  0.7546771E-02  0.1026516E+00
         21   -1    0    0  502  501  0.00000000000E+00  0.00000000000E+00  0.78729973104E+02  0.78729973104E+02  0.00000000000E+00 0.  1.
         21   -1    0    0  501  502 -0.00000000000E+00 -0.00000000000E+00 -0.65469640966E+03  0.65469640966E+03  0.00000000000E+00 0.  1.
      99926    2    1    2    0    0  0.00000000000E+00  0.00000000000E+00 -0.57596643656E+03  0.73342638276E+03  0.45406709074E+03 0.  0.
      99925    2    3    3    0    0  0.41764494585E+02  0.67818730958E+02 -0.49060147255E+03  0.56231724082E+03  0.26299661819E+03 0.  0.
         25    1    3    3    0    0 -0.41764494585E+02 -0.67818730958E+02 -0.85364964003E+02  0.17110914194E+03  0.12509000000E+03 0.  0.
         25    1    4    4    0    0  0.58409129009E+02  0.18435702231E+02 -0.24945270667E+03  0.28570205186E+03  0.12509000000E+03 0.  0.
         25    1    4    4    0    0 -0.16644634424E+02  0.49383028728E+02 -0.24114876588E+03  0.27661518897E+03  0.12509000000E+03 0.  0.
<mgrwt>
<rscale>  2 0.45406709E+03</rscale>
<asrwt>0</asrwt>
<pdfrwt beam="1">  1       21 0.11577937E-01 0.45406709E+03</pdfrwt>
<pdfrwt beam="2">  1       21 0.96278883E-01 0.45406709E+03</pdfrwt>
<totfact> 0.51502183E+04</totfact>
</mgrwt>
</event>
<event>
 7    0  0.4748297E-002  0.4643788E+03  0.7546771E-02  0.1023519E+00
         21   -1    0    0  502  501  0.00000000000E+00  0.00000000000E+00  0.82791475306E+02  0.82791475306E+02  0.00000000000E+00 0.  1.
         21   -1    0    0  501  502 -0.00000000000E+00 -0.00000000000E+00 -0.65117703838E+03  0.65117703838E+03  0.00000000000E+00 0.  1.
      99926    2    1    2    0    0  0.00000000000E+00  0.00000000000E+00 -0.56838556308E+03  0.73396851369E+03  0.46437875788E+03 0.  0.
      99925    2    3    3    0    0 -0.68115230501E+02  0.57640867587E+02 -0.22236010044E+03  0.35536148373E+03  0.26244164229E+03 0.  0.
         25    1    4    4    0    0 -0.17886859197E+02  0.23405315801E+02 -0.60749667861E+02  0.14214703228E+03  0.12509000000E+03 0.  0.
         25    1    4    4    0    0 -0.50228371304E+02  0.34235551786E+02 -0.16161043258E+03  0.21321445145E+03  0.12509000000E+03 0.  0.
         25    1    3    3    0    0  0.68115230501E+02 -0.57640867587E+02 -0.34602546264E+03  0.37860702996E+03  0.12509000000E+03 0.  0.
<mgrwt>
<rscale>  2 0.46437876E+03</rscale>
<asrwt>0</asrwt>
<pdfrwt beam="1">  1       21 0.12175217E-01 0.46437876E+03</pdfrwt>
<pdfrwt beam="2">  1       21 0.95761330E-01 0.46437876E+03</pdfrwt>
<totfact> 0.47496511E+04</totfact>
</mgrwt>
</event>
<event>
 7    0  0.4748297E-002  0.4619771E+03  0.7546771E-02  0.1024209E+00
         21   -1    0    0  502  501  0.00000000000E+00  0.00000000000E+00  0.37850581263E+02  0.37850581263E+02  0.00000000000E+00 0. -1.
         21   -1    0    0  501  502 -0.00000000000E+00 -0.00000000000E+00 -0.14096401416E+04  0.14096401416E+04  0.00000000000E+00 0. -1.
      99926    2    1    2    0    0 -0.48849813084E-14  0.00000000000E+00 -0.13717895603E+04  0.14474907229E+04  0.46197705021E+03 0.  0.
      99925    2    3    3    0    0  0.26185326506E+01  0.83622027410E+02 -0.59019248895E+03  0.65153784091E+03  0.26301118598E+03 0.  0.
         25    1    4    4    0    0 -0.37960659305E+02  0.51299583297E+02 -0.28980726943E+03  0.32203791766E+03  0.12509000000E+03 0.  0.
         25    1    3    3    0    0 -0.26185326506E+01 -0.83622027410E+02 -0.78159707139E+03  0.79595288195E+03  0.12509000000E+03 0.  0.
         25    1    4    4    0    0  0.40579191956E+02  0.32322444113E+02 -0.30038521952E+03  0.32949992325E+03  0.12509000000E+03 0.  0.
<mgrwt>
<rscale>  2 0.46197705E+03</rscale>
<asrwt>0</asrwt>
<pdfrwt beam="1">  1       21 0.55662626E-02 0.46197705E+03</pdfrwt>
<pdfrwt beam="2">  1       21 0.20730000E+00 0.46197705E+03</pdfrwt>
<totfact> 0.23778140E+04</totfact>
</mgrwt>
</event>
<event>
 7    0  0.4748297E-002  0.4508747E+03  0.7546771E-02  0.1027462E+00
         21   -1    0    0  502  501  0.00000000000E+00  0.00000000000E+00  0.43002079470E+03  0.43002079470E+03  0.00000000000E+00 0. -1.
         21   -1    0    0  501  502 -0.00000000000E+00 -0.00000000000E+00 -0.11818497478E+03  0.11818497478E+03  0.00000000000E+00 0. -1.
      99926    2    1    2    0    0  0.00000000000E+00  0.00000000000E+00  0.31183581992E+03  0.54820576947E+03  0.45087469112E+03 0.  0.
      99925    2    3    3    0    0 -0.44836277733E+02 -0.35321147523E+02  0.31042630296E+03  0.41070169644E+03  0.26278036194E+03 0.  0.
         25    1    4    4    0    0 -0.15059720812E+02 -0.11619236832E+02  0.21260778586E+03  0.24740933807E+03  0.12509000000E+03 0.  0.
         25    1    3    3    0    0  0.44836277733E+02  0.35321147523E+02  0.14095169569E+01  0.13750407304E+03  0.12509000000E+03 0.  0.
         25    1    4    4    0    0 -0.29776556921E+02 -0.23701910691E+02  0.97818517100E+02  0.16329235836E+03  0.12509000000E+03 0.  0.
<mgrwt>
<rscale>  2 0.45087469E+03</rscale>
<asrwt>0</asrwt>
<pdfrwt beam="1">  1       21 0.63238352E-01 0.45087469E+03</pdfrwt>
<pdfrwt beam="2">  1       21 0.17380144E-01 0.45087469E+03</pdfrwt>
<totfact> 0.64050394E+04</totfact>
</mgrwt>
</event>
<event>
 7    0  0.4748297E-002  0.4499954E+03  0.7546771E-02  0.1027723E+00
         21   -1    0    0  502  501  0.00000000000E+00  0.00000000000E+00  0.24830241820E+03  0.24830241820E+03  0.00000000000E+00 0. -1.
         21   -1    0    0  501  502 -0.00000000000E+00 -0.00000000000E+00 -0.20388031354E+03  0.20388031354E+03  0.00000000000E+00 0. -1.
      99926    2    1    2    0    0 -0.88817841970E-15  0.14210854715E-13  0.44422104664E+02  0.45218273174E+03  0.44999544387E+03 0.  0.
      99925    2    3    3    0    0  0.48708379012E+01 -0.10731435092E+03  0.42943597221E+02  0.28728946608E+03  0.26296575786E+03 0.  0.
         25    1    4    4    0    0  0.15678678121E+02 -0.83492025465E+02  0.50100659365E+02  0.15929319958E+03  0.12509000000E+03 0.  0.
         25    1    3    3    0    0 -0.48708379012E+01  0.10731435092E+03  0.14785074427E+01  0.16489326566E+03  0.12509000000E+03 0.  0.
         25    1    4    4    0    0 -0.10807840220E+02 -0.23822325453E+02 -0.71570621437E+01  0.12799626650E+03  0.12509000000E+03 0.  0.
<mgrwt>
<rscale>  2 0.44999544E+03</rscale>
<asrwt>0</asrwt>
<pdfrwt beam="1">  1       21 0.36515061E-01 0.44999544E+03</pdfrwt>
<pdfrwt beam="2">  1       21 0.29982399E-01 0.44999544E+03</pdfrwt>
<totfact> 0.71567914E+04</totfact>
</mgrwt>
</event>
<event>
 7    0  0.4748297E-002  0.4526517E+03  0.7546771E-02  0.1026934E+00
         21   -1    0    0  502  501  0.00000000000E+00  0.00000000000E+00  0.19576063207E+03  0.19576063207E+03  0.00000000000E+00 0.  1.
         21   -1    0    0  501  502 -0.00000000000E+00 -0.00000000000E+00 -0.26166334690E+03  0.26166334690E+03  0.00000000000E+00 0.  1.
      99926    2    1    2    0    0  0.00000000000E+00  0.00000000000E+00 -0.65902714827E+02  0.45742397897E+03  0.45265166378E+03 0.  0.
      99925    2    3    3    0    0 -0.35468300650E+02 -0.79484289156E+02  0.28380716240E+02  0.27822401790E+03  0.26273063489E+03 0.  0.
         25    1    4    4    0    0  0.11797562244E+02 -0.10942089249E+02  0.56286730047E+01  0.12624619540E+03  0.12509000000E+03 0.  0.
         25    1    4    4    0    0 -0.47265862894E+02 -0.68542199908E+02  0.22752043235E+02  0.15197782251E+03  0.12509000000E+03 0.  0.
         25    1    3    3    0    0  0.35468300650E+02  0.79484289156E+02 -0.94283431066E+02  0.17919996107E+03  0.12509000000E+03 0.  0.
<mgrwt>
<rscale>  2 0.45265166E+03</rscale>
<asrwt>0</asrwt>
<pdfrwt beam="1">  1       21 0.28788328E-01 0.45265166E+03</pdfrwt>
<pdfrwt beam="2">  1       21 0.38479904E-01 0.45265166E+03</pdfrwt>
<totfact> 0.69664224E+04</totfact>
</mgrwt>
</event>
<event>
 7    0  0.4748297E-002  0.4457903E+03  0.7546771E-02  0.1028985E+00
         21   -1    0    0  502  501  0.00000000000E+00  0.00000000000E+00  0.20873831617E+03  0.20873831617E+03  0.00000000000E+00 0.  1.
         21   -1    0    0  501  502 -0.00000000000E+00 -0.00000000000E+00 -0.23801209224E+03  0.23801209224E+03  0.00000000000E+00 0.  1.
      99926    2    1    2    0    0  0.00000000000E+00  0.00000000000E+00 -0.29273776070E+02  0.44675040841E+03  0.44579027967E+03 0.  0.
      99925    2    3    3    0    0 -0.10219412075E+03  0.14403250403E+02 -0.33369356272E+02  0.28453026843E+03  0.26304537209E+03 0.  0.
         25    1    4    4    0    0 -0.86490942800E+02  0.11111889047E+02  0.54314397433E+01  0.15258166961E+03  0.12509000000E+03 0.  0.
         25    1    4    4    0    0 -0.15703177947E+02  0.32913613559E+01 -0.38800796015E+02  0.13194859881E+03  0.12509000000E+03 0.  0.
         25    1    3    3    0    0  0.10219412075E+03 -0.14403250403E+02  0.40955802019E+01  0.16222013998E+03  0.12509000000E+03 0.  0.
<mgrwt>
<rscale>  2 0.44579028E+03</rscale>
<asrwt>0</asrwt>
<pdfrwt beam="1">  1       21 0.30696811E-01 0.44579028E+03</pdfrwt>
<pdfrwt beam="2">  1       21 0.35001778E-01 0.44579028E+03</pdfrwt>
<totfact> 0.74478706E+04</totfact>
</mgrwt>
</event>
<event>
 7    0  0.4748297E-002  0.4615663E+03  0.7546771E-02  0.1024328E+00
         21   -1    0    0  502  501  0.00000000000E+00  0.00000000000E+00  0.14072338779E+03  0.14072338779E+03  0.00000000000E+00 0.  1.
         21   -1    0    0  501  502 -0.00000000000E+00 -0.00000000000E+00 -0.37847916324E+03  0.37847916324E+03  0.00000000000E+00 0.  1.
      99926    2    1    2    0    0 -0.14210854715E-13 -0.35527136788E-14 -0.23775577545E+03  0.51920255103E+03  0.46156633352E+03 0.  0.
      99925    2    3    3    0    0  0.11318116698E+03  0.22034615896E+02 -0.18230218594E+03  0.34026650228E+03  0.26315718633E+03 0.  0.
         25    1    4    4    0    0  0.57268419371E+02  0.33558992485E+02 -0.52066914991E+02  0.15087859215E+03  0.12509000000E+03 0.  0.
         25    1    4    4    0    0  0.55912747604E+02 -0.11524376589E+02 -0.13023527095E+03  0.18938791012E+03  0.12509000000E+03 0.  0.
         25    1    3    3    0    0 -0.11318116698E+03 -0.22034615896E+02 -0.55453589507E+02  0.17893604876E+03  0.12509000000E+03 0.  0.
<mgrwt>
<rscale>  2 0.46156633E+03</rscale>
<asrwt>0</asrwt>
<pdfrwt beam="1">  1       21 0.20694616E-01 0.46156633E+03</pdfrwt>
<pdfrwt beam="2">  1       21 0.55658701E-01 0.46156633E+03</pdfrwt>
<totfact> 0.60715897E+04</totfact>
</mgrwt>
</event>
<event>
 7    0  0.4748297E-002  0.4555767E+03  0.7546771E-02  0.1026072E+00
         21   -1    0    0  502  501  0.00000000000E+00  0.00000000000E+00  0.40983011806E+03  0.40983011806E+03  0.00000000000E+00 0.  1.
         21   -1    0    0  501  502 -0.00000000000E+00 -0.00000000000E+00 -0.12660741203E+03  0.12660741203E+03  0.00000000000E+00 0.  1.
      99926    2    1    2    0    0 -0.71054273576E-14  0.35527136788E-14  0.28322270603E+03  0.53643753009E+03  0.45557669220E+03 0.  0.
      99925    2    3    3    0    0  0.40797901752E+02 -0.29651950113E+02  0.58250729416E+02  0.27413311668E+03  0.26308194778E+03 0.  0.
         25    1    3    3    0    0 -0.40797901752E+02  0.29651950113E+02  0.22497197661E+03  0.26230441341E+03  0.12509000000E+03 0.  0.
         25    1    4    4    0    0  0.46100988896E+02  0.95074986555E+01  0.49967936100E+02  0.14268845940E+03  0.12509000000E+03 0.  0.
         25    1    4    4    0    0 -0.53030871444E+01 -0.39159448768E+02  0.82827933161E+01  0.13144465728E+03  0.12509000000E+03 0.  0.
<mgrwt>
<rscale>  2 0.45557669E+03</rscale>
<asrwt>0</asrwt>
<pdfrwt beam="1">  1       21 0.60269135E-01 0.45557669E+03</pdfrwt>
<pdfrwt beam="2">  1       21 0.18618737E-01 0.45557669E+03</pdfrwt>
<totfact> 0.62486030E+04</totfact>
</mgrwt>
</event>
<event>
 7    0  0.4748297E-002  0.4607194E+03  0.7546771E-02  0.1024573E+00
         21   -1    0    0  502  501  0.00000000000E+00  0.00000000000E+00  0.12762099934E+03  0.12762099934E+03  0.00000000000E+00 0. -1.
         21   -1    0    0  501  502 -0.00000000000E+00 -0.00000000000E+00 -0.41580611107E+03  0.41580611107E+03  0.00000000000E+00 0. -1.
      99926    2    1    2    0    0  0.00000000000E+00  0.00000000000E+00 -0.28818511173E+03  0.54342711040E+03  0.46071940017E+03 0.  0.
      99925    2    3    3    0    0 -0.10812638029E+03  0.32599263821E+02 -0.22292849321E+03  0.36270644065E+03  0.26287796196E+03 0.  0.
         25    1    3    3    0    0  0.10812638029E+03 -0.32599263821E+02 -0.65256618520E+02  0.18072066976E+03  0.12509000000E+03 0.  0.
         25    1    4    4    0    0 -0.16557354041E+02 -0.39158105783E+01 -0.11030319527E+03  0.16764182811E+03  0.12509000000E+03 0.  0.
         25    1    4    4    0    0 -0.91569026252E+02  0.36515074400E+02 -0.11262529794E+03  0.19506461254E+03  0.12509000000E+03 0.  0.
<mgrwt>
<rscale>  2 0.46071940E+03</rscale>
<asrwt>0</asrwt>
<pdfrwt beam="1">  1       21 0.18767794E-01 0.46071940E+03</pdfrwt>
<pdfrwt beam="2">  1       21 0.61147958E-01 0.46071940E+03</pdfrwt>
<totfact> 0.59560973E+04</totfact>
</mgrwt>
</event>
<event>
 7    0  0.4748297E-002  0.4502938E+03  0.7546771E-02  0.1027634E+00
         21   -1    0    0  502  501  0.00000000000E+00  0.00000000000E+00  0.15573705937E+03  0.15573705937E+03  0.00000000000E+00 0.  1.
         21   -1    0    0  501  502 -0.00000000000E+00 -0.00000000000E+00 -0.32549172119E+03  0.32549172119E+03  0.00000000000E+00 0.  1.
      99926    2    1    2    0    0  0.35527136788E-14  0.00000000000E+00 -0.16975466182E+03  0.48122878056E+03  0.45029378636E+03 0.  0.
      99925    2    3    3    0    0 -0.28816426309E+02  0.43952610155E+02 -0.56408018806E+01  0.26828962144E+03  0.26303095628E+03 0.  0.
         25    1    3    3    0    0  0.28816426309E+02 -0.43952610155E+02 -0.16411385994E+03  0.21293915912E+03  0.12509000000E+03 0.  0.
         25    1    4    4    0    0  0.39349203896E+01 -0.14964791315E+02  0.82473462076E+00  0.12604609024E+03  0.12509000000E+03 0.  0.
         25    1    4    4    0    0 -0.32751346698E+02  0.58917401470E+02 -0.64655365014E+01  0.14224353120E+03  0.12509000000E+03 0.  0.
<mgrwt>
<rscale>  2 0.45029379E+03</rscale>
<asrwt>0</asrwt>
<pdfrwt beam="1">  1       21 0.22902509E-01 0.45029379E+03</pdfrwt>
<pdfrwt beam="2">  1       21 0.47866429E-01 0.45029379E+03</pdfrwt>
<totfact> 0.69158563E+04</totfact>
</mgrwt>
</event>
<event>
 7    0  0.4748297E-002  0.4627417E+03  0.7546771E-02  0.1023989E+00
         21   -1    0    0  502  501  0.00000000000E+00  0.00000000000E+00  0.18637021622E+03  0.18637021622E+03  0.00000000000E+00 0.  1.
         21   -1    0    0  501  502 -0.00000000000E+00 -0.00000000000E+00 -0.28723724779E+03  0.28723724779E+03  0.00000000000E+00 0.  1.
      99926    2    1    2    0    0  0.26645352591E-14  0.00000000000E+00 -0.10086703157E+03  0.47360746401E+03  0.46274169026E+03 0.  0.
      99925    2    3    3    0    0 -0.76397854363E+01  0.11952945099E+03 -0.54972670674E+02  0.29444425228E+03  0.26330546368E+03 0.  0.
         25    1    3    3    0    0  0.76397854363E+01 -0.11952945099E+03 -0.45894360891E+02  0.17916321173E+03  0.12509000000E+03 0.  0.
         25    1    4    4    0    0  0.16367675425E+02  0.76313396117E+02 -0.61562640106E+02  0.15977829009E+03  0.12509000000E+03 0.  0.
         25    1    4    4    0    0 -0.24007460861E+02  0.43216054873E+02  0.65899694322E+01  0.13466596219E+03  0.12509000000E+03 0.  0.
<mgrwt>
<rscale>  2 0.46274169E+03</rscale>
<asrwt>0</asrwt>
<pdfrwt beam="1">  1       21 0.27407385E-01 0.46274169E+03</pdfrwt>
<pdfrwt beam="2">  1       21 0.42240771E-01 0.46274169E+03</pdfrwt>
<totfact> 0.63196655E+04</totfact>
</mgrwt>
</event>
<event>
 7    0  0.4748297E-002  0.4740033E+03  0.7546771E-02  0.1020796E+00
         21   -1    0    0  502  501  0.00000000000E+00  0.00000000000E+00  0.40149413171E+03  0.40149413171E+03  0.00000000000E+00 0.  1.
         21   -1    0    0  501  502 -0.00000000000E+00 -0.00000000000E+00 -0.13990185289E+03  0.13990185289E+03  0.00000000000E+00 0.  1.
      99926    2    1    2    0    0 -0.71054273576E-14  0.00000000000E+00  0.26159227882E+03  0.54139598459E+03  0.47400326137E+03 0.  0.
      99925    2    3    3    0    0 -0.43847585888E+02 -0.11868789675E+03  0.12634039115E+03  0.31790099842E+03  0.26284923956E+03 0.  0.
         25    1    4    4    0    0 -0.30214884564E+02 -0.65486492958E+02  0.22131746903E+02  0.14607786393E+03  0.12509000000E+03 0.  0.
         25    1    3    3    0    0  0.43847585888E+02  0.11868789675E+03  0.13525188768E+03  0.22349498617E+03  0.12509000000E+03 0.  0.
         25    1    4    4    0    0 -0.13632701324E+02 -0.53201403797E+02  0.10420864424E+03  0.17182313449E+03  0.12509000000E+03 0.  0.
<mgrwt>
<rscale>  2 0.47400326E+03</rscale>
<asrwt>0</asrwt>
<pdfrwt beam="1">  1       21 0.59043255E-01 0.47400326E+03</pdfrwt>
<pdfrwt beam="2">  1       21 0.20573802E-01 0.47400326E+03</pdfrwt>
<totfact> 0.53860336E+04</totfact>
</mgrwt>
</event>
<event>
 7    0  0.4748297E-002  0.4538839E+03  0.7546771E-02  0.1026570E+00
         21   -1    0    0  502  501  0.00000000000E+00  0.00000000000E+00  0.15348097965E+03  0.15348097965E+03  0.00000000000E+00 0. -1.
         21   -1    0    0  501  502 -0.00000000000E+00 -0.00000000000E+00 -0.33556375003E+03  0.33556375003E+03  0.00000000000E+00 0. -1.
      99926    2    1    2    0    0 -0.35527136788E-14  0.00000000000E+00 -0.18208277037E+03  0.48904472968E+03  0.45388391948E+03 0.  0.
      99925    2    3    3    0    0 -0.22424412748E+02  0.44586686887E+02 -0.54028390019E+01  0.26688682821E+03  0.26212317996E+03 0.  0.
         25    1    4    4    0    0  0.37123133988E+00  0.59603601524E+02 -0.83838880279E+01  0.13881831582E+03  0.12509000000E+03 0.  0.
         25    1    4    4    0    0 -0.22795644088E+02 -0.15016914637E+02  0.29810490260E+01  0.12806851240E+03  0.12509000000E+03 0.  0.
         25    1    3    3    0    0  0.22424412748E+02 -0.44586686887E+02 -0.17667993137E+03  0.22215790147E+03  0.12509000000E+03 0.  0.
<mgrwt>
<rscale>  2 0.45388392E+03</rscale>
<asrwt>0</asrwt>
<pdfrwt beam="1">  1       21 0.22570733E-01 0.45388392E+03</pdfrwt>
<pdfrwt beam="2">  1       21 0.49347609E-01 0.45388392E+03</pdfrwt>
<totfact> 0.66635822E+04</totfact>
</mgrwt>
</event>
<event>
 7    0  0.4748297E-002  0.4544604E+03  0.7546771E-02  0.1026400E+00
         21   -1    0    0  502  501  0.00000000000E+00  0.00000000000E+00  0.48760150626E+03  0.48760150626E+03  0.00000000000E+00 0. -1.
         21   -1    0    0  501  502 -0.00000000000E+00 -0.00000000000E+00 -0.10589293135E+03  0.10589293135E+03  0.00000000000E+00 0. -1.
      99926    2    1    2    0    0  0.00000000000E+00  0.00000000000E+00  0.38170857491E+03  0.59349443761E+03  0.45446035174E+03 0.  0.
      99925    2    3    3    0    0 -0.91442714086E+02  0.37400191259E+02  0.31078132674E+03  0.41902745821E+03  0.26313196959E+03 0.  0.
         25    1    3    3    0    0  0.91442714086E+02 -0.37400191259E+02  0.70927248179E+02  0.17446697940E+03  0.12509000000E+03 0.  0.
         25    1    4    4    0    0 -0.40618884535E+02 -0.15483417917E+02  0.18206461852E+03  0.22513254636E+03  0.12509000000E+03 0.  0.
         25    1    4    4    0    0 -0.50823829551E+02  0.52883609176E+02  0.12871670821E+03  0.19389491185E+03  0.12509000000E+03 0.  0.
<mgrwt>
<rscale>  2 0.45446035E+03</rscale>
<asrwt>0</asrwt>
<pdfrwt beam="1">  1       21 0.71706103E-01 0.45446035E+03</pdfrwt>
<pdfrwt beam="2">  1       21 0.15572490E-01 0.45446035E+03</pdfrwt>
<totfact> 0.59333130E+04</totfact>
</mgrwt>
</event>
<event>
 7    0  0.4748297E-002  0.4538295E+03  0.7546771E-02  0.1026586E+00
         21   -1    0    0  502  501  0.00000000000E+00  0.00000000000E+00  0.10472939966E+04  0.10472939966E+04  0.00000000000E+00 0.  1.
         21   -1    0    0  501  502 -0.00000000000E+00 -0.00000000000E+00 -0.49165085959E+02  0.49165085959E+02  0.00000000000E+00 0.  1.
      99926    2    1    2    0    0  0.14210854715E-13 -0.71054273576E-14  0.99812891067E+03  0.10964590826E+04  0.45382948062E+03 0.  0.
      99925    2    3    3    0    0  0.69193171873E+02 -0.34997572215E+02  0.43372372866E+03  0.51318106768E+03  0.26310836233E+03 0.  0.
         25    1    4    4    0    0  0.40334727682E+02  0.78131014437E+00  0.28272897543E+03  0.31178627672E+03  0.12509000000E+03 0.  0.
         25    1    3    3    0    0 -0.69193171873E+02  0.34997572215E+02  0.56440518200E+03  0.58327801490E+03  0.12509000000E+03 0.  0.
         25    1    4    4    0    0  0.28858444191E+02 -0.35778882359E+02  0.15099475324E+03  0.20139479097E+03  0.12509000000E+03 0.  0.
<mgrwt>
<rscale>  2 0.45382948E+03</rscale>
<asrwt>0</asrwt>
<pdfrwt beam="1">  1       21 0.15401381E+00 0.45382948E+03</pdfrwt>
<pdfrwt beam="2">  1       21 0.72301604E-02 0.45382948E+03</pdfrwt>
<totfact> 0.35944393E+04</totfact>
</mgrwt>
</event>
<event>
 7    0  0.4748297E-002  0.4442171E+03  0.7546771E-02  0.1029461E+00
         21   -1    0    0  502  501  0.00000000000E+00  0.00000000000E+00  0.13153394988E+03  0.13153394988E+03  0.00000000000E+00 0.  1.
         21   -1    0    0  501  502 -0.00000000000E+00 -0.00000000000E+00 -0.37505304404E+03  0.37505304404E+03  0.00000000000E+00 0.  1.
      99926    2    1    2    0    0  0.00000000000E+00  0.00000000000E+00 -0.24351909416E+03  0.50658699392E+03  0.44421710142E+03 0.  0.
      99925    2    3    3    0    0 -0.82540588282E+02 -0.21109500129E+02 -0.89186421783E+02  0.29042815979E+03  0.26293675753E+03 0.  0.
         25    1    3    3    0    0  0.82540588282E+02  0.21109500129E+02 -0.15433267238E+03  0.21615883413E+03  0.12509000000E+03 0.  0.
         25    1    4    4    0    0 -0.72058355268E+02  0.69311337555E+01 -0.69283346369E+02  0.16027519260E+03  0.12509000000E+03 0.  0.
         25    1    4    4    0    0 -0.10482233013E+02 -0.28040633884E+02 -0.19903075414E+02  0.13015296719E+03  0.12509000000E+03 0.  0.
<mgrwt>
<rscale>  2 0.44421710E+03</rscale>
<asrwt>0</asrwt>
<pdfrwt beam="1">  1       21 0.19343228E-01 0.44421710E+03</pdfrwt>
<pdfrwt beam="2">  1       21 0.55154859E-01 0.44421710E+03</pdfrwt>
<totfact> 0.70666313E+04</totfact>
</mgrwt>
</event>
<event>
 7    0  0.4748297E-002  0.4518454E+03  0.7546771E-02  0.1027173E+00
         21   -1    0    0  502  501  0.00000000000E+00  0.00000000000E+00  0.33142343292E+02  0.33142343292E+02  0.00000000000E+00 0.  1.
         21   -1    0    0  501  502 -0.00000000000E+00 -0.00000000000E+00 -0.15400557378E+04  0.15400557378E+04  0.00000000000E+00 0.  1.
      99926    2    1    2    0    0  0.00000000000E+00  0.00000000000E+00 -0.15069133945E+04  0.15731980811E+04  0.45184535386E+03 0.  0.
      99925    2    3    3    0    0 -0.54348772125E+02  0.31991032080E+02 -0.63554115745E+03  0.69063686578E+03  0.26284882041E+03 0.  0.
         25    1    4    4    0    0 -0.52232331097E+02  0.12247519197E+01 -0.39730172945E+03  0.41979267353E+03  0.12509000000E+03 0.  0.
         25    1    4    4    0    0 -0.21164410281E+01  0.30766280160E+02 -0.23823942800E+03  0.27084419225E+03  0.12509000000E+03 0.  0.
         25    1    3    3    0    0  0.54348772125E+02 -0.31991032080E+02 -0.87137223706E+03  0.88256121532E+03  0.12509000000E+03 0.  0.
<mgrwt>
<rscale>  2 0.45184535E+03</rscale>
<asrwt>0</asrwt>
<pdfrwt beam="1">  1       21 0.48738741E-02 0.45184535E+03</pdfrwt>
<pdfrwt beam="2">  1       21 0.22647878E+00 0.45184535E+03</pdfrwt>
<totfact> 0.22589189E+04</totfact>
</mgrwt>
</event>
<event>
 7    0  0.4748297E-002  0.4550034E+03  0.7546771E-02  0.1026240E+00
         21   -1    0    0  502  501  0.00000000000E+00  0.00000000000E+00  0.91101041696E+03  0.91101041696E+03  0.00000000000E+00 0.  1.
         21   -1    0    0  501  502 -0.00000000000E+00 -0.00000000000E+00 -0.56812766565E+02  0.56812766565E+02  0.00000000000E+00 0.  1.
      99926    2    1    2    0    0  0.00000000000E+00  0.00000000000E+00  0.85419765040E+03  0.96782318353E+03  0.45500339408E+03 0.  0.
      99925    2    3    3    0    0  0.41815951854E+02 -0.10512070282E+03  0.49996867699E+03  0.57549091402E+03  0.26157633334E+03 0.  0.
         25    1    4    4    0    0  0.23006586194E+02 -0.88329450262E+02  0.31179697890E+03  0.34813253072E+03  0.12509000000E+03 0.  0.
         25    1    4    4    0    0  0.18809365660E+02 -0.16791252559E+02  0.18817169809E+03  0.22735838331E+03  0.12509000000E+03 0.  0.
         25    1    3    3    0    0 -0.41815951854E+02  0.10512070282E+03  0.35422897341E+03  0.39233226950E+03  0.12509000000E+03 0.  0.
<mgrwt>
<rscale>  2 0.45500339E+03</rscale>
<asrwt>0</asrwt>
<pdfrwt beam="1">  1       21 0.13397211E+00 0.45500339E+03</pdfrwt>
<pdfrwt beam="2">  1       21 0.83548192E-02 0.45500339E+03</pdfrwt>
<totfact> 0.40426350E+04</totfact>
</mgrwt>
</event>
<event>
 7    0  0.4748297E-002  0.4558610E+03  0.7546771E-02  0.1025989E+00
         21   -1    0    0  502  501  0.00000000000E+00  0.00000000000E+00  0.78494985824E+02  0.78494985824E+02  0.00000000000E+00 0.  1.
         21   -1    0    0  501  502 -0.00000000000E+00 -0.00000000000E+00 -0.66185506771E+03  0.66185506771E+03  0.00000000000E+00 0.  1.
      99926    2    1    2    0    0  0.00000000000E+00  0.14210854715E-13 -0.58336008189E+03  0.74035005354E+03  0.45586096195E+03 0.  0.
      99925    2    3    3    0    0  0.50222330412E+02 -0.71736736243E+02 -0.24616913606E+03  0.37019645860E+03  0.26225509072E+03 0.  0.
         25    1    4    4    0    0  0.21979036038E+02 -0.57808293310E+02 -0.83604037964E+02  0.16267150969E+03  0.12509000000E+03 0.  0.
         25    1    3    3    0    0 -0.50222330412E+02  0.71736736243E+02 -0.33719094583E+03  0.37015359494E+03  0.12509000000E+03 0.  0.
         25    1    4    4    0    0  0.28243294374E+02 -0.13928442933E+02 -0.16256509810E+03  0.20752494891E+03  0.12509000000E+03 0.  0.
<mgrwt>
<rscale>  2 0.45586096E+03</rscale>
<asrwt>0</asrwt>
<pdfrwt beam="1">  1       21 0.11543380E-01 0.45586096E+03</pdfrwt>
<pdfrwt beam="2">  1       21 0.97331630E-01 0.45586096E+03</pdfrwt>
<totfact> 0.50424202E+04</totfact>
</mgrwt>
</event>
<event>
 7    0  0.4748297E-002  0.4660924E+03  0.7546771E-02  0.1023029E+00
         21   -1    0    0  502  501  0.00000000000E+00  0.00000000000E+00  0.31071713877E+03  0.31071713877E+03  0.00000000000E+00 0.  1.
         21   -1    0    0  501  502 -0.00000000000E+00 -0.00000000000E+00 -0.17479091186E+03  0.17479091186E+03  0.00000000000E+00 0.  1.
      99926    2    1    2    0    0  0.00000000000E+00 -0.35527136788E-14  0.13592622691E+03  0.48550805064E+03  0.46609240293E+03 0.  0.
      99925    2    3    3    0    0 -0.85379339502E+02  0.28463503842E+02  0.17209995919E+03  0.32721765399E+03  0.26334994676E+03 0.  0.
         25    1    4    4    0    0 -0.71645951050E+02 -0.13406827996E+02  0.10294676612E+03  0.17764692537E+03  0.12509000000E+03 0.  0.
         25    1    3    3    0    0  0.85379339502E+02 -0.28463503842E+02 -0.36173732283E+02  0.15829039665E+03  0.12509000000E+03 0.  0.
         25    1    4    4    0    0 -0.13733388452E+02  0.41870331838E+02  0.69153193075E+02  0.14957072862E+03  0.12509000000E+03 0.  0.
<mgrwt>
<rscale>  2 0.46609240E+03</rscale>
<asrwt>0</asrwt>
<pdfrwt beam="1">  1       21 0.45693697E-01 0.46609240E+03</pdfrwt>
<pdfrwt beam="2">  1       21 0.25704546E-01 0.46609240E+03</pdfrwt>
<totfact> 0.60771988E+04</totfact>
</mgrwt>
</event>
<event>
 7    0  0.4748297E-002  0.4519562E+03  0.7546771E-02  0.1027140E+00
         21   -1    0    0  502  501  0.00000000000E+00  0.00000000000E+00  0.17189540340E+03  0.17189540340E+03  0.00000000000E+00 0. -1.
         21   -1    0    0  501  502 -0.00000000000E+00 -0.00000000000E+00 -0.29707663589E+03  0.29707663589E+03  0.00000000000E+00 0. -1.
      99926    2    1    2    0    0  0.17763568394E-14  0.00000000000E+00 -0.12518123249E+03  0.46897203929E+03  0.45195622871E+03 0.  0.
      99925    2    3    3    0    0  0.10700566586E+02 -0.68856602374E+02  0.94122735568E+01  0.27245574535E+03  0.26322577469E+03 0.  0.
         25    1    4    4    0    0  0.17866768607E+02 -0.71918413952E+02  0.19610096456E+02  0.14670904426E+03  0.12509000000E+03 0.  0.
         25    1    3    3    0    0 -0.10700566586E+02  0.68856602374E+02 -0.13459350604E+03  0.19651629394E+03  0.12509000000E+03 0.  0.
         25    1    4    4    0    0 -0.71662020211E+01  0.30618115783E+01 -0.10197822900E+02  0.12574670108E+03  0.12509000000E+03 0.  0.
<mgrwt>
<rscale>  2 0.45195623E+03</rscale>
<asrwt>0</asrwt>
<pdfrwt beam="1">  1       21 0.25278736E-01 0.45195623E+03</pdfrwt>
<pdfrwt beam="2">  1       21 0.43687740E-01 0.45195623E+03</pdfrwt>
<totfact> 0.69167441E+04</totfact>
</mgrwt>
</event>
<event>
 7    0  0.4748297E-002  0.4525519E+03  0.7546771E-02  0.1026964E+00
         21   -1    0    0  502  501  0.00000000000E+00  0.00000000000E+00  0.16420311353E+03  0.16420311353E+03  0.00000000000E+00 0.  1.
         21   -1    0    0  501  502 -0.00000000000E+00 -0.00000000000E+00 -0.31181378602E+03  0.31181378602E+03  0.00000000000E+00 0.  1.
      99926    2    1    2    0    0  0.00000000000E+00  0.00000000000E+00 -0.14761067249E+03  0.47601689955E+03  0.45255185120E+03 0.  0.
      99925    2    3    3    0    0  0.96340514934E+02 -0.10469371001E+02 -0.36290433513E+02  0.28254647222E+03  0.26291521609E+03 0.  0.
         25    1    3    3    0    0 -0.96340514934E+02  0.10469371001E+02 -0.11132023898E+03  0.19347042733E+03  0.12509000000E+03 0.  0.
         25    1    4    4    0    0  0.37362051239E+02 -0.64715591269E+01  0.21755421107E+02  0.13250890686E+03  0.12509000000E+03 0.  0.
         25    1    4    4    0    0  0.58978463695E+02 -0.39978118738E+01 -0.58045854621E+02  0.15003756536E+03  0.12509000000E+03 0.  0.
<mgrwt>
<rscale>  2 0.45255185E+03</rscale>
<asrwt>0</asrwt>
<pdfrwt beam="1">  1       21 0.24147516E-01 0.45255185E+03</pdfrwt>
<pdfrwt beam="2">  1       21 0.45854969E-01 0.45255185E+03</pdfrwt>
<totfact> 0.68308837E+04</totfact>
</mgrwt>
</event>
<event>
 7    0  0.4748297E-002  0.4907745E+03  0.7546771E-02  0.1016215E+00
         21   -1    0    0  502  501  0.00000000000E+00  0.00000000000E+00  0.69181180370E+02  0.69181180370E+02  0.00000000000E+00 0.  1.
         21   -1    0    0  501  502 -0.00000000000E+00 -0.00000000000E+00 -0.87039410426E+03  0.87039410426E+03  0.00000000000E+00 0.  1.
      99926    2    1    2    0    0  0.00000000000E+00  0.00000000000E+00 -0.80121292389E+03  0.93957528463E+03  0.49077445540E+03 0.  0.
      99925    2    3    3    0    0 -0.11028168188E+03  0.72630680302E+02 -0.60032822964E+03  0.66857817475E+03  0.26299339796E+03 0.  0.
         25    1    4    4    0    0 -0.86571370697E+02  0.10791889503E+02 -0.32469927630E+03  0.35873136918E+03  0.12509000000E+03 0.  0.
         25    1    3    3    0    0  0.11028168188E+03 -0.72630680302E+02 -0.20088469425E+03  0.27099710988E+03  0.12509000000E+03 0.  0.
         25    1    4    4    0    0 -0.23710311180E+02  0.61838790798E+02 -0.27562895334E+03  0.30984680557E+03  0.12509000000E+03 0.  0.
<mgrwt>
<rscale>  2 0.49077446E+03</rscale>
<asrwt>0</asrwt>
<pdfrwt beam="1">  1       21 0.10173703E-01 0.49077446E+03</pdfrwt>
<pdfrwt beam="2">  1       21 0.12799913E+00 0.49077446E+03</pdfrwt>
<totfact> 0.31711589E+04</totfact>
</mgrwt>
</event>
<event>
 7    0  0.4748297E-002  0.4520665E+03  0.7546771E-02  0.1027108E+00
         21   -1    0    0  502  501  0.00000000000E+00  0.00000000000E+00  0.49974219755E+03  0.49974219755E+03  0.00000000000E+00 0. -1.
         21   -1    0    0  501  502 -0.00000000000E+00 -0.00000000000E+00 -0.10223478809E+03  0.10223478809E+03  0.00000000000E+00 0. -1.
      99926    2    1    2    0    0 -0.14210854715E-13  0.00000000000E+00  0.39750740946E+03  0.60197698564E+03  0.45206653345E+03 0.  0.
      99925    2    3    3    0    0 -0.78143127564E+02  0.30708551124E+02  0.15531125796E+03  0.31674752118E+03  0.26297916614E+03 0.  0.
         25    1    4    4    0    0  0.12228933904E+01  0.98508339358E+01  0.84102163562E+02  0.15106030721E+03  0.12509000000E+03 0.  0.
         25    1    4    4    0    0 -0.79366020954E+02  0.20857717189E+02  0.71209094402E+02  0.16568721397E+03  0.12509000000E+03 0.  0.
         25    1    3    3    0    0  0.78143127564E+02 -0.30708551124E+02  0.24219615149E+03  0.28522946446E+03  0.12509000000E+03 0.  0.
<mgrwt>
<rscale>  2 0.45206653E+03</rscale>
<asrwt>0</asrwt>
<pdfrwt beam="1">  1       21 0.73491499E-01 0.45206653E+03</pdfrwt>
<pdfrwt beam="2">  1       21 0.15034528E-01 0.45206653E+03</pdfrwt>
<totfact> 0.59933762E+04</totfact>
</mgrwt>
</event>
<event>
 7    0  0.4748297E-002  0.4489345E+03  0.7546771E-02  0.1028040E+00
         21   -1    0    0  502  501  0.00000000000E+00  0.00000000000E+00  0.37357828408E+03  0.37357828408E+03  0.00000000000E+00 0. -1.
         21   -1    0    0  501  502 -0.00000000000E+00 -0.00000000000E+00 -0.13487278143E+03  0.13487278143E+03  0.00000000000E+00 0. -1.
      99926    2    1    2    0    0  0.00000000000E+00  0.00000000000E+00  0.23870550265E+03  0.50845106552E+03  0.44893448189E+03 0.  0.
      99925    2    3    3    0    0  0.49146189846E+02 -0.84341321494E+02  0.20179788296E+03  0.34554469063E+03  0.26296376398E+03 0.  0.
         25    1    3    3    0    0 -0.49146189846E+02  0.84341321494E+02  0.36907619691E+02  0.16290637489E+03  0.12509000000E+03 0.  0.
         25    1    4    4    0    0  0.14868543426E+02 -0.45948925104E+02  0.14870802051E+03  0.20023476413E+03  0.12509000000E+03 0.  0.
         25    1    4    4    0    0  0.34277646421E+02 -0.38392396391E+02  0.53089862452E+02  0.14530992650E+03  0.12509000000E+03 0.  0.
<mgrwt>
<rscale>  2 0.44893448E+03</rscale>
<asrwt>0</asrwt>
<pdfrwt beam="1">  1       21 0.54937983E-01 0.44893448E+03</pdfrwt>
<pdfrwt beam="2">  1       21 0.19834233E-01 0.44893448E+03</pdfrwt>
<totfact> 0.67890450E+04</totfact>
</mgrwt>
</event>
<event>
 7    0  0.4748297E-002  0.4581533E+03  0.7546771E-02  0.1025318E+00
         21   -1    0    0  502  501  0.00000000000E+00  0.00000000000E+00  0.10094688609E+03  0.10094688609E+03  0.00000000000E+00 0.  1.
         21   -1    0    0  501  502 -0.00000000000E+00 -0.00000000000E+00 -0.51983893409E+03  0.51983893409E+03  0.00000000000E+00 0.  1.
      99926    2    1    2    0    0  0.00000000000E+00  0.00000000000E+00 -0.41889204800E+03  0.62078582018E+03  0.45815334403E+03 0.  0.
      99925    2    3    3    0    0 -0.43555552492E+02 -0.94587139976E+02 -0.19338565129E+03  0.34267710715E+03  0.26303189244E+03 0.  0.
         25    1    4    4    0    0 -0.40604463210E+02 -0.43110324122E+02 -0.54393416150E+02  0.14870566331E+03  0.12509000000E+03 0.  0.
         25    1    4    4    0    0 -0.29510892814E+01 -0.51476815854E+02 -0.13899223514E+03  0.19397144385E+03  0.12509000000E+03 0.  0.
         25    1    3    3    0    0  0.43555552492E+02  0.94587139976E+02 -0.22550639671E+03  0.27810871302E+03  0.12509000000E+03 0.  0.
<mgrwt>
<rscale>  2 0.45815334E+03</rscale>
<asrwt>0</asrwt>
<pdfrwt beam="1">  1       21 0.14845130E-01 0.45815334E+03</pdfrwt>
<pdfrwt beam="2">  1       21 0.76446904E-01 0.45815334E+03</pdfrwt>
<totfact> 0.56009018E+04</totfact>
</mgrwt>
</event>
<event>
 7    0  0.4748297E-002  0.4541245E+03  0.7546771E-02  0.1026499E+00
         21   -1    0    0  502  501  0.00000000000E+00  0.00000000000E+00  0.45960034777E+03  0.45960034777E+03  0.00000000000E+00 0.  1.
         21   -1    0    0  501  502 -0.00000000000E+00 -0.00000000000E+00 -0.11217847612E+03  0.11217847612E+03  0.00000000000E+00 0.  1.
      99926    2    1    2    0    0  0.00000000000E+00  0.00000000000E+00  0.34742187165E+03  0.57177882390E+03  0.45412450557E+03 0.  0.
      99925    2    3    3    0    0 -0.75060999907E+02  0.18145139960E+02  0.32153864811E+03  0.42251111415E+03  0.26299266063E+03 0.  0.
         25    1    4    4    0    0 -0.18064475298E+02  0.25513693325E+02  0.10674240783E+03  0.16738794324E+03  0.12509000000E+03 0.  0.
         25    1    4    4    0    0 -0.56996524608E+02 -0.73685533647E+01  0.21479624028E+03  0.25512317091E+03  0.12509000000E+03 0.  0.
         25    1    3    3    0    0  0.75060999907E+02 -0.18145139960E+02  0.25883223543E+02  0.14926770974E+03  0.12509000000E+03 0.  0.
<mgrwt>
<rscale>  2 0.45412451E+03</rscale>
<asrwt>0</asrwt>
<pdfrwt beam="1">  1       21 0.67588286E-01 0.45412451E+03</pdfrwt>
<pdfrwt beam="2">  1       21 0.16496835E-01 0.45412451E+03</pdfrwt>
<totfact> 0.60870181E+04</totfact>
</mgrwt>
</event>
<event>
 7    0  0.4748297E-002  0.4775762E+03  0.7546771E-02  0.1019803E+00
         21   -1    0    0  502  501  0.00000000000E+00  0.00000000000E+00  0.49488480334E+02  0.49488480334E+02  0.00000000000E+00 0.  1.
         21   -1    0    0  501  502 -0.00000000000E+00 -0.00000000000E+00 -0.11521824587E+04  0.11521824587E+04  0.00000000000E+00 0.  1.
      99926    2    1    2    0    0  0.00000000000E+00  0.00000000000E+00 -0.11026939783E+04  0.12016709390E+04  0.47757620940E+03 0.  0.
      99925    2    3    3    0    0 -0.51350321265E+02  0.50297169857E+02 -0.40009381878E+03  0.48441146497E+03  0.26346298179E+03 0.  0.
         25    1    3    3    0    0  0.51350321265E+02 -0.50297169857E+02 -0.70260015954E+03  0.71725947402E+03  0.12509000000E+03 0.  0.
         25    1    4    4    0    0 -0.22593941562E+01  0.51908510216E+02 -0.16354340114E+03  0.21235242040E+03  0.12509000000E+03 0.  0.
         25    1    4    4    0    0 -0.49090927108E+02 -0.16113403585E+01 -0.23655041765E+03  0.27205904457E+03  0.12509000000E+03 0.  0.
<mgrwt>
<rscale>  2 0.47757621E+03</rscale>
<asrwt>0</asrwt>
<pdfrwt beam="1">  1       21 0.72777174E-02 0.47757621E+03</pdfrwt>
<pdfrwt beam="2">  1       21 0.16943860E+00 0.47757621E+03</pdfrwt>
<totfact> 0.27027540E+04</totfact>
</mgrwt>
</event>
<event>
 7    0  0.4748297E-002  0.4537616E+03  0.7546771E-02  0.1026606E+00
         21   -1    0    0  502  501  0.00000000000E+00  0.00000000000E+00  0.70412309143E+02  0.70412309143E+02  0.00000000000E+00 0. -1.
         21   -1    0    0  501  502 -0.00000000000E+00 -0.00000000000E+00 -0.73104954554E+03  0.73104954554E+03  0.00000000000E+00 0. -1.
      99926    2    1    2    0    0 -0.17763568394E-14  0.71054273576E-14 -0.66063723639E+03  0.80146185468E+03  0.45376155236E+03 0.  0.
      99925    2    3    3    0    0  0.13129170778E+02  0.44983141707E+02 -0.23633184692E+03  0.35662657078E+03  0.26293328233E+03 0.  0.
         25    1    4    4    0    0 -0.14240734558E+02  0.13499367759E+02 -0.71060113013E+02  0.14519669146E+03  0.12509000000E+03 0.  0.
         25    1    3    3    0    0 -0.13129170778E+02 -0.44983141707E+02 -0.42430538947E+03  0.44483528390E+03  0.12509000000E+03 0.  0.
         25    1    4    4    0    0  0.27369905337E+02  0.31483773947E+02 -0.16527173390E+03  0.21142987932E+03  0.12509000000E+03 0.  0.
<mgrwt>
<rscale>  2 0.45376155E+03</rscale>
<asrwt>0</asrwt>
<pdfrwt beam="1">  1       21 0.10354751E-01 0.45376155E+03</pdfrwt>
<pdfrwt beam="2">  1       21 0.10750729E+00 0.45376155E+03</pdfrwt>
<totfact> 0.48160546E+04</totfact>
</mgrwt>
</event>
<event>
 7    0  0.4748297E-002  0.4563260E+03  0.7546771E-02  0.1025852E+00
         21   -1    0    0  502  501  0.00000000000E+00  0.00000000000E+00  0.15244774633E+03  0.15244774633E+03  0.00000000000E+00 0. -1.
         21   -1    0    0  501  502 -0.00000000000E+00 -0.00000000000E+00 -0.34148322443E+03  0.34148322443E+03  0.00000000000E+00 0. -1.
      99926    2    1    2    0    0  0.00000000000E+00  0.00000000000E+00 -0.18903547811E+03  0.49393097076E+03  0.45632597110E+03 0.  0.
      99925    2    3    3    0    0  0.17575453336E+02  0.46772814816E+02 -0.75710344395E+01  0.26793662309E+03  0.26312757488E+03 0.  0.
         25    1    3    3    0    0 -0.17575453336E+02 -0.46772814816E+02 -0.18146444367E+03  0.22599434767E+03  0.12509000000E+03 0.  0.
         25    1    4    4    0    0 -0.41413611484E+00  0.36805323172E+02  0.33594243536E+02  0.13465097334E+03  0.12509000000E+03 0.  0.
         25    1    4    4    0    0  0.17989589450E+02  0.99674916432E+01 -0.41165277975E+02  0.13328564975E+03  0.12509000000E+03 0.  0.
<mgrwt>
<rscale>  2 0.45632597E+03</rscale>
<asrwt>0</asrwt>
<pdfrwt beam="1">  1       21 0.22418786E-01 0.45632597E+03</pdfrwt>
<pdfrwt beam="2">  1       21 0.50218121E-01 0.45632597E+03</pdfrwt>
<totfact> 0.65012118E+04</totfact>
</mgrwt>
</event>
<event>
 7    0  0.4748297E-002  0.4251799E+03  0.7546771E-02  0.1035394E+00
         21   -1    0    0  502  501  0.00000000000E+00  0.00000000000E+00  0.11413127458E+04  0.11413127458E+04  0.00000000000E+00 0.  1.
         21   -1    0    0  501  502 -0.00000000000E+00 -0.00000000000E+00 -0.39598683655E+02  0.39598683655E+02  0.00000000000E+00 0.  1.
      99926    2    1    2    0    0  0.00000000000E+00  0.00000000000E+00  0.11017140621E+04  0.11809114294E+04  0.42517987897E+03 0.  0.
      99925    2    3    3    0    0  0.52238911928E+02 -0.62164363168E+02  0.67716488646E+03  0.73093051581E+03  0.26289508082E+03 0.  0.
         25    1    4    4    0    0  0.57009203153E+02 -0.14868405731E+02  0.39835987827E+03  0.42167430494E+03  0.12509000000E+03 0.  0.
         25    1    3    3    0    0 -0.52238911928E+02  0.62164363168E+02  0.42454917563E+03  0.44998091359E+03  0.12509000000E+03 0.  0.
         25    1    4    4    0    0 -0.47702912251E+01 -0.47295957437E+02  0.27880500819E+03  0.30925621087E+03  0.12509000000E+03 0.  0.
<mgrwt>
<rscale>  2 0.42517988E+03</rscale>
<asrwt>0</asrwt>
<pdfrwt beam="1">  1       21 0.16784009E+00 0.42517988E+03</pdfrwt>
<pdfrwt beam="2">  1       21 0.58233366E-02 0.42517988E+03</pdfrwt>
<totfact> 0.41628470E+04</totfact>
</mgrwt>
</event>
<event>
 7    0  0.4748297E-002  0.4537614E+03  0.7546771E-02  0.1026606E+00
         21   -1    0    0  502  501  0.00000000000E+00  0.00000000000E+00  0.47061927298E+03  0.47061927298E+03  0.00000000000E+00 0. -1.
         21   -1    0    0  501  502 -0.00000000000E+00 -0.00000000000E+00 -0.10937685832E+03  0.10937685832E+03  0.00000000000E+00 0. -1.
      99926    2    1    2    0    0  0.00000000000E+00  0.00000000000E+00  0.36124241466E+03  0.57999613130E+03  0.45376142429E+03 0.  0.
      99925    2    3    3    0    0 -0.78781378357E+02 -0.54877569302E+02  0.30139906906E+03  0.41133437718E+03  0.26293823958E+03 0.  0.
         25    1    4    4    0    0 -0.22970581156E+02 -0.48412061538E+02  0.19490079686E+03  0.23770823297E+03  0.12509000000E+03 0.  0.
         25    1    3    3    0    0  0.78781378357E+02  0.54877569302E+02  0.59843345590E+02  0.16866175411E+03  0.12509000000E+03 0.  0.
         25    1    4    4    0    0 -0.55810797201E+02 -0.64655077637E+01  0.10649827220E+03  0.17362614422E+03  0.12509000000E+03 0.  0.
<mgrwt>
<rscale>  2 0.45376142E+03</rscale>
<asrwt>0</asrwt>
<pdfrwt beam="1">  1       21 0.69208716E-01 0.45376142E+03</pdfrwt>
<pdfrwt beam="2">  1       21 0.16084832E-01 0.45376142E+03</pdfrwt>
<totfact> 0.60517164E+04</totfact>
</mgrwt>
</event>
<event>
 7    0  0.4748297E-002  0.4350126E+03  0.7546771E-02  0.1032288E+00
         21   -1    0    0  502  501  0.00000000000E+00  0.00000000000E+00  0.44301187076E+03  0.44301187076E+03  0.00000000000E+00 0.  1.
         21   -1    0    0  501  502 -0.00000000000E+00 -0.00000000000E+00 -0.10678943100E+03  0.10678943100E+03  0.00000000000E+00 0.  1.
      99926    2    1    2    0    0 -0.88817841970E-15  0.00000000000E+00  0.33622243975E+03  0.54980130176E+03  0.43501257731E+03 0.  0.
      99925    2    3    3    0    0  0.78240329462E+01 -0.92788542055E+02  0.21100009052E+03  0.34980361708E+03  0.26300304807E+03 0.  0.
         25    1    4    4    0    0  0.25760185240E+02 -0.33023570286E+02  0.62878934641E+02  0.14613490979E+03  0.12509000000E+03 0.  0.
         25    1    4    4    0    0 -0.17936152294E+02 -0.59764971769E+02  0.14812115587E+03  0.20366870729E+03  0.12509000000E+03 0.  0.
         25    1    3    3    0    0 -0.78240329462E+01  0.92788542055E+02  0.12522234924E+03  0.19999768468E+03  0.12509000000E+03 0.  0.
<mgrwt>
<rscale>  2 0.43501258E+03</rscale>
<asrwt>0</asrwt>
<pdfrwt beam="1">  1       21 0.65148804E-01 0.43501258E+03</pdfrwt>
<pdfrwt beam="2">  1       21 0.15704328E-01 0.43501258E+03</pdfrwt>
<totfact> 0.72714057E+04</totfact>
</mgrwt>
</event>
<event>
 7    0  0.4748297E-002  0.4509471E+03  0.7546771E-02  0.1027440E+00
         21   -1    0    0  502  501  0.00000000000E+00  0.00000000000E+00  0.35735869833E+03  0.35735869833E+03  0.00000000000E+00 0.  1.
         21   -1    0    0  501  502 -0.00000000000E+00 -0.00000000000E+00 -0.14226134152E+03  0.14226134152E+03  0.00000000000E+00 0.  1.
      99926    2    1    2    0    0  0.14210854715E-13 -0.35527136788E-14  0.21509735680E+03  0.49962003985E+03  0.45094712696E+03 0.  0.
      99925    2    3    3    0    0 -0.10608551694E+03  0.26076969020E+02  0.13349707077E+03  0.31457880121E+03  0.26306692883E+03 0.  0.
         25    1    4    4    0    0 -0.78730538590E+02  0.46980180941E+02  0.71022018117E+02  0.17057921991E+03  0.12509000000E+03 0.  0.
         25    1    4    4    0    0 -0.27354978351E+02 -0.20903211921E+02  0.62475052654E+02  0.14399958130E+03  0.12509000000E+03 0.  0.
         25    1    3    3    0    0  0.10608551694E+03 -0.26076969020E+02  0.81600286030E+02  0.18504123864E+03  0.12509000000E+03 0.  0.
<mgrwt>
<rscale>  2 0.45094713E+03</rscale>
<asrwt>0</asrwt>
<pdfrwt beam="1">  1       21 0.52552750E-01 0.45094713E+03</pdfrwt>
<pdfrwt beam="2">  1       21 0.20920786E-01 0.45094713E+03</pdfrwt>
<totfact> 0.67441021E+04</totfact>
</mgrwt>
</event>
<event>
 7    0  0.4748297E-002  0.4421963E+03  0.7546771E-02  0.1030075E+00
         21   -1    0    0  502  501  0.00000000000E+00  0.00000000000E+00  0.17018732797E+03  0.17018732797E+03  0.00000000000E+00 0. -1.
         21   -1    0    0  501  502 -0.00000000000E+00 -0.00000000000E+00 -0.28723878266E+03  0.28723878266E+03  0.00000000000E+00 0. -1.
      99926    2    1    2    0    0  0.35527136788E-14  0.00000000000E+00 -0.11705145469E+03  0.45742611064E+03  0.44219634061E+03 0.  0.
      99925    2    3    3    0    0  0.30472494719E+02 -0.57926826953E+02 -0.15356118018E+03  0.31160238702E+03  0.26311769481E+03 0.  0.
         25    1    4    4    0    0 -0.17139481239E+02 -0.44995304628E+02 -0.98314886965E+02  0.16622774845E+03  0.12509000000E+03 0.  0.
         25    1    4    4    0    0  0.47611975958E+02 -0.12931522325E+02 -0.55246293215E+02  0.14537463857E+03  0.12509000000E+03 0.  0.
         25    1    3    3    0    0 -0.30472494719E+02  0.57926826953E+02  0.36509725488E+02  0.14582372362E+03  0.12509000000E+03 0.  0.
<mgrwt>
<rscale>  2 0.44219634E+03</rscale>
<asrwt>0</asrwt>
<pdfrwt beam="1">  1       21 0.25027548E-01 0.44219634E+03</pdfrwt>
<pdfrwt beam="2">  1       21 0.42240997E-01 0.44219634E+03</pdfrwt>
<totfact> 0.75792648E+04</totfact>
</mgrwt>
</event>
<event>
 7    0  0.4748297E-002  0.4604145E+03  0.7546771E-02  0.1024661E+00
         21   -1    0    0  502  501  0.00000000000E+00  0.00000000000E+00  0.12608058558E+03  0.12608058558E+03  0.00000000000E+00 0. -1.
         21   -1    0    0  501  502 -0.00000000000E+00 -0.00000000000E+00 -0.42032948313E+03  0.42032948313E+03  0.00000000000E+00 0. -1.
      99926    2    1    2    0    0  0.00000000000E+00  0.00000000000E+00 -0.29424889755E+03  0.54641006872E+03  0.46041454091E+03 0.  0.
      99925    2    3    3    0    0  0.61214674619E+02 -0.84417088461E+02 -0.11823789267E+03  0.30661669276E+03  0.26298310935E+03 0.  0.
         25    1    4    4    0    0  0.51923363036E+02 -0.73663673151E+01 -0.53707580179E+02  0.14588458200E+03  0.12509000000E+03 0.  0.
         25    1    4    4    0    0  0.92913115826E+01 -0.77050721146E+02 -0.64530312489E+02  0.16073211076E+03  0.12509000000E+03 0.  0.
         25    1    3    3    0    0 -0.61214674619E+02  0.84417088461E+02 -0.17601100488E+03  0.23979337595E+03  0.12509000000E+03 0.  0.
<mgrwt>
<rscale>  2 0.46041454E+03</rscale>
<asrwt>0</asrwt>
<pdfrwt beam="1">  1       21 0.18541262E-01 0.46041454E+03</pdfrwt>
<pdfrwt beam="2">  1       21 0.61813160E-01 0.46041454E+03</pdfrwt>
<totfact> 0.59513301E+04</totfact>
</mgrwt>
</event>
<event>
 7    0  0.4748297E-002  0.4516334E+03  0.7546771E-02  0.1027236E+00
         21   -1    0    0  502  501  0.00000000000E+00  0.00000000000E+00  0.13004364843E+03  0.13004364843E+03  0.00000000000E+00 0.  1.
         21   -1    0    0  501  502 -0.00000000000E+00 -0.00000000000E+00 -0.39212356701E+03  0.39212356701E+03  0.00000000000E+00 0.  1.
      99926    2    1    2    0    0  0.00000000000E+00  0.00000000000E+00 -0.26207991858E+03  0.52216721544E+03  0.45163338800E+03 0.  0.
      99925    2    3    3    0    0  0.35091761918E+02 -0.44418092003E+02 -0.56387916249E+02  0.27485949907E+03  0.26299001593E+03 0.  0.
         25    1    4    4    0    0  0.28692151863E+02 -0.58877393143E+02 -0.45296768203E+02  0.14828719537E+03  0.12509000000E+03 0.  0.
         25    1    3    3    0    0 -0.35091761918E+02  0.44418092003E+02 -0.20569200233E+03  0.24730771637E+03  0.12509000000E+03 0.  0.
         25    1    4    4    0    0  0.63996100544E+01  0.14459301140E+02 -0.11091148046E+02  0.12657230370E+03  0.12509000000E+03 0.  0.
<mgrwt>
<rscale>  2 0.45163339E+03</rscale>
<asrwt>0</asrwt>
<pdfrwt beam="1">  1       21 0.19124066E-01 0.45163339E+03</pdfrwt>
<pdfrwt beam="2">  1       21 0.57665232E-01 0.45163339E+03</pdfrwt>
<totfact> 0.65469779E+04</totfact>
</mgrwt>
</event>
<event>
 7    0  0.4748297E-002  0.4493409E+03  0.7546771E-02  0.1027919E+00
         21   -1    0    0  502  501  0.00000000000E+00  0.00000000000E+00  0.15883587023E+03  0.15883587023E+03  0.00000000000E+00 0. -1.
         21   -1    0    0  501  502 -0.00000000000E+00 -0.00000000000E+00 -0.31779233582E+03  0.31779233582E+03  0.00000000000E+00 0. -1.
      99926    2    1    2    0    0  0.71054273576E-14  0.00000000000E+00 -0.15895646560E+03  0.47662820605E+03  0.44934094944E+03 0.  0.
      99925    2    3    3    0    0 -0.37975487503E+02  0.77875009890E+02 -0.16847069855E+03  0.32416613357E+03  0.26304876176E+03 0.  0.
         25    1    3    3    0    0  0.37975487503E+02 -0.77875009890E+02  0.95142329559E+01  0.15246207248E+03  0.12509000000E+03 0.  0.
         25    1    4    4    0    0 -0.56751202323E+02  0.55241186723E+02 -0.98820766318E+02  0.17800376297E+03  0.12509000000E+03 0.  0.
         25    1    4    4    0    0  0.18775714820E+02  0.22633823167E+02 -0.69649932235E+02  0.14616237060E+03  0.12509000000E+03 0.  0.
<mgrwt>
<rscale>  2 0.44934095E+03</rscale>
<asrwt>0</asrwt>
<pdfrwt beam="1">  1       21 0.23358216E-01 0.44934095E+03</pdfrwt>
<pdfrwt beam="2">  1       21 0.46734167E-01 0.44934095E+03</pdfrwt>
<totfact> 0.70039954E+04</totfact>
</mgrwt>
</event>
<event>
 7    0  0.4748297E-002  0.4487810E+03  0.7546771E-02  0.1028086E+00
         21   -1    0    0  502  501  0.00000000000E+00  0.00000000000E+00  0.14840500596E+04  0.14840500596E+04  0.00000000000E+00 0.  1.
         21   -1    0    0  501  502 -0.00000000000E+00 -0.00000000000E+00 -0.33928167930E+02  0.33928167930E+02  0.00000000000E+00 0.  1.
      99926    2    1    2    0    0  0.00000000000E+00  0.17763568394E-14  0.14501218916E+04  0.15179782275E+04  0.44878101402E+03 0.  0.
      99925    2    3    3    0    0  0.95766022361E+02  0.96557793838E+01  0.76669817763E+03  0.81656547734E+03  0.26398620814E+03 0.  0.
         25    1    4    4    0    0  0.45678042069E+02  0.44962983384E+02  0.42174951790E+03  0.44455406572E+03  0.12509000000E+03 0.  0.
         25    1    4    4    0    0  0.50087980292E+02 -0.35307204000E+02  0.34494865973E+03  0.37201141162E+03  0.12509000000E+03 0.  0.
         25    1    3    3    0    0 -0.95766022361E+02 -0.96557793838E+01  0.68342371402E+03  0.70141275017E+03  0.12509000000E+03 0.  0.
<mgrwt>
<rscale>  2 0.44878101E+03</rscale>
<asrwt>0</asrwt>
<pdfrwt beam="1">  1       21 0.21824261E+00 0.44878101E+03</pdfrwt>
<pdfrwt beam="2">  1       21 0.49894375E-02 0.44878101E+03</pdfrwt>
<totfact> 0.24504364E+04</totfact>
</mgrwt>
</event>
<event>
 7    0  0.4748297E-002  0.4767107E+03  0.7546771E-02  0.1020043E+00
         21   -1    0    0  502  501  0.00000000000E+00  0.00000000000E+00  0.18882203412E+03  0.18882203412E+03  0.00000000000E+00 0. -1.
         21   -1    0    0  501  502 -0.00000000000E+00 -0.00000000000E+00 -0.30088266258E+03  0.30088266258E+03  0.00000000000E+00 0. -1.
      99926    2    1    2    0    0  0.00000000000E+00  0.00000000000E+00 -0.11206062845E+03  0.48970469670E+03  0.47671071471E+03 0.  0.
      99925    2    3    3    0    0  0.79063943799E+02  0.89563655803E+02 -0.12814143995E+03  0.31598406969E+03  0.26296948115E+03 0.  0.
         25    1    4    4    0    0  0.23319271023E+02  0.39673228629E+01 -0.58744183272E+02  0.14020668750E+03  0.12509000000E+03 0.  0.
         25    1    3    3    0    0 -0.79063943799E+02 -0.89563655803E+02  0.16080811499E+02  0.17372062701E+03  0.12509000000E+03 0.  0.
         25    1    4    4    0    0  0.55744672776E+02  0.85596332940E+02 -0.69397256679E+02  0.17577738219E+03  0.12509000000E+03 0.  0.
<mgrwt>
<rscale>  2 0.47671071E+03</rscale>
<asrwt>0</asrwt>
<pdfrwt beam="1">  1       21 0.27767946E-01 0.47671071E+03</pdfrwt>
<pdfrwt beam="2">  1       21 0.44247450E-01 0.47671071E+03</pdfrwt>
<totfact> 0.55753985E+04</totfact>
</mgrwt>
</event>
<event>
 7    0  0.4748297E-002  0.4493936E+03  0.7546771E-02  0.1027903E+00
         21   -1    0    0  502  501  0.00000000000E+00  0.00000000000E+00  0.11167116422E+04  0.11167116422E+04  0.00000000000E+00 0.  1.
         21   -1    0    0  501  502 -0.00000000000E+00 -0.00000000000E+00 -0.45211904287E+02  0.45211904287E+02  0.00000000000E+00 0.  1.
      99926    2    1    2    0    0  0.00000000000E+00  0.00000000000E+00  0.10714997380E+04  0.11619235465E+04  0.44939363540E+03 0.  0.
      99925    2    3    3    0    0  0.10374178653E+03  0.24365814420E+02  0.72041627824E+03  0.77428562918E+03  0.26298777616E+03 0.  0.
         25    1    3    3    0    0 -0.10374178653E+03 -0.24365814420E+02  0.35108345972E+03  0.38763791736E+03  0.12509000000E+03 0.  0.
         25    1    4    4    0    0  0.84575378447E+02  0.15198497922E+02  0.46411801495E+03  0.48830014220E+03  0.12509000000E+03 0.  0.
         25    1    4    4    0    0  0.19166408087E+02  0.91673164985E+01  0.25629826330E+03  0.28598548697E+03  0.12509000000E+03 0.  0.
<mgrwt>
<rscale>  2 0.44939364E+03</rscale>
<asrwt>0</asrwt>
<pdfrwt beam="1">  1       21 0.16422228E+00 0.44939364E+03</pdfrwt>
<pdfrwt beam="2">  1       21 0.66488102E-02 0.44939364E+03</pdfrwt>
<totfact> 0.34886153E+04</totfact>
</mgrwt>
</event>
<event>
 7    0  0.4748297E-002  0.4534708E+03  0.7546771E-02  0.1026692E+00
         21   -1    0    0  502  501  0.00000000000E+00  0.00000000000E+00  0.11166385386E+04  0.11166385386E+04  0.00000000000E+00 0. -1.
         21   -1    0    0  501  502 -0.00000000000E+00 -0.00000000000E+00 -0.46039022735E+02  0.46039022735E+02  0.00000000000E+00 0. -1.
      99926    2    1    2    0    0  0.00000000000E+00 -0.14210854715E-13  0.10705995159E+04  0.11626775614E+04  0.45347082405E+03 0.  0.
      99925    2    3    3    0    0  0.35895247049E+02 -0.66349824174E+02  0.88588197472E+03  0.92718054217E+03  0.26303253930E+03 0.  0.
         25    1    4    4    0    0 -0.36927910126E+01 -0.38040483985E+02  0.55296339456E+03  0.56822243791E+03  0.12509000000E+03 0.  0.
         25    1    4    4    0    0  0.39588038062E+02 -0.28309340189E+02  0.33291858016E+03  0.35895810426E+03  0.12509000000E+03 0.  0.
         25    1    3    3    0    0 -0.35895247049E+02  0.66349824174E+02  0.18471754117E+03  0.23549701919E+03  0.12509000000E+03 0.  0.
<mgrwt>
<rscale>  2 0.45347082E+03</rscale>
<asrwt>0</asrwt>
<pdfrwt beam="1">  1       21 0.16421153E+00 0.45347082E+03</pdfrwt>
<pdfrwt beam="2">  1       21 0.67704453E-02 0.45347082E+03</pdfrwt>
<totfact> 0.33762438E+04</totfact>
</mgrwt>
</event>
<event>
 7    0  0.4748297E-002  0.4509537E+03  0.7546771E-02  0.1027438E+00
         21   -1    0    0  502  501  0.00000000000E+00  0.00000000000E+00  0.10692465184E+03  0.10692465184E+03  0.00000000000E+00 0.  1.
         21   -1    0    0  501  502 -0.00000000000E+00 -0.00000000000E+00 -0.47547325095E+03  0.47547325095E+03  0.00000000000E+00 0.  1.
      99926    2    1    2    0    0  0.00000000000E+00  0.00000000000E+00 -0.36854859911E+03  0.58239790279E+03  0.45095370856E+03 0.  0.
      99925    2    3    3    0    0 -0.33039548533E+02 -0.92762479557E+02 -0.17147464679E+03  0.32905595963E+03  0.26301669281E+03 0.  0.
         25    1    4    4    0    0 -0.23968133008E+02 -0.67430562890E+01 -0.93533013673E+02  0.15816406973E+03  0.12509000000E+03 0.  0.
         25    1    4    4    0    0 -0.90714155250E+01 -0.86019423268E+02 -0.77941633115E+02  0.17089188989E+03  0.12509000000E+03 0.  0.
         25    1    3    3    0    0  0.33039548533E+02  0.92762479557E+02 -0.19707395232E+03  0.25334194316E+03  0.12509000000E+03 0.  0.
<mgrwt>
<rscale>  2 0.45095371E+03</rscale>
<asrwt>0</asrwt>
<pdfrwt beam="1">  1       21 0.15724214E-01 0.45095371E+03</pdfrwt>
<pdfrwt beam="2">  1       21 0.69922536E-01 0.45095371E+03</pdfrwt>
<totfact> 0.61725827E+04</totfact>
</mgrwt>
</event>
<event>
 7    0  0.4748297E-002  0.4507412E+03  0.7546771E-02  0.1027501E+00
         21   -1    0    0  502  501  0.00000000000E+00  0.00000000000E+00  0.97097576700E+02  0.97097576700E+02  0.00000000000E+00 0.  1.
         21   -1    0    0  501  502 -0.00000000000E+00 -0.00000000000E+00 -0.52310163945E+03  0.52310163945E+03  0.00000000000E+00 0.  1.
      99926    2    1    2    0    0  0.14210854715E-13  0.00000000000E+00 -0.42600406275E+03  0.62019921615E+03  0.45074117433E+03 0.  0.
      99925    2    3    3    0    0 -0.69588051352E+02 -0.73751779930E+02 -0.32495047678E+03  0.43009093840E+03  0.26287559985E+03 0.  0.
         25    1    3    3    0    0  0.69588051352E+02  0.73751779930E+02 -0.10105358597E+03  0.19010827775E+03  0.12509000000E+03 0.  0.
         25    1    4    4    0    0 -0.26780409535E+02 -0.66121809883E+02 -0.12746715830E+03  0.19231398447E+03  0.12509000000E+03 0.  0.
         25    1    4    4    0    0 -0.42807641817E+02 -0.76299700469E+01 -0.19748331848E+03  0.23777695393E+03  0.12509000000E+03 0.  0.
<mgrwt>
<rscale>  2 0.45074117E+03</rscale>
<asrwt>0</asrwt>
<pdfrwt beam="1">  1       21 0.14279055E-01 0.45074117E+03</pdfrwt>
<pdfrwt beam="2">  1       21 0.76926712E-01 0.45074117E+03</pdfrwt>
<totfact> 0.59425193E+04</totfact>
</mgrwt>
</event>
<event>
 7    0  0.4748297E-002  0.4360685E+03  0.7546771E-02  0.1031960E+00
         21   -1    0    0  502  501  0.00000000000E+00  0.00000000000E+00  0.55236161618E+03  0.55236161618E+03  0.00000000000E+00 0.  1.
         21   -1    0    0  501  502 -0.00000000000E+00 -0.00000000000E+00 -0.86064880735E+02  0.86064880735E+02  0.00000000000E+00 0.  1.
      99926    2    1    2    0    0 -0.35527136788E-14  0.00000000000E+00  0.46629673544E+03  0.63842649692E+03  0.43606851122E+03 0.  0.
      99925    2    3    3    0    0 -0.10430402420E+02 -0.89158331956E+02  0.25620631092E+03  0.37795865623E+03  0.26296971425E+03 0.  0.
         25    1    4    4    0    0  0.24843691194E+02 -0.66601718874E+02  0.11051521874E+03  0.18142248929E+03  0.12509000000E+03 0.  0.
         25    1    4    4    0    0 -0.35274093613E+02 -0.22556613082E+02  0.14569109218E+03  0.19653616694E+03  0.12509000000E+03 0.  0.
         25    1    3    3    0    0  0.10430402420E+02  0.89158331956E+02  0.21009042453E+03  0.26046784068E+03  0.12509000000E+03 0.  0.
<mgrwt>
<rscale>  2 0.43606851E+03</rscale>
<asrwt>0</asrwt>
<pdfrwt beam="1">  1       21 0.81229648E-01 0.43606851E+03</pdfrwt>
<pdfrwt beam="2">  1       21 0.12656600E-01 0.43606851E+03</pdfrwt>
<totfact> 0.65641682E+04</totfact>
</mgrwt>
</event>
<event>
 7    0  0.4748297E-002  0.4549712E+03  0.7546771E-02  0.1026250E+00
         21   -1    0    0  502  501  0.00000000000E+00  0.00000000000E+00  0.16967464596E+03  0.16967464596E+03  0.00000000000E+00 0. -1.
         21   -1    0    0  501  502 -0.00000000000E+00 -0.00000000000E+00 -0.30499371802E+03  0.30499371802E+03  0.00000000000E+00 0. -1.
      99926    2    1    2    0    0 -0.44408920985E-15  0.00000000000E+00 -0.13531907206E+03  0.47466836397E+03  0.45497121282E+03 0.  0.
      99925    2    3    3    0    0 -0.86137408650E+00  0.85506647765E+02 -0.16248151889E+03  0.32072865046E+03  0.26297242150E+03 0.  0.
         25    1    4    4    0    0  0.77306471958E+01  0.24074377528E+01 -0.62124489573E+02  0.13990181903E+03  0.12509000000E+03 0.  0.
         25    1    3    3    0    0  0.86137408650E+00 -0.85506647765E+02  0.27162446828E+02  0.15393971351E+03  0.12509000000E+03 0.  0.
         25    1    4    4    0    0 -0.85920212823E+01  0.83099210012E+02 -0.10035702932E+03  0.18082683144E+03  0.12509000000E+03 0.  0.
<mgrwt>
<rscale>  2 0.45497121E+03</rscale>
<asrwt>0</asrwt>
<pdfrwt beam="1">  1       21 0.24952154E-01 0.45497121E+03</pdfrwt>
<pdfrwt beam="2">  1       21 0.44852017E-01 0.45497121E+03</pdfrwt>
<totfact> 0.67105637E+04</totfact>
</mgrwt>
</event>
<event>
 7    0  0.4748297E-002  0.4511214E+03  0.7546771E-02  0.1027388E+00
         21   -1    0    0  502  501  0.00000000000E+00  0.00000000000E+00  0.65491836384E+03  0.65491836384E+03  0.00000000000E+00 0. -1.
         21   -1    0    0  501  502 -0.00000000000E+00 -0.00000000000E+00 -0.77685453579E+02  0.77685453579E+02  0.00000000000E+00 0. -1.
      99926    2    1    2    0    0  0.00000000000E+00  0.14210854715E-13  0.57723291027E+03  0.73260381742E+03  0.45112140340E+03 0.  0.
      99925    2    3    3    0    0  0.30974926494E+02 -0.10072072343E+03  0.41303607894E+03  0.50084485273E+03  0.26294990739E+03 0.  0.
         25    1    4    4    0    0  0.37195673304E+01 -0.66999665078E+02  0.15090296826E+03  0.20717626368E+03  0.12509000000E+03 0.  0.
         25    1    3    3    0    0 -0.30974926494E+02  0.10072072343E+03  0.16419683132E+03  0.23175896470E+03  0.12509000000E+03 0.  0.
         25    1    4    4    0    0  0.27255359164E+02 -0.33721058353E+02  0.26213311068E+03  0.29366858905E+03  0.12509000000E+03 0.  0.
<mgrwt>
<rscale>  2 0.45112140E+03</rscale>
<asrwt>0</asrwt>
<pdfrwt beam="1">  1       21 0.96311521E-01 0.45112140E+03</pdfrwt>
<pdfrwt beam="2">  1       21 0.11424332E-01 0.45112140E+03</pdfrwt>
<totfact> 0.52758986E+04</totfact>
</mgrwt>
</event>
<event>
 7    0  0.4748297E-002  0.4273538E+03  0.7546771E-02  0.1034699E+00
         21   -1    0    0  502  501  0.00000000000E+00  0.00000000000E+00  0.13641907101E+03  0.13641907101E+03  0.00000000000E+00 0. -1.
         21   -1    0    0  501  502 -0.00000000000E+00 -0.00000000000E+00 -0.33468799394E+03  0.33468799394E+03  0.00000000000E+00 0. -1.
      99926    2    1    2    0    0  0.00000000000E+00  0.00000000000E+00 -0.19826892292E+03  0.47110706495E+03  0.42735383565E+03 0.  0.
      99925    2    3    3    0    0 -0.51454499490E+02  0.61938315044E+02 -0.15727713961E+03  0.31679648596E+03  0.26294485066E+03 0.  0.
         25    1    4    4    0    0 -0.59204443439E+02  0.44379077793E+02 -0.10764533821E+03  0.18085821963E+03  0.12509000000E+03 0.  0.
         25    1    3    3    0    0  0.51454499490E+02 -0.61938315044E+02 -0.40991783319E+02  0.15431057899E+03  0.12509000000E+03 0.  0.
         25    1    4    4    0    0  0.77499439494E+01  0.17559237251E+02 -0.49631801397E+02  0.13593826633E+03  0.12509000000E+03 0.  0.
<mgrwt>
<rscale>  2 0.42735384E+03</rscale>
<asrwt>0</asrwt>
<pdfrwt beam="1">  1       21 0.20061629E-01 0.42735384E+03</pdfrwt>
<pdfrwt beam="2">  1       21 0.49218822E-01 0.42735384E+03</pdfrwt>
<totfact> 0.84411878E+04</totfact>
</mgrwt>
</event>
<event>
 7    0  0.4748297E-002  0.4494843E+03  0.7546771E-02  0.1027876E+00
         21   -1    0    0  502  501  0.00000000000E+00  0.00000000000E+00  0.74806256646E+03  0.74806256646E+03  0.00000000000E+00 0.  1.
         21   -1    0    0  501  502 -0.00000000000E+00 -0.00000000000E+00 -0.67519784941E+02  0.67519784941E+02  0.00000000000E+00 0.  1.
      99926    2    1    2    0    0 -0.71054273576E-14  0.00000000000E+00  0.68054278152E+03  0.81558235140E+03  0.44948425383E+03 0.  0.
      99925    2    3    3    0    0  0.39022604829E+02 -0.33635049281E+02  0.25837223350E+03  0.37226580542E+03  0.26300482621E+03 0.  0.
         25    1    4    4    0    0  0.77055726820E+01  0.16117643601E+02  0.15319030064E+03  0.19857978395E+03  0.12509000000E+03 0.  0.
         25    1    3    3    0    0 -0.39022604829E+02  0.33635049281E+02  0.42217054801E+03  0.44331654598E+03  0.12509000000E+03 0.  0.
         25    1    4    4    0    0  0.31317032147E+02 -0.49752692881E+02  0.10518193286E+03  0.17368602147E+03  0.12509000000E+03 0.  0.
<mgrwt>
<rscale>  2 0.44948425E+03</rscale>
<asrwt>0</asrwt>
<pdfrwt beam="1">  1       21 0.11000920E+00 0.44948425E+03</pdfrwt>
<pdfrwt beam="2">  1       21 0.99293806E-02 0.44948425E+03</pdfrwt>
<totfact> 0.49111715E+04</totfact>
</mgrwt>
</event>
<event>
 7    0  0.4748297E-002  0.4436131E+03  0.7546771E-02  0.1029644E+00
         21   -1    0    0  502  501  0.00000000000E+00  0.00000000000E+00  0.18983058309E+04  0.18983058309E+04  0.00000000000E+00 0.  1.
         21   -1    0    0  501  502 -0.00000000000E+00 -0.00000000000E+00 -0.25916864318E+02  0.25916864318E+02  0.00000000000E+00 0.  1.
      99926    2    1    2    0    0 -0.53290705182E-14  0.00000000000E+00  0.18723889666E+04  0.19242226952E+04  0.44361305055E+03 0.  0.
      99925    2    3    3    0    0 -0.10085680065E+02  0.92120342175E+02  0.13762432501E+04  0.14042265814E+04  0.26309490655E+03 0.  0.
         25    1    4    4    0    0  0.34878934467E+02  0.51314137702E+02  0.71974779050E+03  0.73316715068E+03  0.12509000000E+03 0.  0.
         25    1    4    4    0    0 -0.44964614533E+02  0.40806204473E+02  0.65649545964E+03  0.67105943069E+03  0.12509000000E+03 0.  0.
         25    1    3    3    0    0  0.10085680065E+02 -0.92120342175E+02  0.49614571644E+03  0.51999611385E+03  0.12509000000E+03 0.  0.
<mgrwt>
<rscale>  2 0.44361305E+03</rscale>
<asrwt>0</asrwt>
<pdfrwt beam="1">  1       21 0.27916253E+00 0.44361305E+03</pdfrwt>
<pdfrwt beam="2">  1       21 0.38113049E-02 0.44361305E+03</pdfrwt>
<totfact> 0.16387841E+04</totfact>
</mgrwt>
</event>
<event>
 7    0  0.4748297E-002  0.4548925E+03  0.7546771E-02  0.1026273E+00
         21   -1    0    0  502  501  0.00000000000E+00  0.00000000000E+00  0.99449736886E+03  0.99449736886E+03  0.00000000000E+00 0.  1.
         21   -1    0    0  501  502 -0.00000000000E+00 -0.00000000000E+00 -0.52018032838E+02  0.52018032838E+02  0.00000000000E+00 0.  1.
      99926    2    1    2    0    0  0.00000000000E+00  0.00000000000E+00  0.94247933603E+03  0.10465154017E+04  0.45489250067E+03 0.  0.
      99925    2    3    3    0    0  0.65059782673E+02  0.14271655161E+02  0.38249445415E+03  0.46887621372E+03  0.26288103940E+03 0.  0.
         25    1    4    4    0    0  0.13689350079E+00  0.71217670653E+01  0.13653849196E+03  0.18531326502E+03  0.12509000000E+03 0.  0.
         25    1    4    4    0    0  0.64922889172E+02  0.71498880959E+01  0.24595596219E+03  0.28356294870E+03  0.12509000000E+03 0.  0.
         25    1    3    3    0    0 -0.65059782673E+02 -0.14271655161E+02  0.55998488187E+03  0.57763918798E+03  0.12509000000E+03 0.  0.
<mgrwt>
<rscale>  2 0.45489250E+03</rscale>
<asrwt>0</asrwt>
<pdfrwt beam="1">  1       21 0.14624960E+00 0.45489250E+03</pdfrwt>
<pdfrwt beam="2">  1       21 0.76497113E-02 0.45489250E+03</pdfrwt>
<totfact> 0.37436913E+04</totfact>
</mgrwt>
</event>
<event>
 7    0  0.4748297E-002  0.4571969E+03  0.7546771E-02  0.1025597E+00
         21   -1    0    0  502  501  0.00000000000E+00  0.00000000000E+00  0.10926774200E+03  0.10926774200E+03  0.00000000000E+00 0.  1.
         21   -1    0    0  501  502 -0.00000000000E+00 -0.00000000000E+00 -0.47824964252E+03  0.47824964252E+03  0.00000000000E+00 0.  1.
      99926    2    1    2    0    0  0.00000000000E+00  0.71054273576E-14 -0.36898190052E+03  0.58751738452E+03  0.45719693153E+03 0.  0.
      99925    2    3    3    0    0  0.77575631268E+02 -0.62947075899E+02 -0.30550078122E+03  0.41530335043E+03  0.26299397829E+03 0.  0.
         25    1    4    4    0    0  0.71601807354E+02 -0.16840661481E+02 -0.18803937288E+03  0.23752208434E+03  0.12509000000E+03 0.  0.
         25    1    3    3    0    0 -0.77575631268E+02  0.62947075899E+02 -0.63481119298E+02  0.17221403409E+03  0.12509000000E+03 0.  0.
         25    1    4    4    0    0  0.59738239137E+01 -0.46106414418E+02 -0.11746140834E+03  0.17778126609E+03  0.12509000000E+03 0.  0.
<mgrwt>
<rscale>  2 0.45719693E+03</rscale>
<asrwt>0</asrwt>
<pdfrwt beam="1">  1       21 0.16068786E-01 0.45719693E+03</pdfrwt>
<pdfrwt beam="2">  1       21 0.70330830E-01 0.45719693E+03</pdfrwt>
<totfact> 0.58431965E+04</totfact>
</mgrwt>
</event>
<event>
 7    0  0.4748297E-002  0.4634580E+03  0.7546771E-02  0.1023783E+00
         21   -1    0    0  502  501  0.00000000000E+00  0.00000000000E+00  0.42823138598E+03  0.42823138598E+03  0.00000000000E+00 0. -1.
         21   -1    0    0  501  502 -0.00000000000E+00 -0.00000000000E+00 -0.12539561534E+03  0.12539561534E+03  0.00000000000E+00 0. -1.
      99926    2    1    2    0    0 -0.71054273576E-14  0.35527136788E-14  0.30283577064E+03  0.55362700132E+03  0.46345803759E+03 0.  0.
      99925    2    3    3    0    0 -0.54350498601E+02 -0.24225740133E+02  0.31492354381E+03  0.41457850063E+03  0.26297838611E+03 0.  0.
         25    1    4    4    0    0  0.11714278912E+02 -0.90184642553E+00  0.13319878630E+03  0.18310505845E+03  0.12509000000E+03 0.  0.
         25    1    3    3    0    0  0.54350498601E+02  0.24225740133E+02 -0.12087773165E+02  0.13904850069E+03  0.12509000000E+03 0.  0.
         25    1    4    4    0    0 -0.66064777513E+02 -0.23323893708E+02  0.18172475751E+03  0.23147344219E+03  0.12509000000E+03 0.  0.
<mgrwt>
<rscale>  2 0.46345804E+03</rscale>
<asrwt>0</asrwt>
<pdfrwt beam="1">  1       21 0.62975203E-01 0.46345804E+03</pdfrwt>
<pdfrwt beam="2">  1       21 0.18440532E-01 0.46345804E+03</pdfrwt>
<totfact> 0.57670502E+04</totfact>
</mgrwt>
</event>
<event>
 7    0  0.4748297E-002  0.4504184E+03  0.7546771E-02  0.1027597E+00
         21   -1    0    0  502  501  0.00000000000E+00  0.00000000000E+00  0.19260270990E+04  0.19260270990E+04  0.00000000000E+00 0. -1.
         21   -1    0    0  501  502 -0.00000000000E+00 -0.00000000000E+00 -0.26333573478E+02  0.26333573478E+02  0.00000000000E+00 0. -1.
      99926    2    1    2    0    0  0.00000000000E+00  0.00000000000E+00  0.18996935255E+04  0.19523606725E+04  0.45041836611E+03 0.  0.
      99925    2    3    3    0    0 -0.69063989919E+02 -0.67548684346E+01  0.15634781737E+04  0.15869790448E+04  0.26310269102E+03 0.  0.
         25    1    4    4    0    0 -0.43014657673E+01 -0.97672061452E+01  0.89934787462E+03  0.90806828411E+03  0.12509000000E+03 0.  0.
         25    1    4    4    0    0 -0.64762524152E+02  0.30123377106E+01  0.66413029905E+03  0.67891076065E+03  0.12509000000E+03 0.  0.
         25    1    3    3    0    0  0.69063989919E+02  0.67548684346E+01  0.33621535186E+03  0.36538162772E+03  0.12509000000E+03 0.  0.
<mgrwt>
<rscale>  2 0.45041837E+03</rscale>
<asrwt>0</asrwt>
<pdfrwt beam="1">  1       21 0.28323918E+00 0.45041837E+03</pdfrwt>
<pdfrwt beam="2">  1       21 0.38725857E-02 0.45041837E+03</pdfrwt>
<totfact> 0.15030930E+04</totfact>
</mgrwt>
</event>
<event>
 7    0  0.4748297E-002  0.4573689E+03  0.7546771E-02  0.1025547E+00
         21   -1    0    0  502  501  0.00000000000E+00  0.00000000000E+00  0.12908368016E+04  0.12908368016E+04  0.00000000000E+00 0.  1.
         21   -1    0    0  501  502 -0.00000000000E+00 -0.00000000000E+00 -0.40513698933E+02  0.40513698933E+02  0.00000000000E+00 0.  1.
      99926    2    1    2    0    0  0.00000000000E+00  0.00000000000E+00  0.12503231026E+04  0.13313505005E+04  0.45736888198E+03 0.  0.
      99925    2    3    3    0    0  0.73357999715E+02  0.20208273036E+02  0.53211356300E+03  0.59836876721E+03  0.26288888759E+03 0.  0.
         25    1    4    4    0    0  0.26180565964E+02 -0.16029002544E+02  0.32093164044E+03  0.34581350016E+03  0.12509000000E+03 0.  0.
         25    1    4    4    0    0  0.47177433751E+02  0.36237275580E+02  0.21118192256E+03  0.25255526705E+03  0.12509000000E+03 0.  0.
         25    1    3    3    0    0 -0.73357999715E+02 -0.20208273036E+02  0.71820953963E+03  0.73298173329E+03  0.12509000000E+03 0.  0.
<mgrwt>
<rscale>  2 0.45736888E+03</rscale>
<asrwt>0</asrwt>
<pdfrwt beam="1">  1       21 0.18982891E+00 0.45736888E+03</pdfrwt>
<pdfrwt beam="2">  1       21 0.59578977E-02 0.45736888E+03</pdfrwt>
<totfact> 0.27703879E+04</totfact>
</mgrwt>
</event>
<event>
 7    0  0.4748297E-002  0.4200675E+03  0.7546771E-02  0.1037044E+00
         21   -1    0    0  502  501  0.00000000000E+00  0.00000000000E+00  0.31896373845E+03  0.31896373845E+03  0.00000000000E+00 0. -1.
         21   -1    0    0  501  502 -0.00000000000E+00 -0.00000000000E+00 -0.13830469103E+03  0.13830469103E+03  0.00000000000E+00 0. -1.
      99926    2    1    2    0    0  0.35527136788E-14 -0.14210854715E-13  0.18065904742E+03  0.45726842948E+03  0.42006752455E+03 0.  0.
      99925    2    3    3    0    0 -0.19516011114E+02  0.72153591007E+02  0.10383303490E+03  0.29253604139E+03  0.26307607453E+03 0.  0.
         25    1    3    3    0    0  0.19516011114E+02 -0.72153591007E+02  0.76826012518E+02  0.16473238809E+03  0.12509000000E+03 0.  0.
         25    1    4    4    0    0  0.10229921711E+02 -0.55756386667E+00  0.41272169682E+02  0.13212063528E+03  0.12509000000E+03 0.  0.
         25    1    4    4    0    0 -0.29745932825E+02  0.72711154873E+02  0.62560865218E+02  0.16041540612E+03  0.12509000000E+03 0.  0.
<mgrwt>
<rscale>  2 0.42006752E+03</rscale>
<asrwt>0</asrwt>
<pdfrwt beam="1">  1       21 0.46906432E-01 0.42006752E+03</pdfrwt>
<pdfrwt beam="2">  1       21 0.20338925E-01 0.42006752E+03</pdfrwt>
<totfact> 0.91166560E+04</totfact>
</mgrwt>
</event>
<event>
 7    0  0.4748297E-002  0.4415950E+03  0.7546771E-02  0.1030259E+00
         21   -1    0    0  502  501  0.00000000000E+00  0.00000000000E+00  0.24310418906E+03  0.24310418906E+03  0.00000000000E+00 0. -1.
         21   -1    0    0  501  502 -0.00000000000E+00 -0.00000000000E+00 -0.20053762742E+03  0.20053762742E+03  0.00000000000E+00 0. -1.
      99926    2    1    2    0    0  0.71054273576E-14  0.00000000000E+00  0.42566561644E+02  0.44364181648E+03  0.44159500581E+03 0.  0.
      99925    2    3    3    0    0  0.55800813772E+02  0.78350206421E+02  0.54824943094E+02  0.28536907189E+03  0.26301567851E+03 0.  0.
         25    1    4    4    0    0  0.61076156760E+02  0.20518553311E+02  0.13272688984E+02  0.14133287065E+03  0.12509000000E+03 0.  0.
         25    1    4    4    0    0 -0.52753429883E+01  0.57831653110E+02  0.41552254110E+02  0.14403620124E+03  0.12509000000E+03 0.  0.
         25    1    3    3    0    0 -0.55800813772E+02 -0.78350206421E+02 -0.12258381450E+02  0.15827274459E+03  0.12509000000E+03 0.  0.
<mgrwt>
<rscale>  2 0.44159501E+03</rscale>
<asrwt>0</asrwt>
<pdfrwt beam="1">  1       21 0.35750616E-01 0.44159501E+03</pdfrwt>
<pdfrwt beam="2">  1       21 0.29490828E-01 0.44159501E+03</pdfrwt>
<totfact> 0.77331776E+04</totfact>
</mgrwt>
</event>
<event>
 7    0  0.4748297E-002  0.4607644E+03  0.7546771E-02  0.1024560E+00
         21   -1    0    0  502  501  0.00000000000E+00  0.00000000000E+00  0.12758486969E+04  0.12758486969E+04  0.00000000000E+00 0. -1.
         21   -1    0    0  501  502 -0.00000000000E+00 -0.00000000000E+00 -0.41600510195E+02  0.41600510195E+02  0.00000000000E+00 0. -1.
      99926    2    1    2    0    0  0.00000000000E+00  0.00000000000E+00  0.12342481867E+04  0.13174492071E+04  0.46076439412E+03 0.  0.
      99925    2    3    3    0    0  0.39292739222E+02  0.38732224176E+02  0.10728656240E+04  0.11059404739E+04  0.26271577848E+03 0.  0.
         25    1    3    3    0    0 -0.39292739222E+02 -0.38732224176E+02  0.16138256275E+03  0.21150873316E+03  0.12509000000E+03 0.  0.
         25    1    4    4    0    0  0.37926560437E+02  0.27569291907E+02  0.69580271416E+03  0.70851070209E+03  0.12509000000E+03 0.  0.
         25    1    4    4    0    0  0.13661787851E+01  0.11162932269E+02  0.37706290980E+03  0.39742977185E+03  0.12509000000E+03 0.  0.
<mgrwt>
<rscale>  2 0.46076439E+03</rscale>
<asrwt>0</asrwt>
<pdfrwt beam="1">  1       21 0.18762478E+00 0.46076439E+03</pdfrwt>
<pdfrwt beam="2">  1       21 0.61177229E-02 0.46076439E+03</pdfrwt>
<totfact> 0.27364788E+04</totfact>
</mgrwt>
</event>
<event>
 7    0  0.4748297E-002  0.4284407E+03  0.7546771E-02  0.1034354E+00
         21   -1    0    0  502  501  0.00000000000E+00  0.00000000000E+00  0.77626180313E+03  0.77626180313E+03  0.00000000000E+00 0.  1.
         21   -1    0    0  501  502 -0.00000000000E+00 -0.00000000000E+00 -0.59117127822E+02  0.59117127822E+02  0.00000000000E+00 0.  1.
      99926    2    1    2    0    0 -0.35527136788E-14  0.00000000000E+00  0.71714467531E+03  0.83537893095E+03  0.42844074615E+03 0.  0.
      99925    2    3    3    0    0  0.29912446044E+02  0.65978643464E+02  0.37307789210E+03  0.46218006275E+03  0.26301209289E+03 0.  0.
         25    1    3    3    0    0 -0.29912446044E+02 -0.65978643464E+02  0.34406678321E+03  0.37319886820E+03  0.12509000000E+03 0.  0.
         25    1    4    4    0    0 -0.18066686150E+02  0.30959170555E+02  0.22131396840E+03  0.25673382344E+03  0.12509000000E+03 0.  0.
         25    1    4    4    0    0  0.47979132194E+02  0.35019472910E+02  0.15176392370E+03  0.20544623931E+03  0.12509000000E+03 0.  0.
<mgrwt>
<rscale>  2 0.42844075E+03</rscale>
<asrwt>0</asrwt>
<pdfrwt beam="1">  1       21 0.11415614E+00 0.42844075E+03</pdfrwt>
<pdfrwt beam="2">  1       21 0.86936957E-02 0.42844075E+03</pdfrwt>
<totfact> 0.57099643E+04</totfact>
</mgrwt>
</event>
<event>
 7    0  0.4748297E-002  0.4411592E+03  0.7546771E-02  0.1030392E+00
         21   -1    0    0  502  501  0.00000000000E+00  0.00000000000E+00  0.45465341148E+02  0.45465341148E+02  0.00000000000E+00 0.  1.
         21   -1    0    0  501  502 -0.00000000000E+00 -0.00000000000E+00 -0.10701639522E+04  0.10701639522E+04  0.00000000000E+00 0.  1.
      99926    2    1    2    0    0  0.00000000000E+00  0.00000000000E+00 -0.10246986110E+04  0.11156292933E+04  0.44115924186E+03 0.  0.
      99925    2    3    3    0    0  0.71082438719E+02  0.17301005918E+02 -0.48235331995E+03  0.55425779355E+03  0.26303029968E+03 0.  0.
         25    1    4    4    0    0  0.25195716043E+02  0.45554447312E+02 -0.21331825596E+03  0.25270975090E+03  0.12509000000E+03 0.  0.
         25    1    3    3    0    0 -0.71082438719E+02 -0.17301005918E+02 -0.54234529108E+03  0.56137149977E+03  0.12509000000E+03 0.  0.
         25    1    4    4    0    0  0.45886722676E+02 -0.28253441395E+02 -0.26903506399E+03  0.30154804264E+03  0.12509000000E+03 0.  0.
<mgrwt>
<rscale>  2 0.44115924E+03</rscale>
<asrwt>0</asrwt>
<pdfrwt beam="1">  1       21 0.66860806E-02 0.44115924E+03</pdfrwt>
<pdfrwt beam="2">  1       21 0.15737703E+00 0.44115924E+03</pdfrwt>
<totfact> 0.38991547E+04</totfact>
</mgrwt>
</event>
<event>
 7    0  0.4748297E-002  0.5078984E+03  0.7546771E-02  0.1011738E+00
         21   -1    0    0  502  501  0.00000000000E+00  0.00000000000E+00  0.85099887414E+03  0.85099887414E+03  0.00000000000E+00 0.  1.
         21   -1    0    0  501  502 -0.00000000000E+00 -0.00000000000E+00 -0.75781779238E+02  0.75781779238E+02  0.00000000000E+00 0.  1.
      99926    2    1    2    0    0  0.00000000000E+00 -0.28421709430E-13  0.77521709490E+03  0.92678065338E+03  0.50789844974E+03 0.  0.
      99925    2    3    3    0    0  0.51569845366E+02  0.13872845906E+03  0.56564575426E+03  0.64134644165E+03  0.26356233533E+03 0.  0.
         25    1    3    3    0    0 -0.51569845366E+02 -0.13872845906E+03  0.20957134064E+03  0.28543421172E+03  0.12509000000E+03 0.  0.
         25    1    4    4    0    0  0.21268723836E+02  0.39528707965E+02  0.18808107665E+03  0.23029736616E+03  0.12509000000E+03 0.  0.
         25    1    4    4    0    0  0.30301121530E+02  0.99199751097E+02  0.37756467760E+03  0.41104907549E+03  0.12509000000E+03 0.  0.
<mgrwt>
<rscale>  2 0.50789845E+03</rscale>
<asrwt>0</asrwt>
<pdfrwt beam="1">  1       21 0.12514689E+00 0.50789845E+03</pdfrwt>
<pdfrwt beam="2">  1       21 0.11144380E-01 0.50789845E+03</pdfrwt>
<totfact> 0.28388642E+04</totfact>
</mgrwt>
</event>
<event>
 7    0  0.4748297E-002  0.4456967E+03  0.7546771E-02  0.1029013E+00
         21   -1    0    0  502  501  0.00000000000E+00  0.00000000000E+00  0.14429599328E+03  0.14429599328E+03  0.00000000000E+00 0. -1.
         21   -1    0    0  501  502 -0.00000000000E+00 -0.00000000000E+00 -0.34416332513E+03  0.34416332513E+03  0.00000000000E+00 0. -1.
      99926    2    1    2    0    0  0.00000000000E+00  0.14210854715E-13 -0.19986733186E+03  0.48845931841E+03  0.44569670786E+03 0.  0.
      99925    2    3    3    0    0 -0.58187098281E+02 -0.85545167682E+02 -0.11182594566E+03  0.30379067488E+03  0.26283077807E+03 0.  0.
         25    1    4    4    0    0 -0.46309551465E+02 -0.60420361971E+02 -0.95001862039E+02  0.17455101429E+03  0.12509000000E+03 0.  0.
         25    1    4    4    0    0 -0.11877546816E+02 -0.25124805711E+02 -0.16824083625E+02  0.12923966059E+03  0.12509000000E+03 0.  0.
         25    1    3    3    0    0  0.58187098281E+02  0.85545167682E+02 -0.88041386191E+02  0.18466864353E+03  0.12509000000E+03 0.  0.
<mgrwt>
<rscale>  2 0.44569671E+03</rscale>
<asrwt>0</asrwt>
<pdfrwt beam="1">  1       21 0.21219999E-01 0.44569671E+03</pdfrwt>
<pdfrwt beam="2">  1       21 0.50612253E-01 0.44569671E+03</pdfrwt>
<totfact> 0.71204567E+04</totfact>
</mgrwt>
</event>
<event>
 7    0  0.4748297E-002  0.4515252E+03  0.7546771E-02  0.1027268E+00
         21   -1    0    0  502  501  0.00000000000E+00  0.00000000000E+00  0.54668478007E+03  0.54668478007E+03  0.00000000000E+00 0. -1.
         21   -1    0    0  501  502 -0.00000000000E+00 -0.00000000000E+00 -0.93232447714E+02  0.93232447714E+02  0.00000000000E+00 0. -1.
      99926    2    1    2    0    0  0.71054273576E-14  0.00000000000E+00  0.45345233236E+03  0.63991722779E+03  0.45152523816E+03 0.  0.
      99925    2    3    3    0    0  0.46954607656E+02  0.16117105733E+02  0.42512208650E+03  0.50238684130E+03  0.26305751007E+03 0.  0.
         25    1    3    3    0    0 -0.46954607656E+02 -0.16117105733E+02  0.28330245862E+02  0.13753038649E+03  0.12509000000E+03 0.  0.
         25    1    4    4    0    0 -0.13633813326E+02  0.16955567530E+02  0.23163446033E+03  0.26415034251E+03  0.12509000000E+03 0.  0.
         25    1    4    4    0    0  0.60588420982E+02 -0.83846179778E+00  0.19348762617E+03  0.23823649879E+03  0.12509000000E+03 0.  0.
<mgrwt>
<rscale>  2 0.45152524E+03</rscale>
<asrwt>0</asrwt>
<pdfrwt beam="1">  1       21 0.80394819E-01 0.45152524E+03</pdfrwt>
<pdfrwt beam="2">  1       21 0.13710654E-01 0.45152524E+03</pdfrwt>
<totfact> 0.57856331E+04</totfact>
</mgrwt>
</event>
<event>
 7    0  0.4748297E-002  0.4564757E+03  0.7546771E-02  0.1025808E+00
         21   -1    0    0  502  501  0.00000000000E+00  0.00000000000E+00  0.12052714945E+03  0.12052714945E+03  0.00000000000E+00 0.  1.
         21   -1    0    0  501  502 -0.00000000000E+00 -0.00000000000E+00 -0.43220560167E+03  0.43220560167E+03  0.00000000000E+00 0.  1.
      99926    2    1    2    0    0  0.35527136788E-14  0.00000000000E+00 -0.31167845221E+03  0.55273275112E+03  0.45647566922E+03 0.  0.
      99925    2    3    3    0    0 -0.18902526906E+02 -0.85709683007E+01 -0.33238644107E+03  0.42425280746E+03  0.26282871116E+03 0.  0.
         25    1    4    4    0    0 -0.13597118107E+02  0.30015735130E+02 -0.13182735049E+03  0.18469375846E+03  0.12509000000E+03 0.  0.
         25    1    4    4    0    0 -0.53054087988E+01 -0.38586703431E+02 -0.20055909058E+03  0.23955904900E+03  0.12509000000E+03 0.  0.
         25    1    3    3    0    0  0.18902526906E+02  0.85709683007E+01  0.20707988854E+02  0.12847994366E+03  0.12509000000E+03 0.  0.
<mgrwt>
<rscale>  2 0.45647567E+03</rscale>
<asrwt>0</asrwt>
<pdfrwt beam="1">  1       21 0.17724580E-01 0.45647567E+03</pdfrwt>
<pdfrwt beam="2">  1       21 0.63559649E-01 0.45647567E+03</pdfrwt>
<totfact> 0.60971351E+04</totfact>
</mgrwt>
</event>
<event>
 7    0  0.4748297E-002  0.4459953E+03  0.7546771E-02  0.1028923E+00
         21   -1    0    0  502  501  0.00000000000E+00  0.00000000000E+00  0.65326245206E+02  0.65326245206E+02  0.00000000000E+00 0.  1.
         21   -1    0    0  501  502 -0.00000000000E+00 -0.00000000000E+00 -0.76122465494E+03  0.76122465494E+03  0.00000000000E+00 0.  1.
      99926    2    1    2    0    0  0.00000000000E+00  0.00000000000E+00 -0.69589840973E+03  0.82655090014E+03  0.44599528457E+03 0.  0.
      99925    2    3    3    0    0  0.32002454204E+02 -0.34777736808E+02 -0.26884212392E+03  0.37904869076E+03  0.26299843026E+03 0.  0.
         25    1    4    4    0    0  0.41297663276E+02 -0.35502368484E+02 -0.17752041160E+03  0.22389041917E+03  0.12509000000E+03 0.  0.
         25    1    3    3    0    0 -0.32002454204E+02  0.34777736808E+02 -0.42705628581E+03  0.44750220938E+03  0.12509000000E+03 0.  0.
         25    1    4    4    0    0 -0.92952090717E+01  0.72463167547E+00 -0.91321712320E+02  0.15515827159E+03  0.12509000000E+03 0.  0.
<mgrwt>
<rscale>  2 0.44599528E+03</rscale>
<asrwt>0</asrwt>
<pdfrwt beam="1">  1       21 0.96068009E-02 0.44599528E+03</pdfrwt>
<pdfrwt beam="2">  1       21 0.11194480E+00 0.44599528E+03</pdfrwt>
<totfact> 0.49943506E+04</totfact>
</mgrwt>
</event>
<event>
 7    0  0.4748297E-002  0.4562140E+03  0.7546771E-02  0.1025885E+00
         21   -1    0    0  502  501  0.00000000000E+00  0.00000000000E+00  0.74190069066E+02  0.74190069066E+02  0.00000000000E+00 0.  1.
         21   -1    0    0  501  502 -0.00000000000E+00 -0.00000000000E+00 -0.70134446085E+03  0.70134446085E+03  0.00000000000E+00 0.  1.
      99926    2    1    2    0    0  0.71054273576E-14 -0.14210854715E-13 -0.62715439179E+03  0.77553452992E+03  0.45621395853E+03 0.  0.
      99925    2    3    3    0    0  0.35023541357E+02 -0.10849764398E+03 -0.40920634018E+03  0.49958662089E+03  0.26294215282E+03 0.  0.
         25    1    4    4    0    0 -0.61875377985E+01 -0.83509410174E+02 -0.24577582982E+03  0.28821064143E+03  0.12509000000E+03 0.  0.
         25    1    3    3    0    0 -0.35023541357E+02  0.10849764398E+03 -0.21794805160E+03  0.27594790903E+03  0.12509000000E+03 0.  0.
         25    1    4    4    0    0  0.41211079155E+02 -0.24988233809E+02 -0.16343051036E+03  0.21137597945E+03  0.12509000000E+03 0.  0.
<mgrwt>
<rscale>  2 0.45621396E+03</rscale>
<asrwt>0</asrwt>
<pdfrwt beam="1">  1       21 0.10910304E-01 0.45621396E+03</pdfrwt>
<pdfrwt beam="2">  1       21 0.10313889E+00 0.45621396E+03</pdfrwt>
<totfact> 0.48507079E+04</totfact>
</mgrwt>
</event>
<event>
 6    0  0.4748297E-002  0.4633691E+03  0.7546771E-02  0.1023809E+00
         21   -1    0    0  502  501  0.00000000000E+00  0.00000000000E+00  0.12194022279E+03  0.12194022279E+03  0.00000000000E+00 0.  1.
         21   -1    0    0  501  502 -0.00000000000E+00 -0.00000000000E+00 -0.44019708399E+03  0.44019708399E+03  0.00000000000E+00 0.  1.
      99926    2    1    2    0    0  0.00000000000E+00  0.00000000000E+00 -0.31825686120E+03  0.56213730678E+03  0.46336909907E+03 0.  0.
         25    1    3    3    0    0 -0.76747380697E+02 -0.86132151998E+02 -0.15527983958E+03  0.23036545907E+03  0.12509000000E+03 0.  0.
         25    1    3    3    0    0  0.70133600149E+02  0.51553928132E+02 -0.12291828260E+03  0.19578800186E+03  0.12509000000E+03 0.  0.
         25    1    3    3    0    0  0.66137805476E+01  0.34578223866E+02 -0.40058739009E+02  0.13598384584E+03  0.12509000000E+03 0.  0.
<mgrwt>
<rscale>  2 0.46336910E+03</rscale>
<asrwt>0</asrwt>
<pdfrwt beam="1">  1       21 0.17932386E-01 0.46336910E+03</pdfrwt>
<pdfrwt beam="2">  1       21 0.64734865E-01 0.46336910E+03</pdfrwt>
<totfact> 0.57190634E+04</totfact>
</mgrwt>
</event>
<event>
 7    0  0.4748297E-002  0.4495447E+03  0.7546771E-02  0.1027858E+00
         21   -1    0    0  502  501  0.00000000000E+00  0.00000000000E+00  0.83462213595E+03  0.83462213595E+03  0.00000000000E+00 0.  1.
         21   -1    0    0  501  502 -0.00000000000E+00 -0.00000000000E+00 -0.60533517779E+02  0.60533517779E+02  0.00000000000E+00 0.  1.
      99926    2    1    2    0    0  0.35527136788E-14  0.00000000000E+00  0.77408861817E+03  0.89515565373E+03  0.44954472038E+03 0.  0.
      99925    2    3    3    0    0 -0.29858370900E+02 -0.78999021701E+02  0.35639144116E+03  0.45102638479E+03  0.26320633105E+03 0.  0.
         25    1    3    3    0    0  0.29858370900E+02  0.78999021701E+02  0.41769717701E+03  0.44412926894E+03  0.12509000000E+03 0.  0.
         25    1    4    4    0    0 -0.22375295214E+02 -0.66760350691E+02  0.23949315364E+03  0.27921689956E+03  0.12509000000E+03 0.  0.
         25    1    4    4    0    0 -0.74830756857E+01 -0.12238671010E+02  0.11689828752E+03  0.17180948523E+03  0.12509000000E+03 0.  0.
<mgrwt>
<rscale>  2 0.44954472E+03</rscale>
<asrwt>0</asrwt>
<pdfrwt beam="1">  1       21 0.12273854E+00 0.44954472E+03</pdfrwt>
<pdfrwt beam="2">  1       21 0.89019884E-02 0.44954472E+03</pdfrwt>
<totfact> 0.45350105E+04</totfact>
</mgrwt>
</event>
<event>
 7    0  0.4748297E-002  0.4544952E+03  0.7546771E-02  0.1026390E+00
         21   -1    0    0  502  501  0.00000000000E+00  0.00000000000E+00  0.19714364892E+03  0.19714364892E+03  0.00000000000E+00 0.  1.
         21   -1    0    0  501  502 -0.00000000000E+00 -0.00000000000E+00 -0.26194847809E+03  0.26194847809E+03  0.00000000000E+00 0.  1.
      99926    2    1    2    0    0  0.00000000000E+00  0.00000000000E+00 -0.64804829178E+02  0.45909212701E+03  0.45449523122E+03 0.  0.
      99925    2    3    3    0    0 -0.33511593907E+02  0.72993070986E+02  0.39173842141E+02  0.27768075050E+03  0.26290871791E+03 0.  0.
         25    1    3    3    0    0  0.33511593907E+02 -0.72993070986E+02 -0.10397867132E+03  0.18141137651E+03  0.12509000000E+03 0.  0.
         25    1    4    4    0    0 -0.21694620260E+02  0.78093182563E+02  0.24987753206E+02  0.15113271526E+03  0.12509000000E+03 0.  0.
         25    1    4    4    0    0 -0.11816973647E+02 -0.51001115768E+01  0.14186088935E+02  0.12654803524E+03  0.12509000000E+03 0.  0.
<mgrwt>
<rscale>  2 0.45449523E+03</rscale>
<asrwt>0</asrwt>
<pdfrwt beam="1">  1       21 0.28991713E-01 0.45449523E+03</pdfrwt>
<pdfrwt beam="2">  1       21 0.38521835E-01 0.45449523E+03</pdfrwt>
<totfact> 0.68522203E+04</totfact>
</mgrwt>
</event>
<event>
 7    0  0.4748297E-002  0.4388211E+03  0.7546771E-02  0.1031109E+00
         21   -1    0    0  502  501  0.00000000000E+00  0.00000000000E+00  0.79389373338E+02  0.79389373338E+02  0.00000000000E+00 0.  1.
         21   -1    0    0  501  502 -0.00000000000E+00 -0.00000000000E+00 -0.60639094102E+03  0.60639094102E+03  0.00000000000E+00 0.  1.
      99926    2    1    2    0    0 -0.88817841970E-15  0.00000000000E+00 -0.52700156768E+03  0.68578031436E+03  0.43882113352E+03 0.  0.
      99925    2    3    3    0    0  0.10934894473E+01 -0.96976068493E+02 -0.33853268307E+03  0.43966330530E+03  0.26323732817E+03 0.  0.
         25    1    3    3    0    0 -0.10934894473E+01  0.96976068493E+02 -0.18846888461E+03  0.24611700906E+03  0.12509000000E+03 0.  0.
         25    1    4    4    0    0 -0.15132251565E+02 -0.83476021443E+02 -0.15443477863E+03  0.21608988904E+03  0.12509000000E+03 0.  0.
         25    1    4    4    0    0  0.16225741012E+02 -0.13500047050E+02 -0.18409790444E+03  0.22357341626E+03  0.12509000000E+03 0.  0.
<mgrwt>
<rscale>  2 0.43882113E+03</rscale>
<asrwt>0</asrwt>
<pdfrwt beam="1">  1       21 0.11674908E-01 0.43882113E+03</pdfrwt>
<pdfrwt beam="2">  1       21 0.89175141E-01 0.43882113E+03</pdfrwt>
<totfact> 0.61100348E+04</totfact>
</mgrwt>
</event>
<event>
 7    0  0.4748297E-002  0.4511489E+03  0.7546771E-02  0.1027380E+00
         21   -1    0    0  502  501  0.00000000000E+00  0.00000000000E+00  0.94834773338E+03  0.94834773338E+03  0.00000000000E+00 0. -1.
         21   -1    0    0  501  502 -0.00000000000E+00 -0.00000000000E+00 -0.53655253643E+02  0.53655253643E+02  0.00000000000E+00 0. -1.
      99926    2    1    2    0    0  0.14210854715E-13  0.35527136788E-14  0.89469247974E+03  0.10020029870E+04  0.45114892520E+03 0.  0.
      99925    2    3    3    0    0 -0.10076850163E+03 -0.28643030371E+02  0.49468553775E+03  0.56999861685E+03  0.26307779809E+03 0.  0.
         25    1    4    4    0    0 -0.62686485507E+02 -0.39001279137E+01  0.32862918764E+03  0.35719666506E+03  0.12509000000E+03 0.  0.
         25    1    3    3    0    0  0.10076850163E+03  0.28643030371E+02  0.40000694199E+03  0.43200437017E+03  0.12509000000E+03 0.  0.
         25    1    4    4    0    0 -0.38082016120E+02 -0.24742902458E+02  0.16605635011E+03  0.21280195179E+03  0.12509000000E+03 0.  0.
<mgrwt>
<rscale>  2 0.45114893E+03</rscale>
<asrwt>0</asrwt>
<pdfrwt beam="1">  1       21 0.13946289E+00 0.45114893E+03</pdfrwt>
<pdfrwt beam="2">  1       21 0.78904791E-02 0.45114893E+03</pdfrwt>
<totfact> 0.40287049E+04</totfact>
</mgrwt>
</event>
<event>
 7    0  0.4748297E-002  0.4539721E+03  0.7546771E-02  0.1026544E+00
         21   -1    0    0  502  501  0.00000000000E+00  0.00000000000E+00  0.23591629019E+03  0.23591629019E+03  0.00000000000E+00 0. -1.
         21   -1    0    0  501  502 -0.00000000000E+00 -0.00000000000E+00 -0.21839385351E+03  0.21839385351E+03  0.00000000000E+00 0. -1.
      99926    2    1    2    0    0  0.71054273576E-14  0.00000000000E+00  0.17522436676E+02  0.45431014370E+03  0.45397210364E+03 0.  0.
      99925    2    3    3    0    0  0.59041749943E+02 -0.57536670442E+02 -0.65085223860E+02  0.28323141808E+03  0.26303526976E+03 0.  0.
         25    1    4    4    0    0  0.38815554125E+02 -0.58157427911E+02 -0.60365544943E+01  0.14343249894E+03  0.12509000000E+03 0.  0.
         25    1    4    4    0    0  0.20226195819E+02  0.62075746901E+00 -0.59048669366E+02  0.13979891913E+03  0.12509000000E+03 0.  0.
         25    1    3    3    0    0 -0.59041749943E+02  0.57536670442E+02  0.82607660536E+02  0.17107872562E+03  0.12509000000E+03 0.  0.
<mgrwt>
<rscale>  2 0.45397210E+03</rscale>
<asrwt>0</asrwt>
<pdfrwt beam="1">  1       21 0.34693572E-01 0.45397210E+03</pdfrwt>
<pdfrwt beam="2">  1       21 0.32116743E-01 0.45397210E+03</pdfrwt>
<totfact> 0.69161870E+04</totfact>
</mgrwt>
</event>
<event>
 7    0  0.4748297E-002  0.4583078E+03  0.7546771E-02  0.1025273E+00
         21   -1    0    0  502  501  0.00000000000E+00  0.00000000000E+00  0.51226053748E+03  0.51226053748E+03  0.00000000000E+00 0.  1.
         21   -1    0    0  501  502 -0.00000000000E+00 -0.00000000000E+00 -0.10250939934E+03  0.10250939934E+03  0.00000000000E+00 0.  1.
      99926    2    1    2    0    0  0.00000000000E+00  0.00000000000E+00  0.40975113814E+03  0.61476993682E+03  0.45830784415E+03 0.  0.
      99925    2    3    3    0    0 -0.95592748242E+02  0.42531737338E+02  0.18914537294E+03  0.34043194467E+03  0.26300383011E+03 0.  0.
         25    1    3    3    0    0  0.95592748242E+02 -0.42531737338E+02  0.22060576520E+03  0.27433799215E+03  0.12509000000E+03 0.  0.
         25    1    4    4    0    0 -0.16509087815E+02  0.30980129409E+02  0.11926651135E+03  0.17636418919E+03  0.12509000000E+03 0.  0.
         25    1    4    4    0    0 -0.79083660427E+02  0.11551607928E+02  0.69878861589E+02  0.16406775548E+03  0.12509000000E+03 0.  0.
<mgrwt>
<rscale>  2 0.45830784E+03</rscale>
<asrwt>0</asrwt>
<pdfrwt beam="1">  1       21 0.75332431E-01 0.45830784E+03</pdfrwt>
<pdfrwt beam="2">  1       21 0.15074912E-01 0.45830784E+03</pdfrwt>
<totfact> 0.56293085E+04</totfact>
</mgrwt>
</event>
<event>
 7    0  0.4748297E-002  0.4573897E+03  0.7546771E-02  0.1025541E+00
         21   -1    0    0  502  501  0.00000000000E+00  0.00000000000E+00  0.38701392788E+03  0.38701392788E+03  0.00000000000E+00 0.  1.
         21   -1    0    0  501  502 -0.00000000000E+00 -0.00000000000E+00 -0.13514069669E+03  0.13514069669E+03  0.00000000000E+00 0.  1.
      99926    2    1    2    0    0  0.00000000000E+00  0.00000000000E+00  0.25187323119E+03  0.52215462457E+03  0.45738968875E+03 0.  0.
      99925    2    3    3    0    0 -0.97793149372E+02 -0.59959473301E+02  0.14431080421E+03  0.32121726543E+03  0.26305186731E+03 0.  0.
         25    1    4    4    0    0 -0.58685005392E+02  0.59597979510E+01  0.88837187737E+02  0.16437458159E+03  0.12509000000E+03 0.  0.
         25    1    4    4    0    0 -0.39108143980E+02 -0.65919271252E+02  0.55473616476E+02  0.15684268384E+03  0.12509000000E+03 0.  0.
         25    1    3    3    0    0  0.97793149372E+02  0.59959473301E+02  0.10756242698E+03  0.20093735914E+03  0.12509000000E+03 0.  0.
<mgrwt>
<rscale>  2 0.45738969E+03</rscale>
<asrwt>0</asrwt>
<pdfrwt beam="1">  1       21 0.56913813E-01 0.45738969E+03</pdfrwt>
<pdfrwt beam="2">  1       21 0.19873632E-01 0.45738969E+03</pdfrwt>
<totfact> 0.62546449E+04</totfact>
</mgrwt>
</event>
<event>
 7    0  0.4748297E-002  0.4522940E+03  0.7546771E-02  0.1027040E+00
         21   -1    0    0  502  501  0.00000000000E+00  0.00000000000E+00  0.21429556493E+03  0.21429556493E+03  0.00000000000E+00 0.  1.
         21   -1    0    0  501  502 -0.00000000000E+00 -0.00000000000E+00 -0.23865386697E+03  0.23865386697E+03  0.00000000000E+00 0.  1.
      99926    2    1    2    0    0 -0.17763568394E-14 -0.14210854715E-13 -0.24358302036E+02  0.45294943190E+03  0.45229399839E+03 0.  0.
      99925    2    3    3    0    0  0.77489707507E+01 -0.10998988021E+03 -0.27508884982E+02  0.28617037275E+03  0.26263838864E+03 0.  0.
         25    1    4    4    0    0  0.33570686933E+02 -0.76765009835E+02  0.35041531328E+01  0.15059762596E+03  0.12509000000E+03 0.  0.
         25    1    3    3    0    0 -0.77489707507E+01  0.10998988021E+03  0.31505829458E+01  0.16677905915E+03  0.12509000000E+03 0.  0.
         25    1    4    4    0    0 -0.25821716183E+02 -0.33224870379E+02 -0.31013038115E+02  0.13557274679E+03  0.12509000000E+03 0.  0.
<mgrwt>
<rscale>  2 0.45229400E+03</rscale>
<asrwt>0</asrwt>
<pdfrwt beam="1">  1       21 0.31514054E-01 0.45229400E+03</pdfrwt>
<pdfrwt beam="2">  1       21 0.35096157E-01 0.45229400E+03</pdfrwt>
<totfact> 0.70199774E+04</totfact>
</mgrwt>
</event>
<event>
 7    0  0.4748297E-002  0.4544796E+03  0.7546771E-02  0.1026395E+00
         21   -1    0    0  502  501  0.00000000000E+00  0.00000000000E+00  0.85058004030E+03  0.85058004030E+03  0.00000000000E+00 0. -1.
         21   -1    0    0  501  502 -0.00000000000E+00 -0.00000000000E+00 -0.60709073140E+02  0.60709073140E+02  0.00000000000E+00 0. -1.
      99926    2    1    2    0    0  0.00000000000E+00  0.00000000000E+00  0.78987096716E+03  0.91128911344E+03  0.45447959637E+03 0.  0.
      99925    2    3    3    0    0  0.60498601715E+02  0.81357223690E+02  0.59588015934E+03  0.65917996987E+03  0.26299427697E+03 0.  0.
         25    1    4    4    0    0  0.45436870345E+02  0.30833860804E+01  0.26414700280E+03  0.29579581411E+03  0.12509000000E+03 0.  0.
         25    1    3    3    0    0 -0.60498601715E+02 -0.81357223690E+02  0.19399080782E+03  0.25210914357E+03  0.12509000000E+03 0.  0.
         25    1    4    4    0    0  0.15061731370E+02  0.78273837609E+02  0.33173315655E+03  0.36338415576E+03  0.12509000000E+03 0.  0.
<mgrwt>
<rscale>  2 0.45447960E+03</rscale>
<asrwt>0</asrwt>
<pdfrwt beam="1">  1       21 0.12508529E+00 0.45447960E+03</pdfrwt>
<pdfrwt beam="2">  1       21 0.89278054E-02 0.45447960E+03</pdfrwt>
<totfact> 0.42923849E+04</totfact>
</mgrwt>
</event>
<event>
 7    0  0.4748297E-002  0.4458309E+03  0.7546771E-02  0.1028973E+00
         21   -1    0    0  502  501  0.00000000000E+00  0.00000000000E+00  0.57564252005E+03  0.57564252005E+03  0.00000000000E+00 0.  1.
         21   -1    0    0  501  502 -0.00000000000E+00 -0.00000000000E+00 -0.86323192259E+02  0.86323192259E+02  0.00000000000E+00 0.  1.
      99926    2    1    2    0    0  0.00000000000E+00  0.00000000000E+00  0.48931932779E+03  0.66196571231E+03  0.44583090934E+03 0.  0.
      99925    2    3    3    0    0  0.68280532073E+02  0.36639588808E+02  0.41501757005E+03  0.49712351555E+03  0.26246431326E+03 0.  0.
         25    1    3    3    0    0 -0.68280532073E+02 -0.36639588808E+02  0.74301757734E+02  0.16484219675E+03  0.12509000000E+03 0.  0.
         25    1    4    4    0    0  0.74429661090E+02  0.25900272899E+02  0.21699082705E+03  0.26257023005E+03  0.12509000000E+03 0.  0.
         25    1    4    4    0    0 -0.61491290167E+01  0.10739315909E+02  0.19802674300E+03  0.23455328550E+03  0.12509000000E+03 0.  0.
<mgrwt>
<rscale>  2 0.44583091E+03</rscale>
<asrwt>0</asrwt>
<pdfrwt beam="1">  1       21 0.84653310E-01 0.44583091E+03</pdfrwt>
<pdfrwt beam="2">  1       21 0.12694587E-01 0.44583091E+03</pdfrwt>
<totfact> 0.59179167E+04</totfact>
</mgrwt>
</event>
<event>
 7    0  0.4748297E-002  0.4570882E+03  0.7546771E-02  0.1025629E+00
         21   -1    0    0  502  501  0.00000000000E+00  0.00000000000E+00  0.15884292342E+03  0.15884292342E+03  0.00000000000E+00 0. -1.
         21   -1    0    0  501  502 -0.00000000000E+00 -0.00000000000E+00 -0.32883059319E+03  0.32883059319E+03  0.00000000000E+00 0. -1.
      99926    2    1    2    0    0  0.00000000000E+00  0.00000000000E+00 -0.16998766977E+03  0.48767351661E+03  0.45708823101E+03 0.  0.
      99925    2    3    3    0    0  0.48502528984E+02 -0.15618001510E+02  0.33437722612E+01  0.26792885982E+03  0.26301763405E+03 0.  0.
         25    1    4    4    0    0  0.58079294412E+02  0.14502458399E+02 -0.35778701878E+01  0.13872215034E+03  0.12509000000E+03 0.  0.
         25    1    4    4    0    0 -0.95767654280E+01 -0.30120459909E+02  0.69216424489E+01  0.12920670948E+03  0.12509000000E+03 0.  0.
         25    1    3    3    0    0 -0.48502528984E+02  0.15618001510E+02 -0.17333144203E+03  0.21974465679E+03  0.12509000000E+03 0.  0.
<mgrwt>
<rscale>  2 0.45708823E+03</rscale>
<asrwt>0</asrwt>
<pdfrwt beam="1">  1       21 0.23359254E-01 0.45708823E+03</pdfrwt>
<pdfrwt beam="2">  1       21 0.48357440E-01 0.45708823E+03</pdfrwt>
<totfact> 0.65060385E+04</totfact>
</mgrwt>
</event>
<event>
 7    0  0.4748297E-002  0.4517226E+03  0.7546771E-02  0.1027210E+00
         21   -1    0    0  502  501  0.00000000000E+00  0.00000000000E+00  0.91526100058E+02  0.91526100058E+02  0.00000000000E+00 0.  1.
         21   -1    0    0  501  502 -0.00000000000E+00 -0.00000000000E+00 -0.55736381435E+03  0.55736381435E+03  0.00000000000E+00 0.  1.
      99926    2    1    2    0    0  0.00000000000E+00  0.00000000000E+00 -0.46583771429E+03  0.64888991441E+03  0.45172264163E+03 0.  0.
      99925    2    3    3    0    0 -0.90168953196E+02  0.52957888172E+02 -0.24460205504E+03  0.37406687486E+03  0.26298456894E+03 0.  0.
         25    1    4    4    0    0 -0.51810732426E+02  0.23607986673E+02 -0.70955053164E+02  0.15467325787E+03  0.12509000000E+03 0.  0.
         25    1    3    3    0    0  0.90168953196E+02 -0.52957888172E+02 -0.22123565925E+03  0.27482303955E+03  0.12509000000E+03 0.  0.
         25    1    4    4    0    0 -0.38358220770E+02  0.29349901498E+02 -0.17364700188E+03  0.21939361700E+03  0.12509000000E+03 0.  0.
<mgrwt>
<rscale>  2 0.45172264E+03</rscale>
<asrwt>0</asrwt>
<pdfrwt beam="1">  1       21 0.13459721E-01 0.45172264E+03</pdfrwt>
<pdfrwt beam="2">  1       21 0.81965263E-01 0.45172264E+03</pdfrwt>
<totfact> 0.57230911E+04</totfact>
</mgrwt>
</event>
<event>
 7    0  0.4748297E-002  0.4541897E+03  0.7546771E-02  0.1026480E+00
         21   -1    0    0  502  501  0.00000000000E+00  0.00000000000E+00  0.42433087749E+03  0.42433087749E+03  0.00000000000E+00 0. -1.
         21   -1    0    0  501  502 -0.00000000000E+00 -0.00000000000E+00 -0.12153739923E+03  0.12153739923E+03  0.00000000000E+00 0. -1.
      99926    2    1    2    0    0  0.00000000000E+00  0.71054273576E-14  0.30279347826E+03  0.54586827672E+03  0.45418970161E+03 0.  0.
      99925    2    3    3    0    0 -0.25623220276E+02  0.50390718745E+02  0.73029693589E+02  0.27822172098E+03  0.26244659633E+03 0.  0.
         25    1    3    3    0    0  0.25623220276E+02 -0.50390718745E+02  0.22976378467E+03  0.26764655574E+03  0.12509000000E+03 0.  0.
         25    1    4    4    0    0  0.87737114375E+01 -0.19071764846E+01  0.13264929613E+02  0.12611138645E+03  0.12509000000E+03 0.  0.
         25    1    4    4    0    0 -0.34396931714E+02  0.52297895230E+02  0.59764763977E+02  0.15211033453E+03  0.12509000000E+03 0.  0.
<mgrwt>
<rscale>  2 0.45418970E+03</rscale>
<asrwt>0</asrwt>
<pdfrwt beam="1">  1       21 0.62401599E-01 0.45418970E+03</pdfrwt>
<pdfrwt beam="2">  1       21 0.17873147E-01 0.45418970E+03</pdfrwt>
<totfact> 0.62540393E+04</totfact>
</mgrwt>
</event>
<event>
 7    0  0.4748297E-002  0.4540046E+03  0.7546771E-02  0.1026535E+00
         21   -1    0    0  502  501  0.00000000000E+00  0.00000000000E+00  0.34853380837E+02  0.34853380837E+02  0.00000000000E+00 0. -1.
         21   -1    0    0  501  502 -0.00000000000E+00 -0.00000000000E+00 -0.14784807999E+04  0.14784807999E+04  0.00000000000E+00 0. -1.
      99926    2    1    2    0    0  0.00000000000E+00  0.35527136788E-14 -0.14436274190E+04  0.15133341807E+04  0.45400464481E+03 0.  0.
      99925    2    3    3    0    0 -0.79068996551E+02 -0.20762314253E+02 -0.11654459003E+04  0.11975566556E+04  0.26304907698E+03 0.  0.
         25    1    4    4    0    0 -0.55581918016E+02 -0.47607825496E+02 -0.57963315820E+03  0.59747632659E+03  0.12509000000E+03 0.  0.
         25    1    3    3    0    0  0.79068996551E+02  0.20762314253E+02 -0.27818151876E+03  0.31577752514E+03  0.12509000000E+03 0.  0.
         25    1    4    4    0    0 -0.23487078535E+02  0.26845511243E+02 -0.58581274208E+03  0.60008032897E+03  0.12509000000E+03 0.  0.
<mgrwt>
<rscale>  2 0.45400464E+03</rscale>
<asrwt>0</asrwt>
<pdfrwt beam="1">  1       21 0.51254971E-02 0.45400464E+03</pdfrwt>
<pdfrwt beam="2">  1       21 0.21742365E+00 0.45400464E+03</pdfrwt>
<totfact> 0.23636404E+04</totfact>
</mgrwt>
</event>
<event>
 7    0  0.4748297E-002  0.4359240E+03  0.7546771E-02  0.1032005E+00
         21   -1    0    0  502  501  0.00000000000E+00  0.00000000000E+00  0.32754801517E+03  0.32754801517E+03  0.00000000000E+00 0. -1.
         21   -1    0    0  501  502 -0.00000000000E+00 -0.00000000000E+00 -0.14503958628E+03  0.14503958628E+03  0.00000000000E+00 0. -1.
      99926    2    1    2    0    0  0.00000000000E+00  0.00000000000E+00  0.18250842889E+03  0.47258760146E+03  0.43592397781E+03 0.  0.
      99925    2    3    3    0    0 -0.29746724867E+02 -0.18003970453E+02  0.21182347684E+03  0.33948654688E+03  0.26300745157E+03 0.  0.
         25    1    3    3    0    0  0.29746724867E+02  0.18003970453E+02 -0.29315047945E+02  0.13310105457E+03  0.12509000000E+03 0.  0.
         25    1    4    4    0    0 -0.24001558732E+02  0.14518187450E+02  0.64796040680E+02  0.14364152455E+03  0.12509000000E+03 0.  0.
         25    1    4    4    0    0 -0.57451661352E+01 -0.32522157902E+02  0.14702743616E+03  0.19584502233E+03  0.12509000000E+03 0.  0.
<mgrwt>
<rscale>  2 0.43592398E+03</rscale>
<asrwt>0</asrwt>
<pdfrwt beam="1">  1       21 0.48168826E-01 0.43592398E+03</pdfrwt>
<pdfrwt beam="2">  1       21 0.21329351E-01 0.43592398E+03</pdfrwt>
<totfact> 0.78469533E+04</totfact>
</mgrwt>
</event>
<event>
 7    0  0.4748297E-002  0.4588731E+03  0.7546771E-02  0.1025109E+00
         21   -1    0    0  502  501  0.00000000000E+00  0.00000000000E+00  0.21953848582E+03  0.21953848582E+03  0.00000000000E+00 0.  1.
         21   -1    0    0  501  502 -0.00000000000E+00 -0.00000000000E+00 -0.23978084519E+03  0.23978084519E+03  0.00000000000E+00 0.  1.
      99926    2    1    2    0    0  0.00000000000E+00 -0.14210854715E-13 -0.20242359368E+02  0.45931933101E+03  0.45887307039E+03 0.  0.
      99925    2    3    3    0    0  0.24204811882E+02  0.11217396387E+03 -0.33866665133E+02  0.28901959262E+03  0.26309029404E+03 0.  0.
         25    1    4    4    0    0  0.69954642411E+01  0.25685431801E+02  0.14011885955E+02  0.12865659320E+03  0.12509000000E+03 0.  0.
         25    1    3    3    0    0 -0.24204811882E+02 -0.11217396387E+03  0.13624305765E+02  0.17029973839E+03  0.12509000000E+03 0.  0.
         25    1    4    4    0    0  0.17209347641E+02  0.86488532071E+02 -0.47878551088E+02  0.16036299941E+03  0.12509000000E+03 0.  0.
<mgrwt>
<rscale>  2 0.45887307E+03</rscale>
<asrwt>0</asrwt>
<pdfrwt beam="1">  1       21 0.32285071E-01 0.45887307E+03</pdfrwt>
<pdfrwt beam="2">  1       21 0.35261889E-01 0.45887307E+03</pdfrwt>
<totfact> 0.66162180E+04</totfact>
</mgrwt>
</event>
<event>
 7    0  0.4748297E-002  0.4799916E+03  0.7546771E-02  0.1019137E+00
         21   -1    0    0  502  501  0.00000000000E+00  0.00000000000E+00  0.13731743562E+03  0.13731743562E+03  0.00000000000E+00 0.  1.
         21   -1    0    0  501  502 -0.00000000000E+00 -0.00000000000E+00 -0.41945141774E+03  0.41945141774E+03  0.00000000000E+00 0.  1.
      99926    2    1    2    0    0  0.00000000000E+00  0.17763568394E-14 -0.28213398212E+03  0.55676885336E+03  0.47999163764E+03 0.  0.
      99925    2    3    3    0    0  0.50754931553E+02  0.76365358879E+01 -0.28688149804E+02  0.26951169022E+03  0.26301931767E+03 0.  0.
         25    1    4    4    0    0  0.37548510587E+02 -0.31952317100E+02  0.47829759933E+00  0.13445660298E+03  0.12509000000E+03 0.  0.
         25    1    3    3    0    0 -0.50754931553E+02 -0.76365358879E+01 -0.25344583232E+03  0.28725716314E+03  0.12509000000E+03 0.  0.
         25    1    4    4    0    0  0.13206420967E+02  0.39588852988E+02 -0.29166447403E+02  0.13505508724E+03  0.12509000000E+03 0.  0.
<mgrwt>
<rscale>  2 0.47999164E+03</rscale>
<asrwt>0</asrwt>
<pdfrwt beam="1">  1       21 0.20193741E-01 0.47999164E+03</pdfrwt>
<pdfrwt beam="2">  1       21 0.61684031E-01 0.47999164E+03</pdfrwt>
<totfact> 0.50635106E+04</totfact>
</mgrwt>
</event>
<event>
 7    0  0.4748297E-002  0.4587142E+03  0.7546771E-02  0.1025155E+00
         21   -1    0    0  502  501  0.00000000000E+00  0.00000000000E+00  0.48775876208E+02  0.48775876208E+02  0.00000000000E+00 0. -1.
         21   -1    0    0  501  502 -0.00000000000E+00 -0.00000000000E+00 -0.10784977508E+04  0.10784977508E+04  0.00000000000E+00 0. -1.
      99926    2    1    2    0    0  0.00000000000E+00  0.00000000000E+00 -0.10297218746E+04  0.11272736270E+04  0.45871417151E+03 0.  0.
      99925    2    3    3    0    0  0.40037706545E+02 -0.73374352363E+02 -0.84570150751E+03  0.88958093228E+03  0.26297600981E+03 0.  0.
         25    1    4    4    0    0  0.16934392469E+02 -0.77345314347E+02 -0.48457857460E+03  0.50668824178E+03  0.12509000000E+03 0.  0.
         25    1    3    3    0    0 -0.40037706545E+02  0.73374352363E+02 -0.18402036711E+03  0.23769269475E+03  0.12509000000E+03 0.  0.
         25    1    4    4    0    0  0.23103314077E+02  0.39709619841E+01 -0.36112293292E+03  0.38289269050E+03  0.12509000000E+03 0.  0.
<mgrwt>
<rscale>  2 0.45871417E+03</rscale>
<asrwt>0</asrwt>
<pdfrwt beam="1">  1       21 0.71729229E-02 0.45871417E+03</pdfrwt>
<pdfrwt beam="2">  1       21 0.15860261E+00 0.45871417E+03</pdfrwt>
<totfact> 0.33567770E+04</totfact>
</mgrwt>
</event>
<event>
 7    0  0.4748297E-002  0.4499561E+03  0.7546771E-02  0.1027735E+00
         21   -1    0    0  502  501  0.00000000000E+00  0.00000000000E+00  0.23077192762E+03  0.23077192762E+03  0.00000000000E+00 0. -1.
         21   -1    0    0  501  502 -0.00000000000E+00 -0.00000000000E+00 -0.21932961164E+03  0.21932961164E+03  0.00000000000E+00 0. -1.
      99926    2    1    2    0    0  0.00000000000E+00  0.00000000000E+00  0.11442315982E+02  0.45010153927E+03  0.44995607458E+03 0.  0.
      99925    2    3    3    0    0 -0.21921154622E+02 -0.91469542757E+02  0.61220261574E+02  0.28586827151E+03  0.26291735195E+03 0.  0.
         25    1    4    4    0    0 -0.10572695724E+02 -0.30133999609E+02  0.68017043517E+02  0.14592349412E+03  0.12509000000E+03 0.  0.
         25    1    4    4    0    0 -0.11348458898E+02 -0.61335543149E+02 -0.67967819429E+01  0.13994477739E+03  0.12509000000E+03 0.  0.
         25    1    3    3    0    0  0.21921154622E+02  0.91469542757E+02 -0.49777945593E+02  0.16423326776E+03  0.12509000000E+03 0.  0.
<mgrwt>
<rscale>  2 0.44995607E+03</rscale>
<asrwt>0</asrwt>
<pdfrwt beam="1">  1       21 0.33937048E-01 0.44995607E+03</pdfrwt>
<pdfrwt beam="2">  1       21 0.32254355E-01 0.44995607E+03</pdfrwt>
<totfact> 0.71750582E+04</totfact>
</mgrwt>
</event>
<event>
 7    0  0.4748297E-002  0.4551812E+03  0.7546771E-02  0.1026188E+00
         21   -1    0    0  502  501  0.00000000000E+00  0.00000000000E+00  0.44096365840E+03  0.44096365840E+03  0.00000000000E+00 0. -1.
         21   -1    0    0  501  502 -0.00000000000E+00 -0.00000000000E+00 -0.11746429430E+03  0.11746429430E+03  0.00000000000E+00 0. -1.
      99926    2    1    2    0    0  0.14210854715E-13  0.71054273576E-14  0.32349936410E+03  0.55842795270E+03  0.45518121642E+03 0.  0.
      99925    2    3    3    0    0 -0.76331553012E+02 -0.52527303955E+02  0.12381478997E+03  0.30523423064E+03  0.26315814578E+03 0.  0.
         25    1    3    3    0    0  0.76331553012E+02  0.52527303955E+02  0.19968457413E+03  0.25319372206E+03  0.12509000000E+03 0.  0.
         25    1    4    4    0    0 -0.61692232652E+02 -0.54975050227E+02  0.44530392044E+02  0.15639262013E+03  0.12509000000E+03 0.  0.
         25    1    4    4    0    0 -0.14639320360E+02  0.24477462723E+01  0.79284397928E+02  0.14884161050E+03  0.12509000000E+03 0.  0.
<mgrwt>
<rscale>  2 0.45518122E+03</rscale>
<asrwt>0</asrwt>
<pdfrwt beam="1">  1       21 0.64847596E-01 0.45518122E+03</pdfrwt>
<pdfrwt beam="2">  1       21 0.17274161E-01 0.45518122E+03</pdfrwt>
<totfact> 0.61225187E+04</totfact>
</mgrwt>
</event>
<event>
 7    0  0.4748297E-002  0.4535487E+03  0.7546771E-02  0.1026669E+00
         21   -1    0    0  502  501  0.00000000000E+00  0.00000000000E+00  0.22569315305E+03  0.22569315305E+03  0.00000000000E+00 0.  1.
         21   -1    0    0  501  502 -0.00000000000E+00 -0.00000000000E+00 -0.22786074579E+03  0.22786074579E+03  0.00000000000E+00 0.  1.
      99926    2    1    2    0    0  0.00000000000E+00  0.22204460493E-14 -0.21675927476E+01  0.45355389884E+03  0.45354871921E+03 0.  0.
      99925    2    3    3    0    0 -0.60016689169E+02 -0.24187186424E+01 -0.95711553290E+02  0.28620446253E+03  0.26295330339E+03 0.  0.
         25    1    3    3    0    0  0.60016689169E+02  0.24187186424E+01  0.93543960542E+02  0.16734943631E+03  0.12509000000E+03 0.  0.
         25    1    4    4    0    0 -0.56743368923E+02  0.25915803910E+02 -0.34119703985E+02  0.14388572239E+03  0.12509000000E+03 0.  0.
         25    1    4    4    0    0 -0.32733202461E+01 -0.28334522553E+02 -0.61591849305E+02  0.14231874014E+03  0.12509000000E+03 0.  0.
<mgrwt>
<rscale>  2 0.45354872E+03</rscale>
<asrwt>0</asrwt>
<pdfrwt beam="1">  1       21 0.33190170E-01 0.45354872E+03</pdfrwt>
<pdfrwt beam="2">  1       21 0.33508933E-01 0.45354872E+03</pdfrwt>
<totfact> 0.69452624E+04</totfact>
</mgrwt>
</event>
<event>
 7    0  0.4748297E-002  0.4507851E+03  0.7546771E-02  0.1027488E+00
         21   -1    0    0  502  501  0.00000000000E+00  0.00000000000E+00  0.29351703843E+04  0.29351703843E+04  0.00000000000E+00 0.  1.
         21   -1    0    0  501  502 -0.00000000000E+00 -0.00000000000E+00 -0.17307953313E+02  0.17307953313E+02  0.00000000000E+00 0.  1.
      99926    2    1    2    0    0  0.14210854715E-13  0.00000000000E+00  0.29178624310E+04  0.29524783377E+04  0.45078505734E+03 0.  0.
      99925    2    3    3    0    0 -0.71425248775E+02  0.28781535343E+02  0.23499843643E+04  0.23659095440E+04  0.26300478116E+03 0.  0.
         25    1    3    3    0    0  0.71425248775E+02 -0.28781535343E+02  0.56787806670E+03  0.58656879364E+03  0.12509000000E+03 0.  0.
         25    1    4    4    0    0 -0.32056593485E+02  0.29273201273E+02  0.15045044188E+04  0.15103197012E+04  0.12509000000E+03 0.  0.
         25    1    4    4    0    0 -0.39368655290E+02 -0.49166593020E+00  0.84547994549E+03  0.85558984278E+03  0.12509000000E+03 0.  0.
<mgrwt>
<rscale>  2 0.45078506E+03</rscale>
<asrwt>0</asrwt>
<pdfrwt beam="1">  1       21 0.43164236E+00 0.45078506E+03</pdfrwt>
<pdfrwt beam="2">  1       21 0.25452893E-02 0.45078506E+03</pdfrwt>
<totfact> 0.36385416E+03</totfact>
</mgrwt>
</event>
<event>
 7    0  0.4748297E-002  0.4435898E+03  0.7546771E-02  0.1029651E+00
         21   -1    0    0  502  501  0.00000000000E+00  0.00000000000E+00  0.78635769163E+02  0.78635769163E+02  0.00000000000E+00 0.  1.
         21   -1    0    0  501  502 -0.00000000000E+00 -0.00000000000E+00 -0.62558026953E+03  0.62558026953E+03  0.00000000000E+00 0.  1.
      99926    2    1    2    0    0  0.00000000000E+00  0.00000000000E+00 -0.54694450037E+03  0.70421603870E+03  0.44358983608E+03 0.  0.
      99925    2    3    3    0    0  0.40404499593E+02 -0.92390851648E+02 -0.32314996637E+03  0.42871632072E+03  0.26306499165E+03 0.  0.
         25    1    4    4    0    0  0.22914944144E+02 -0.19448773569E+02 -0.20010107281E+03  0.23788925343E+03  0.12509000000E+03 0.  0.
         25    1    3    3    0    0 -0.40404499593E+02  0.92390851648E+02 -0.22379453400E+03  0.27549971797E+03  0.12509000000E+03 0.  0.
         25    1    4    4    0    0  0.17489555449E+02 -0.72942078079E+02 -0.12304889356E+03  0.19082706729E+03  0.12509000000E+03 0.  0.
<mgrwt>
<rscale>  2 0.44358984E+03</rscale>
<asrwt>0</asrwt>
<pdfrwt beam="1">  1       21 0.11564083E-01 0.44358984E+03</pdfrwt>
<pdfrwt beam="2">  1       21 0.91997101E-01 0.44358984E+03</pdfrwt>
<totfact> 0.57681669E+04</totfact>
</mgrwt>
</event>
<event>
 7    0  0.4748297E-002  0.4693739E+03  0.7546771E-02  0.1022097E+00
         21   -1    0    0  502  501  0.00000000000E+00  0.00000000000E+00  0.11532072627E+04  0.11532072627E+04  0.00000000000E+00 0.  1.
         21   -1    0    0  501  502 -0.00000000000E+00 -0.00000000000E+00 -0.47760672924E+02  0.47760672924E+02  0.00000000000E+00 0.  1.
      99926    2    1    2    0    0  0.00000000000E+00 -0.14210854715E-13  0.11054465898E+04  0.12009679356E+04  0.46937385904E+03 0.  0.
      99925    2    3    3    0    0 -0.17823898825E+02 -0.11435912462E+03  0.81557230946E+03  0.86470864989E+03  0.26299649518E+03 0.  0.
         25    1    3    3    0    0  0.17823898825E+02  0.11435912462E+03  0.28987428029E+03  0.33625928571E+03  0.12509000000E+03 0.  0.
         25    1    4    4    0    0 -0.13294288158E+02 -0.91685843988E+02  0.37197101840E+03  0.40322819683E+03  0.12509000000E+03 0.  0.
         25    1    4    4    0    0 -0.45296106674E+01 -0.22673280635E+02  0.44360129106E+03  0.46148045306E+03  0.12509000000E+03 0.  0.
<mgrwt>
<rscale>  2 0.46937386E+03</rscale>
<asrwt>0</asrwt>
<pdfrwt beam="1">  1       21 0.16958928E+00 0.46937386E+03</pdfrwt>
<pdfrwt beam="2">  1       21 0.70236291E-02 0.46937386E+03</pdfrwt>
<totfact> 0.28766689E+04</totfact>
</mgrwt>
</event>
<event>
 7    0  0.4748297E-002  0.4524055E+03  0.7546771E-02  0.1027007E+00
         21   -1    0    0  502  501  0.00000000000E+00  0.00000000000E+00  0.54504510525E+02  0.54504510525E+02  0.00000000000E+00 0. -1.
         21   -1    0    0  501  502 -0.00000000000E+00 -0.00000000000E+00 -0.93877873917E+03  0.93877873917E+03  0.00000000000E+00 0. -1.
      99926    2    1    2    0    0 -0.71054273576E-14  0.17763568394E-14 -0.88427422864E+03  0.99328324969E+03  0.45240546270E+03 0.  0.
      99925    2    3    3    0    0 -0.53154402415E+02 -0.60083883200E+01 -0.34522267170E+03  0.43732859293E+03  0.26308955494E+03 0.  0.
         25    1    4    4    0    0 -0.54876089637E+01 -0.34027847360E+02 -0.19447166696E+03  0.23378354433E+03  0.12509000000E+03 0.  0.
         25    1    4    4    0    0 -0.47666793452E+02  0.28019459040E+02 -0.15075100474E+03  0.20354504861E+03  0.12509000000E+03 0.  0.
         25    1    3    3    0    0  0.53154402415E+02  0.60083883200E+01 -0.53905155695E+03  0.55595465676E+03  0.12509000000E+03 0.  0.
<mgrwt>
<rscale>  2 0.45240546E+03</rscale>
<asrwt>0</asrwt>
<pdfrwt beam="1">  1       21 0.80153692E-02 0.45240546E+03</pdfrwt>
<pdfrwt beam="2">  1       21 0.13805570E+00 0.45240546E+03</pdfrwt>
<totfact> 0.40238290E+04</totfact>
</mgrwt>
</event>
<event>
 7    0  0.4748297E-002  0.4620037E+03  0.7546771E-02  0.1024202E+00
         21   -1    0    0  502  501  0.00000000000E+00  0.00000000000E+00  0.63384341012E+02  0.63384341012E+02  0.00000000000E+00 0.  1.
         21   -1    0    0  501  502 -0.00000000000E+00 -0.00000000000E+00 -0.84187772969E+03  0.84187772969E+03  0.00000000000E+00 0.  1.
      99926    2    1    2    0    0  0.00000000000E+00  0.00000000000E+00 -0.77849338868E+03  0.90526207070E+03  0.46200374505E+03 0.  0.
      99925    2    3    3    0    0 -0.34574895977E+02  0.68547550098E+02 -0.66647734557E+03  0.72062921320E+03  0.26309735974E+03 0.  0.
         25    1    4    4    0    0 -0.25949455353E+02  0.14568016204E+02 -0.23248932732E+03  0.26567724168E+03  0.12509000000E+03 0.  0.
         25    1    3    3    0    0  0.34574895977E+02 -0.68547550098E+02 -0.11201604311E+03  0.18463285751E+03  0.12509000000E+03 0.  0.
         25    1    4    4    0    0 -0.86254406235E+01  0.53979533895E+02 -0.43398801825E+03  0.45495197152E+03  0.12509000000E+03 0.  0.
<mgrwt>
<rscale>  2 0.46200375E+03</rscale>
<asrwt>0</asrwt>
<pdfrwt beam="1">  1       21 0.93212275E-02 0.46200375E+03</pdfrwt>
<pdfrwt beam="2">  1       21 0.12380554E+00 0.46200375E+03</pdfrwt>
<totfact> 0.40727454E+04</totfact>
</mgrwt>
</event>
<event>
 7    0  0.4748297E-002  0.4473367E+03  0.7546771E-02  0.1028519E+00
         21   -1    0    0  502  501  0.00000000000E+00  0.00000000000E+00  0.25371760334E+03  0.25371760334E+03  0.00000000000E+00 0.  1.
         21   -1    0    0  501  502 -0.00000000000E+00 -0.00000000000E+00 -0.19717799546E+03  0.19717799546E+03  0.00000000000E+00 0.  1.
      99926    2    1    2    0    0  0.00000000000E+00  0.00000000000E+00  0.56539607885E+02  0.45089559880E+03  0.44733668948E+03 0.  0.
      99925    2    3    3    0    0 -0.36205150469E+02  0.24093537189E+02 -0.61479196538E+02  0.27350547012E+03  0.26293390638E+03 0.  0.
         25    1    4    4    0    0 -0.46187590969E+02  0.30783292345E+02 -0.84605477822E+01  0.13711306873E+03  0.12509000000E+03 0.  0.
         25    1    4    4    0    0  0.99824405007E+01 -0.66897551555E+01 -0.53018648756E+02  0.13639240140E+03  0.12509000000E+03 0.  0.
         25    1    3    3    0    0  0.36205150469E+02 -0.24093537189E+02  0.11801880442E+03  0.17739012868E+03  0.12509000000E+03 0.  0.
<mgrwt>
<rscale>  2 0.44733669E+03</rscale>
<asrwt>0</asrwt>
<pdfrwt beam="1">  1       21 0.37311412E-01 0.44733669E+03</pdfrwt>
<pdfrwt beam="2">  1       21 0.28996764E-01 0.44733669E+03</pdfrwt>
<totfact> 0.73222854E+04</totfact>
</mgrwt>
</event>
<event>
 7    0  0.4748297E-002  0.4578060E+03  0.7546771E-02  0.1025419E+00
         21   -1    0    0  502  501  0.00000000000E+00  0.00000000000E+00  0.24624228538E+03  0.24624228538E+03  0.00000000000E+00 0.  1.
         21   -1    0    0  501  502 -0.00000000000E+00 -0.00000000000E+00 -0.21278465224E+03  0.21278465224E+03  0.00000000000E+00 0.  1.
      99926    2    1    2    0    0  0.66613381478E-15  0.00000000000E+00  0.33457633135E+02  0.45902693762E+03  0.45780598100E+03 0.  0.
      99925    2    3    3    0    0  0.48500576764E+00 -0.10949236683E+03  0.58614742829E+02  0.29089246199E+03  0.26304737737E+03 0.  0.
         25    1    4    4    0    0  0.14719728901E+02 -0.13852890543E+02  0.22086636796E+02  0.12862309521E+03  0.12509000000E+03 0.  0.
         25    1    4    4    0    0 -0.14234723134E+02 -0.95639476288E+02  0.36528106034E+02  0.16226936679E+03  0.12509000000E+03 0.  0.
         25    1    3    3    0    0 -0.48500576764E+00  0.10949236683E+03 -0.25157109695E+02  0.16813447562E+03  0.12509000000E+03 0.  0.
<mgrwt>
<rscale>  2 0.45780598E+03</rscale>
<asrwt>0</asrwt>
<pdfrwt beam="1">  1       21 0.36212101E-01 0.45780598E+03</pdfrwt>
<pdfrwt beam="2">  1       21 0.31291861E-01 0.45780598E+03</pdfrwt>
<totfact> 0.66744956E+04</totfact>
</mgrwt>
</event>
<event>
 7    0  0.4748297E-002  0.4520612E+03  0.7546771E-02  0.1027109E+00
         21   -1    0    0  502  501  0.00000000000E+00  0.00000000000E+00  0.94626361002E+02  0.94626361002E+02  0.00000000000E+00 0.  1.
         21   -1    0    0  501  502 -0.00000000000E+00 -0.00000000000E+00 -0.53991116930E+03  0.53991116930E+03  0.00000000000E+00 0.  1.
      99926    2    1    2    0    0  0.71054273576E-14  0.71054273576E-14 -0.44528480830E+03  0.63453753030E+03  0.45206118708E+03 0.  0.
      99925    2    3    3    0    0 -0.48864831230E+02 -0.54665329500E+02 -0.16509543640E+03  0.31905431014E+03  0.26298874447E+03 0.  0.
         25    1    3    3    0    0  0.48864831230E+02  0.54665329500E+02 -0.28018937190E+03  0.31548322016E+03  0.12509000000E+03 0.  0.
         25    1    4    4    0    0 -0.14181318222E+02 -0.35693541076E+02 -0.37671022466E+02  0.13616810454E+03  0.12509000000E+03 0.  0.
         25    1    4    4    0    0 -0.34683513008E+02 -0.18971788424E+02 -0.12742441393E+03  0.18288620559E+03  0.12509000000E+03 0.  0.
<mgrwt>
<rscale>  2 0.45206119E+03</rscale>
<asrwt>0</asrwt>
<pdfrwt beam="1">  1       21 0.13915641E-01 0.45206119E+03</pdfrwt>
<pdfrwt beam="2">  1       21 0.79398700E-01 0.45206119E+03</pdfrwt>
<totfact> 0.57933325E+04</totfact>
</mgrwt>
</event>
<event>
 7    0  0.4748297E-002  0.4662284E+03  0.7546771E-02  0.1022990E+00
         21   -1    0    0  502  501  0.00000000000E+00  0.00000000000E+00  0.17239322282E+03  0.17239322282E+03  0.00000000000E+00 0. -1.
         21   -1    0    0  501  502 -0.00000000000E+00 -0.00000000000E+00 -0.31522251703E+03  0.31522251703E+03  0.00000000000E+00 0. -1.
      99926    2    1    2    0    0  0.00000000000E+00 -0.14210854715E-13 -0.14282929421E+03  0.48761573985E+03  0.46622838015E+03 0.  0.
      99925    2    3    3    0    0 -0.62607576927E+02 -0.77760790278E+02 -0.16484305692E+03  0.32606524297E+03  0.26301874470E+03 0.  0.
         25    1    4    4    0    0 -0.56452456608E+02 -0.61744599508E+02 -0.60220918415E+02  0.16209053810E+03  0.12509000000E+03 0.  0.
         25    1    3    3    0    0  0.62607576927E+02  0.77760790278E+02  0.22013762708E+02  0.16155049688E+03  0.12509000000E+03 0.  0.
         25    1    4    4    0    0 -0.61551203183E+01 -0.16016190771E+02 -0.10462213850E+03  0.16397470487E+03  0.12509000000E+03 0.  0.
<mgrwt>
<rscale>  2 0.46622838E+03</rscale>
<asrwt>0</asrwt>
<pdfrwt beam="1">  1       21 0.25351945E-01 0.46622838E+03</pdfrwt>
<pdfrwt beam="2">  1       21 0.46356252E-01 0.46622838E+03</pdfrwt>
<totfact> 0.60568792E+04</totfact>
</mgrwt>
</event>
<event>
 7    0  0.4748297E-002  0.4439217E+03  0.7546771E-02  0.1029550E+00
         21   -1    0    0  502  501  0.00000000000E+00  0.00000000000E+00  0.33501760335E+03  0.33501760335E+03  0.00000000000E+00 0. -1.
         21   -1    0    0  501  502 -0.00000000000E+00 -0.00000000000E+00 -0.14705680105E+03  0.14705680105E+03  0.00000000000E+00 0. -1.
      99926    2    1    2    0    0 -0.24424906542E-14  0.00000000000E+00  0.18796080230E+03  0.48207440441E+03  0.44392169150E+03 0.  0.
      99925    2    3    3    0    0  0.17250947642E+01 -0.33193439721E+02  0.22466577465E+03  0.34753986056E+03  0.26306741339E+03 0.  0.
         25    1    4    4    0    0  0.17263193022E+02 -0.36095950416E+02  0.15616423079E+03  0.20404830444E+03  0.12509000000E+03 0.  0.
         25    1    3    3    0    0 -0.17250947642E+01  0.33193439721E+02 -0.36704972348E+02  0.13453454384E+03  0.12509000000E+03 0.  0.
         25    1    4    4    0    0 -0.15538098257E+02  0.29025106947E+01  0.68501543863E+02  0.14349155612E+03  0.12509000000E+03 0.  0.
<mgrwt>
<rscale>  2 0.44392169E+03</rscale>
<asrwt>0</asrwt>
<pdfrwt beam="1">  1       21 0.49267295E-01 0.44392169E+03</pdfrwt>
<pdfrwt beam="2">  1       21 0.21626000E-01 0.44392169E+03</pdfrwt>
<totfact> 0.72739096E+04</totfact>
</mgrwt>
</event>
<event>
 7    0  0.4748297E-002  0.4685812E+03  0.7546771E-02  0.1022321E+00
         21   -1    0    0  502  501  0.00000000000E+00  0.00000000000E+00  0.63786164254E+02  0.63786164254E+02  0.00000000000E+00 0.  1.
         21   -1    0    0  501  502 -0.00000000000E+00 -0.00000000000E+00 -0.86056419994E+03  0.86056419994E+03  0.00000000000E+00 0.  1.
      99926    2    1    2    0    0  0.00000000000E+00  0.00000000000E+00 -0.79677803569E+03  0.92435036420E+03  0.46858121776E+03 0.  0.
      99925    2    3    3    0    0  0.74241956469E+01  0.49650081586E+02 -0.72235619523E+03  0.77038164101E+03  0.26300028656E+03 0.  0.
         25    1    4    4    0    0  0.35725184902E+02  0.12848550563E+02 -0.29465661408E+03  0.32235291593E+03  0.12509000000E+03 0.  0.
         25    1    3    3    0    0 -0.74241956469E+01 -0.49650081586E+02 -0.74421840455E+02  0.15396872319E+03  0.12509000000E+03 0.  0.
         25    1    4    4    0    0 -0.28300989255E+02  0.36801531024E+02 -0.42769958115E+03  0.44802872508E+03  0.12509000000E+03 0.  0.
<mgrwt>
<rscale>  2 0.46858122E+03</rscale>
<asrwt>0</asrwt>
<pdfrwt beam="1">  1       21 0.93803190E-02 0.46858122E+03</pdfrwt>
<pdfrwt beam="2">  1       21 0.12655355E+00 0.46858122E+03</pdfrwt>
<totfact> 0.37994948E+04</totfact>
</mgrwt>
</event>
<event>
 7    0  0.4748297E-002  0.4554816E+03  0.7546771E-02  0.1026100E+00
         21   -1    0    0  502  501  0.00000000000E+00  0.00000000000E+00  0.10218227246E+04  0.10218227246E+04  0.00000000000E+00 0.  1.
         21   -1    0    0  501  502 -0.00000000000E+00 -0.00000000000E+00 -0.50758192454E+02  0.50758192454E+02  0.00000000000E+00 0.  1.
      99926    2    1    2    0    0  0.00000000000E+00 -0.14210854715E-13  0.97106453216E+03  0.10725809171E+04  0.45548161109E+03 0.  0.
      99925    2    3    3    0    0 -0.43130256347E+02  0.90741040298E+02  0.48573088263E+03  0.56141517597E+03  0.26297975979E+03 0.  0.
         25    1    3    3    0    0  0.43130256347E+02 -0.90741040298E+02  0.48533364953E+03  0.51116574110E+03  0.12509000000E+03 0.  0.
         25    1    4    4    0    0 -0.65737659207E+01  0.47936095045E+02  0.31529055311E+03  0.34263205423E+03  0.12509000000E+03 0.  0.
         25    1    4    4    0    0 -0.36556490426E+02  0.42804945253E+02  0.17044032952E+03  0.21878312174E+03  0.12509000000E+03 0.  0.
<mgrwt>
<rscale>  2 0.45548161E+03</rscale>
<asrwt>0</asrwt>
<pdfrwt beam="1">  1       21 0.15026803E+00 0.45548161E+03</pdfrwt>
<pdfrwt beam="2">  1       21 0.74644407E-02 0.45548161E+03</pdfrwt>
<totfact> 0.36322890E+04</totfact>
</mgrwt>
</event>
<event>
 7    0  0.4748297E-002  0.4534492E+03  0.7546771E-02  0.1026698E+00
         21   -1    0    0  502  501  0.00000000000E+00  0.00000000000E+00  0.10792157298E+03  0.10792157298E+03  0.00000000000E+00 0.  1.
         21   -1    0    0  501  502 -0.00000000000E+00 -0.00000000000E+00 -0.47630923190E+03  0.47630923190E+03  0.00000000000E+00 0.  1.
      99926    2    1    2    0    0  0.00000000000E+00  0.00000000000E+00 -0.36838765893E+03  0.58423080488E+03  0.45344918803E+03 0.  0.
      99925    2    3    3    0    0  0.98760336040E+02  0.46035523855E+02 -0.26402465093E+03  0.38824096084E+03  0.26296226714E+03 0.  0.
         25    1    4    4    0    0  0.50730117133E+02  0.57728956924E+02 -0.10808149184E+03  0.18230549698E+03  0.12509000000E+03 0.  0.
         25    1    4    4    0    0  0.48030218907E+02 -0.11693433069E+02 -0.15594315910E+03  0.20593546386E+03  0.12509000000E+03 0.  0.
         25    1    3    3    0    0 -0.98760336040E+02 -0.46035523855E+02 -0.10436300799E+03  0.19598984404E+03  0.12509000000E+03 0.  0.
<mgrwt>
<rscale>  2 0.45344919E+03</rscale>
<asrwt>0</asrwt>
<pdfrwt beam="1">  1       21 0.15870820E-01 0.45344919E+03</pdfrwt>
<pdfrwt beam="2">  1       21 0.70045474E-01 0.45344919E+03</pdfrwt>
<totfact> 0.60396543E+04</totfact>
</mgrwt>
</event>
<event>
 7    0  0.4748297E-002  0.4438720E+03  0.7546771E-02  0.1029565E+00
         21   -1    0    0  502  501  0.00000000000E+00  0.00000000000E+00  0.91282503583E+03  0.91282503583E+03  0.00000000000E+00 0. -1.
         21   -1    0    0  501  502 -0.00000000000E+00 -0.00000000000E+00 -0.53959509669E+02  0.53959509669E+02  0.00000000000E+00 0. -1.
      99926    2    1    2    0    0  0.00000000000E+00  0.00000000000E+00  0.85886552616E+03  0.96678454550E+03  0.44387201465E+03 0.  0.
      99925    2    3    3    0    0 -0.10049997823E+03 -0.16022588563E+02  0.57059009466E+03  0.63647075306E+03  0.26299238470E+03 0.  0.
         25    1    4    4    0    0 -0.45922078296E+02  0.69143049683E+01  0.36514750845E+03  0.38876323889E+03  0.12509000000E+03 0.  0.
         25    1    3    3    0    0  0.10049997823E+03  0.16022588563E+02  0.28827543150E+03  0.33031379244E+03  0.12509000000E+03 0.  0.
         25    1    4    4    0    0 -0.54577899930E+02 -0.22936893531E+02  0.20544258621E+03  0.24770751417E+03  0.12509000000E+03 0.  0.
<mgrwt>
<rscale>  2 0.44387201E+03</rscale>
<asrwt>0</asrwt>
<pdfrwt beam="1">  1       21 0.13423897E+00 0.44387201E+03</pdfrwt>
<pdfrwt beam="2">  1       21 0.79352226E-02 0.44387201E+03</pdfrwt>
<totfact> 0.44189602E+04</totfact>
</mgrwt>
</event>
<event>
 7    0  0.4748297E-002  0.4672176E+03  0.7546771E-02  0.1022708E+00
         21   -1    0    0  502  501  0.00000000000E+00  0.00000000000E+00  0.20785784550E+04  0.20785784550E+04  0.00000000000E+00 0.  1.
         21   -1    0    0  501  502 -0.00000000000E+00 -0.00000000000E+00 -0.26255002777E+02  0.26255002777E+02  0.00000000000E+00 0.  1.
      99926    2    1    2    0    0  0.00000000000E+00 -0.35527136788E-14  0.20523234523E+04  0.21048334578E+04  0.46721764996E+03 0.  0.
      99925    2    3    3    0    0  0.10919935812E+03 -0.16961882805E+02  0.10254102082E+04  0.10644438557E+04  0.26336746487E+03 0.  0.
         25    1    4    4    0    0  0.80430739533E+02 -0.31666284202E+02  0.46068794755E+03  0.48513168371E+03  0.12509000000E+03 0.  0.
         25    1    4    4    0    0  0.28768618586E+02  0.14704401397E+02  0.56472226068E+03  0.57931217201E+03  0.12509000000E+03 0.  0.
         25    1    3    3    0    0 -0.10919935812E+03  0.16961882805E+02  0.10269132440E+04  0.10403896021E+04  0.12509000000E+03 0.  0.
<mgrwt>
<rscale>  2 0.46721765E+03</rscale>
<asrwt>0</asrwt>
<pdfrwt beam="1">  1       21 0.30567319E+00 0.46721765E+03</pdfrwt>
<pdfrwt beam="2">  1       21 0.38610312E-02 0.46721765E+03</pdfrwt>
<totfact> 0.10992389E+04</totfact>
</mgrwt>
</event>
<event>
 7    0  0.4748297E-002  0.4551778E+03  0.7546771E-02  0.1026189E+00
         21   -1    0    0  502  501  0.00000000000E+00  0.00000000000E+00  0.12282126308E+03  0.12282126308E+03  0.00000000000E+00 0. -1.
         21   -1    0    0  501  502 -0.00000000000E+00 -0.00000000000E+00 -0.42172422480E+03  0.42172422480E+03  0.00000000000E+00 0. -1.
      99926    2    1    2    0    0  0.00000000000E+00 -0.14210854715E-13 -0.29890296172E+03  0.54454548788E+03  0.45517777609E+03 0.  0.
      99925    2    3    3    0    0 -0.71672509772E+02 -0.76511315142E+02 -0.13580652856E+03  0.31380995830E+03  0.26275910398E+03 0.  0.
         25    1    4    4    0    0 -0.58930545175E+01 -0.10740526262E+02 -0.75786124322E+02  0.14676897402E+03  0.12509000000E+03 0.  0.
         25    1    4    4    0    0 -0.65779455254E+02 -0.65770788881E+02 -0.60020404242E+02  0.16704098428E+03  0.12509000000E+03 0.  0.
         25    1    3    3    0    0  0.71672509772E+02  0.76511315142E+02 -0.16309643316E+03  0.23073552958E+03  0.12509000000E+03 0.  0.
<mgrwt>
<rscale>  2 0.45517778E+03</rscale>
<asrwt>0</asrwt>
<pdfrwt beam="1">  1       21 0.18061951E-01 0.45517778E+03</pdfrwt>
<pdfrwt beam="2">  1       21 0.62018266E-01 0.45517778E+03</pdfrwt>
<totfact> 0.62140934E+04</totfact>
</mgrwt>
</event>
<event>
 7    0  0.4748297E-002  0.4521971E+03  0.7546771E-02  0.1027069E+00
         21   -1    0    0  502  501  0.00000000000E+00  0.00000000000E+00  0.10356483104E+03  0.10356483104E+03  0.00000000000E+00 0.  1.
         21   -1    0    0  501  502 -0.00000000000E+00 -0.00000000000E+00 -0.49360916604E+03  0.49360916604E+03  0.00000000000E+00 0.  1.
      99926    2    1    2    0    0  0.00000000000E+00  0.00000000000E+00 -0.39004433501E+03  0.59717399708E+03  0.45219708039E+03 0.  0.
      99925    2    3    3    0    0 -0.38776581011E+02 -0.10037166617E+03 -0.21149322448E+03  0.35405653210E+03  0.26277090653E+03 0.  0.
         25    1    3    3    0    0  0.38776581011E+02  0.10037166617E+03 -0.17855111053E+03  0.24311746498E+03  0.12509000000E+03 0.  0.
         25    1    4    4    0    0 -0.16102079919E+02 -0.47449423433E+02 -0.54841464276E+02  0.14548477263E+03  0.12509000000E+03 0.  0.
         25    1    4    4    0    0 -0.22674501092E+02 -0.52922242740E+02 -0.15665176020E+03  0.20857175948E+03  0.12509000000E+03 0.  0.
<mgrwt>
<rscale>  2 0.45219708E+03</rscale>
<asrwt>0</asrwt>
<pdfrwt beam="1">  1       21 0.15230123E-01 0.45219708E+03</pdfrwt>
<pdfrwt beam="2">  1       21 0.72589582E-01 0.45219708E+03</pdfrwt>
<totfact> 0.60174266E+04</totfact>
</mgrwt>
</event>
<event>
 7    0  0.4748297E-002  0.4545510E+03  0.7546771E-02  0.1026374E+00
         21   -1    0    0  502  501  0.00000000000E+00  0.00000000000E+00  0.45503699038E+02  0.45503699038E+02  0.00000000000E+00 0.  1.
         21   -1    0    0  501  502 -0.00000000000E+00 -0.00000000000E+00 -0.11351639732E+04  0.11351639732E+04  0.00000000000E+00 0.  1.
      99926    2    1    2    0    0  0.17763568394E-14  0.00000000000E+00 -0.10896602741E+04  0.11806676722E+04  0.45455103033E+03 0.  0.
      99925    2    3    3    0    0 -0.52656442225E+01  0.38502666745E+02 -0.96089153607E+03  0.99698566885E+03  0.26297851139E+03 0.  0.
         25    1    4    4    0    0  0.30381286464E+02  0.25924348422E+02 -0.39708292319E+03  0.41823133598E+03  0.12509000000E+03 0.  0.
         25    1    4    4    0    0 -0.35646930686E+02  0.12578318324E+02 -0.56380861288E+03  0.57875433288E+03  0.12509000000E+03 0.  0.
         25    1    3    3    0    0  0.52656442225E+01 -0.38502666745E+02 -0.12876873807E+03  0.18368200337E+03  0.12509000000E+03 0.  0.
<mgrwt>
<rscale>  2 0.45455103E+03</rscale>
<asrwt>0</asrwt>
<pdfrwt beam="1">  1       21 0.66917202E-02 0.45455103E+03</pdfrwt>
<pdfrwt beam="2">  1       21 0.16693589E+00 0.45455103E+03</pdfrwt>
<totfact> 0.32889663E+04</totfact>
</mgrwt>
</event>
<event>
 7    0  0.4748297E-002  0.4552791E+03  0.7546771E-02  0.1026159E+00
         21   -1    0    0  502  501  0.00000000000E+00  0.00000000000E+00  0.85512829659E+02  0.85512829659E+02  0.00000000000E+00 0. -1.
         21   -1    0    0  501  502 -0.00000000000E+00 -0.00000000000E+00 -0.60598832048E+03  0.60598832048E+03  0.00000000000E+00 0. -1.
      99926    2    1    2    0    0  0.00000000000E+00  0.00000000000E+00 -0.52047549082E+03  0.69150115014E+03  0.45527914964E+03 0.  0.
      99925    2    3    3    0    0 -0.55996325867E+02  0.98600612454E+02 -0.33524310095E+03  0.44086951677E+03  0.26290744531E+03 0.  0.
         25    1    4    4    0    0 -0.20890832397E+02  0.73899922747E+02 -0.12656612150E+03  0.19381464515E+03  0.12509000000E+03 0.  0.
         25    1    4    4    0    0 -0.35105493470E+02  0.24700689707E+02 -0.20867697944E+03  0.24705487163E+03  0.12509000000E+03 0.  0.
         25    1    3    3    0    0  0.55996325867E+02 -0.98600612454E+02 -0.18523238988E+03  0.25063163337E+03  0.12509000000E+03 0.  0.
<mgrwt>
<rscale>  2 0.45527915E+03</rscale>
<asrwt>0</asrwt>
<pdfrwt beam="1">  1       21 0.12575417E-01 0.45527915E+03</pdfrwt>
<pdfrwt beam="2">  1       21 0.89115925E-01 0.45527915E+03</pdfrwt>
<totfact> 0.53249796E+04</totfact>
</mgrwt>
</event>
<event>
 7    0  0.4748297E-002  0.4452296E+03  0.7546771E-02  0.1029154E+00
         21   -1    0    0  502  501  0.00000000000E+00  0.00000000000E+00  0.68844694687E+02  0.68844694687E+02  0.00000000000E+00 0.  1.
         21   -1    0    0  501  502 -0.00000000000E+00 -0.00000000000E+00 -0.71984264725E+03  0.71984264725E+03  0.00000000000E+00 0.  1.
      99926    2    1    2    0    0  0.00000000000E+00  0.00000000000E+00 -0.65099795256E+03  0.78868734194E+03  0.44522959144E+03 0.  0.
      99925    2    3    3    0    0 -0.68392971209E+02  0.27696122124E+01 -0.27476615519E+03  0.38634029930E+03  0.26282526051E+03 0.  0.
         25    1    3    3    0    0  0.68392971209E+02 -0.27696122124E+01 -0.37623179738E+03  0.40234704264E+03  0.12509000000E+03 0.  0.
         25    1    4    4    0    0 -0.30441905626E+01 -0.26012379469E+01 -0.91834228678E+02  0.15523230074E+03  0.12509000000E+03 0.  0.
         25    1    4    4    0    0 -0.65348780646E+02  0.53708501593E+01 -0.18293192651E+03  0.23110799856E+03  0.12509000000E+03 0.  0.
<mgrwt>
<rscale>  2 0.44522959E+03</rscale>
<asrwt>0</asrwt>
<pdfrwt beam="1">  1       21 0.10124220E-01 0.44522959E+03</pdfrwt>
<pdfrwt beam="2">  1       21 0.10585921E+00 0.44522959E+03</pdfrwt>
<totfact> 0.52206670E+04</totfact>
</mgrwt>
</event>
<event>
 7    0  0.4748297E-002  0.4546137E+03  0.7546771E-02  0.1026355E+00
         21   -1    0    0  502  501  0.00000000000E+00  0.00000000000E+00  0.61815510254E+03  0.61815510254E+03  0.00000000000E+00 0.  1.
         21   -1    0    0  501  502 -0.00000000000E+00 -0.00000000000E+00 -0.83584849925E+02  0.83584849925E+02  0.00000000000E+00 0.  1.
      99926    2    1    2    0    0  0.44408920985E-15  0.00000000000E+00  0.53457025262E+03  0.70173995247E+03  0.45461368865E+03 0.  0.
      99925    2    3    3    0    0  0.26035457585E+01  0.93699908773E+02  0.24022136779E+03  0.36846045197E+03  0.26319260584E+03 0.  0.
         25    1    4    4    0    0  0.25357866538E+01  0.35824661046E+02  0.16904028726E+03  0.21333533080E+03  0.12509000000E+03 0.  0.
         25    1    3    3    0    0 -0.26035457585E+01 -0.93699908773E+02  0.29434888482E+03  0.33327950050E+03  0.12509000000E+03 0.  0.
         25    1    4    4    0    0  0.67759104692E-01  0.57875247727E+02  0.71181080535E+02  0.15512512117E+03  0.12509000000E+03 0.  0.
<mgrwt>
<rscale>  2 0.45461369E+03</rscale>
<asrwt>0</asrwt>
<pdfrwt beam="1">  1       21 0.90905160E-01 0.45461369E+03</pdfrwt>
<pdfrwt beam="2">  1       21 0.12291890E-01 0.45461369E+03</pdfrwt>
<totfact> 0.52969433E+04</totfact>
</mgrwt>
</event>
<event>
 6    0  0.4748297E-002  0.4580694E+03  0.7546771E-02  0.1025343E+00
         21   -1    0    0  502  501  0.00000000000E+00  0.00000000000E+00  0.18651536064E+03  0.18651536064E+03  0.00000000000E+00 0.  1.
         21   -1    0    0  501  502 -0.00000000000E+00 -0.00000000000E+00 -0.28124702679E+03  0.28124702679E+03  0.00000000000E+00 0.  1.
      99926    2    1    2    0    0  0.00000000000E+00  0.00000000000E+00 -0.94731666143E+02  0.46776238743E+03  0.45806938615E+03 0.  0.
         25    1    3    3    0    0  0.82544167795E+02  0.11010643632E+02 -0.11520689582E+03  0.18935393013E+03  0.12509000000E+03 0.  0.
         25    1    3    3    0    0 -0.10061435589E+01 -0.17134612528E+02 -0.70167947034E+01  0.12645691274E+03  0.12509000000E+03 0.  0.
         25    1    3    3    0    0 -0.81538024236E+02  0.61239688967E+01  0.27492024383E+02  0.15195154457E+03  0.12509000000E+03 0.  0.
<mgrwt>
<rscale>  2 0.45806939E+03</rscale>
<asrwt>0</asrwt>
<pdfrwt beam="1">  1       21 0.27428730E-01 0.45806939E+03</pdfrwt>
<pdfrwt beam="2">  1       21 0.41359856E-01 0.45806939E+03</pdfrwt>
<totfact> 0.65981094E+04</totfact>
</mgrwt>
</event>
<event>
 7    0  0.4748297E-002  0.4593168E+03  0.7546771E-02  0.1024980E+00
         21   -1    0    0  502  501  0.00000000000E+00  0.00000000000E+00  0.40883457123E+02  0.40883457123E+02  0.00000000000E+00 0. -1.
         21   -1    0    0  501  502 -0.00000000000E+00 -0.00000000000E+00 -0.12900810522E+04  0.12900810522E+04  0.00000000000E+00 0. -1.
      99926    2    1    2    0    0  0.00000000000E+00  0.00000000000E+00 -0.12491975951E+04  0.13309645094E+04  0.45931676818E+03 0.  0.
      99925    2    3    3    0    0 -0.86414987195E+02 -0.14969502534E+02 -0.10081505993E+04  0.10455826628E+04  0.26302820762E+03 0.  0.
         25    1    4    4    0    0 -0.55475672704E+02 -0.40268722854E+02 -0.44402369556E+03  0.46637288795E+03  0.12509000000E+03 0.  0.
         25    1    3    3    0    0  0.86414987195E+02  0.14969502534E+02 -0.24104699585E+03  0.28538184652E+03  0.12509000000E+03 0.  0.
         25    1    4    4    0    0 -0.30939314491E+02  0.25299220320E+02 -0.56412690370E+03  0.57920977487E+03  0.12509000000E+03 0.  0.
<mgrwt>
<rscale>  2 0.45931677E+03</rscale>
<asrwt>0</asrwt>
<pdfrwt beam="1">  1       21 0.60122740E-02 0.45931677E+03</pdfrwt>
<pdfrwt beam="2">  1       21 0.18971777E+00 0.45931677E+03</pdfrwt>
<totfact> 0.27300660E+04</totfact>
</mgrwt>
</event>
<event>
 7    0  0.4748297E-002  0.4513146E+03  0.7546771E-02  0.1027331E+00
         21   -1    0    0  502  501  0.00000000000E+00  0.00000000000E+00  0.18833075482E+03  0.18833075482E+03  0.00000000000E+00 0. -1.
         21   -1    0    0  501  502 -0.00000000000E+00 -0.00000000000E+00 -0.27038179911E+03  0.27038179911E+03  0.00000000000E+00 0. -1.
      99926    2    1    2    0    0  0.00000000000E+00  0.00000000000E+00 -0.82051044282E+02  0.45871255393E+03  0.45131456133E+03 0.  0.
      99925    2    3    3    0    0  0.10877539827E+03  0.83820100119E+01 -0.62832053794E+02  0.29162209024E+03  0.26304606283E+03 0.  0.
         25    1    4    4    0    0  0.90843745077E+02  0.14530359189E+02 -0.13635525757E+02  0.15587544072E+03  0.12509000000E+03 0.  0.
         25    1    4    4    0    0  0.17931653197E+02 -0.61483491773E+01 -0.49196528037E+02  0.13574664952E+03  0.12509000000E+03 0.  0.
         25    1    3    3    0    0 -0.10877539827E+03 -0.83820100119E+01 -0.19218990488E+02  0.16709046369E+03  0.12509000000E+03 0.  0.
<mgrwt>
<rscale>  2 0.45131456E+03</rscale>
<asrwt>0</asrwt>
<pdfrwt beam="1">  1       21 0.27695699E-01 0.45131456E+03</pdfrwt>
<pdfrwt beam="2">  1       21 0.39762029E-01 0.45131456E+03</pdfrwt>
<totfact> 0.70317012E+04</totfact>
</mgrwt>
</event>
<event>
 6    0  0.4748297E-002  0.4309036E+03  0.7546771E-02  0.1033575E+00
         21   -1    0    0  502  501  0.00000000000E+00  0.00000000000E+00  0.45543414184E+02  0.45543414184E+02  0.00000000000E+00 0.  1.
         21   -1    0    0  501  502 -0.00000000000E+00 -0.00000000000E+00 -0.10192358885E+04  0.10192358885E+04  0.00000000000E+00 0.  1.
      99926    2    1    2    0    0  0.35527136788E-14  0.00000000000E+00 -0.97369247429E+03  0.10647793027E+04  0.43090361901E+03 0.  0.
         25    1    3    3    0    0 -0.56322495212E+01  0.69139593824E+02 -0.21146359131E+03  0.25529662007E+03  0.12509000000E+03 0.  0.
         25    1    3    3    0    0  0.18636094804E+02 -0.64209723829E+02 -0.47876602295E+03  0.49933416216E+03  0.12509000000E+03 0.  0.
         25    1    3    3    0    0 -0.13003845283E+02 -0.49298699943E+01 -0.28346286002E+03  0.31014852043E+03  0.12509000000E+03 0.  0.
<mgrwt>
<rscale>  2 0.43090362E+03</rscale>
<asrwt>0</asrwt>
<pdfrwt beam="1">  1       21 0.66975610E-02 0.43090362E+03</pdfrwt>
<pdfrwt beam="2">  1       21 0.14988763E+00 0.43090362E+03</pdfrwt>
<totfact> 0.44545050E+04</totfact>
</mgrwt>
</event>
<event>
 7    0  0.4748297E-002  0.4574095E+03  0.7546771E-02  0.1025535E+00
         21   -1    0    0  502  501  0.00000000000E+00  0.00000000000E+00  0.12637589754E+03  0.12637589754E+03  0.00000000000E+00 0.  1.
         21   -1    0    0  501  502 -0.00000000000E+00 -0.00000000000E+00 -0.41389110693E+03  0.41389110693E+03  0.00000000000E+00 0.  1.
      99926    2    1    2    0    0  0.14210854715E-13 -0.14210854715E-13 -0.28751520940E+03  0.54026700447E+03  0.45740948884E+03 0.  0.
      99925    2    3    3    0    0 -0.77007697306E+02  0.69342466653E+02 -0.12045730461E+03  0.30725538507E+03  0.26297784373E+03 0.  0.
         25    1    4    4    0    0 -0.69808735506E+02  0.14749360774E+02 -0.79911613554E+02  0.16469419321E+03  0.12509000000E+03 0.  0.
         25    1    4    4    0    0 -0.71989617993E+01  0.54593105879E+02 -0.40545691059E+02  0.14256119186E+03  0.12509000000E+03 0.  0.
         25    1    3    3    0    0  0.77007697306E+02 -0.69342466653E+02 -0.16705790478E+03  0.23301161940E+03  0.12509000000E+03 0.  0.
<mgrwt>
<rscale>  2 0.45740949E+03</rscale>
<asrwt>0</asrwt>
<pdfrwt beam="1">  1       21 0.18584691E-01 0.45740949E+03</pdfrwt>
<pdfrwt beam="2">  1       21 0.60866338E-01 0.45740949E+03</pdfrwt>
<totfact> 0.61336309E+04</totfact>
</mgrwt>
</event>
<event>
 7    0  0.4748297E-002  0.4583599E+03  0.7546771E-02  0.1025258E+00
         21   -1    0    0  502  501  0.00000000000E+00  0.00000000000E+00  0.24576142402E+03  0.24576142402E+03  0.00000000000E+00 0.  1.
         21   -1    0    0  501  502 -0.00000000000E+00 -0.00000000000E+00 -0.21371719544E+03  0.21371719544E+03  0.00000000000E+00 0.  1.
      99926    2    1    2    0    0  0.00000000000E+00  0.00000000000E+00  0.32044228578E+02  0.45947861946E+03  0.45835986861E+03 0.  0.
      99925    2    3    3    0    0  0.95152226194E+02 -0.62769276177E+02 -0.36919032033E+01  0.28650894756E+03  0.26283039912E+03 0.  0.
         25    1    4    4    0    0  0.39604551208E+02 -0.67570621110E+02  0.14741558893E+02  0.14832104022E+03  0.12509000000E+03 0.  0.
         25    1    3    3    0    0 -0.95152226194E+02  0.62769276177E+02  0.35736131781E+02  0.17296967190E+03  0.12509000000E+03 0.  0.
         25    1    4    4    0    0  0.55547674986E+02  0.48013449334E+01 -0.18433462096E+02  0.13818790734E+03  0.12509000000E+03 0.  0.
<mgrwt>
<rscale>  2 0.45835987E+03</rscale>
<asrwt>0</asrwt>
<pdfrwt beam="1">  1       21 0.36141386E-01 0.45835987E+03</pdfrwt>
<pdfrwt beam="2">  1       21 0.31428999E-01 0.45835987E+03</pdfrwt>
<totfact> 0.66420455E+04</totfact>
</mgrwt>
</event>
<event>
 7    0  0.4748297E-002  0.4511534E+03  0.7546771E-02  0.1027379E+00
         21   -1    0    0  502  501  0.00000000000E+00  0.00000000000E+00  0.15813328505E+04  0.15813328505E+04  0.00000000000E+00 0. -1.
         21   -1    0    0  501  502 -0.00000000000E+00 -0.00000000000E+00 -0.32178449421E+02  0.32178449421E+02  0.00000000000E+00 0. -1.
      99926    2    1    2    0    0  0.00000000000E+00  0.00000000000E+00  0.15491544011E+04  0.16135112999E+04  0.45115336260E+03 0.  0.
      99925    2    3    3    0    0 -0.91147771346E+02  0.54267211296E+02  0.88022706262E+03  0.92477031909E+03  0.26295934068E+03 0.  0.
         25    1    4    4    0    0 -0.77281136075E+02  0.18078097606E+02  0.38492985717E+03  0.41245326359E+03  0.12509000000E+03 0.  0.
         25    1    4    4    0    0 -0.13866635271E+02  0.36189113691E+02  0.49529720546E+03  0.51231705550E+03  0.12509000000E+03 0.  0.
         25    1    3    3    0    0  0.91147771346E+02 -0.54267211296E+02  0.66892733843E+03  0.68874098081E+03  0.12509000000E+03 0.  0.
<mgrwt>
<rscale>  2 0.45115336E+03</rscale>
<asrwt>0</asrwt>
<pdfrwt beam="1">  1       21 0.23254890E+00 0.45115336E+03</pdfrwt>
<pdfrwt beam="2">  1       21 0.47321260E-02 0.45115336E+03</pdfrwt>
<totfact> 0.21769172E+04</totfact>
</mgrwt>
</event>
<event>
 7    0  0.4748297E-002  0.4550333E+03  0.7546771E-02  0.1026232E+00
         21   -1    0    0  502  501  0.00000000000E+00  0.00000000000E+00  0.17483769313E+04  0.17483769313E+04  0.00000000000E+00 0.  1.
         21   -1    0    0  501  502 -0.00000000000E+00 -0.00000000000E+00 -0.29606794200E+02  0.29606794200E+02  0.00000000000E+00 0.  1.
      99926    2    1    2    0    0  0.00000000000E+00 -0.71054273576E-14  0.17187701371E+04  0.17779837255E+04  0.45503334378E+03 0.  0.
      99925    2    3    3    0    0 -0.46170954394E+02  0.56616536142E+02  0.74367420757E+03  0.79218619604E+03  0.26300276235E+03 0.  0.
         25    1    4    4    0    0 -0.36269566970E+02  0.50109176394E+02  0.29656782858E+03  0.32775966210E+03  0.12509000000E+03 0.  0.
         25    1    3    3    0    0  0.46170954394E+02 -0.56616536142E+02  0.97509592949E+03  0.98579752941E+03  0.12509000000E+03 0.  0.
         25    1    4    4    0    0 -0.99013874236E+01  0.65073597476E+01  0.44710637898E+03  0.46442653395E+03  0.12509000000E+03 0.  0.
<mgrwt>
<rscale>  2 0.45503334E+03</rscale>
<asrwt>0</asrwt>
<pdfrwt beam="1">  1       21 0.25711418E+00 0.45503334E+03</pdfrwt>
<pdfrwt beam="2">  1       21 0.43539415E-02 0.45503334E+03</pdfrwt>
<totfact> 0.17681771E+04</totfact>
</mgrwt>
</event>
<event>
 6    0  0.4748297E-002  0.4507775E+03  0.7546771E-02  0.1027490E+00
         21   -1    0    0  502  501  0.00000000000E+00  0.00000000000E+00  0.83861517185E+02  0.83861517185E+02  0.00000000000E+00 0.  1.
         21   -1    0    0  501  502 -0.00000000000E+00 -0.00000000000E+00 -0.60576160408E+03  0.60576160408E+03  0.00000000000E+00 0.  1.
      99926    2    1    2    0    0  0.71054273576E-14  0.14210854715E-13 -0.52190008689E+03  0.68962312126E+03  0.45077749354E+03 0.  0.
         25    1    3    3    0    0  0.52410783230E+02  0.38423633340E+02 -0.22600198349E+03  0.26636003912E+03  0.12509000000E+03 0.  0.
         25    1    3    3    0    0 -0.47671996138E+02 -0.89782240415E+02 -0.11803061836E+03  0.19978039163E+03  0.12509000000E+03 0.  0.
         25    1    3    3    0    0 -0.47387870921E+01  0.51358607074E+02 -0.17786748504E+03  0.22348269051E+03  0.12509000000E+03 0.  0.
<mgrwt>
<rscale>  2 0.45077749E+03</rscale>
<asrwt>0</asrwt>
<pdfrwt beam="1">  1       21 0.12332576E-01 0.45077749E+03</pdfrwt>
<pdfrwt beam="2">  1       21 0.89082590E-01 0.45077749E+03</pdfrwt>
<totfact> 0.55284939E+04</totfact>
</mgrwt>
</event>
<event>
 7    0  0.4748297E-002  0.4530533E+03  0.7546771E-02  0.1026815E+00
         21   -1    0    0  502  501  0.00000000000E+00  0.00000000000E+00  0.29055348882E+03  0.29055348882E+03  0.00000000000E+00 0.  1.
         21   -1    0    0  501  502 -0.00000000000E+00 -0.00000000000E+00 -0.17660887113E+03  0.17660887113E+03  0.00000000000E+00 0.  1.
      99926    2    1    2    0    0  0.14210854715E-13  0.00000000000E+00  0.11394461769E+03  0.46716235995E+03  0.45305330222E+03 0.  0.
      99925    2    3    3    0    0  0.69881051389E+02  0.76241177153E+02  0.11424834115E+03  0.30485500095E+03  0.26303575748E+03 0.  0.
         25    1    4    4    0    0  0.17597868687E+02  0.66309544657E+02  0.32825104462E+02  0.14639547902E+03  0.12509000000E+03 0.  0.
         25    1    4    4    0    0  0.52283182702E+02  0.99316324954E+01  0.81423236693E+02  0.15845952193E+03  0.12509000000E+03 0.  0.
         25    1    3    3    0    0 -0.69881051389E+02 -0.76241177153E+02 -0.30372346153E+00  0.16230735900E+03  0.12509000000E+03 0.  0.
<mgrwt>
<rscale>  2 0.45305330E+03</rscale>
<asrwt>0</asrwt>
<pdfrwt beam="1">  1       21 0.42728454E-01 0.45305330E+03</pdfrwt>
<pdfrwt beam="2">  1       21 0.25971893E-01 0.45305330E+03</pdfrwt>
<totfact> 0.68702212E+04</totfact>
</mgrwt>
</event>
<event>
 7    0  0.4748297E-002  0.4593088E+03  0.7546771E-02  0.1024982E+00
         21   -1    0    0  502  501  0.00000000000E+00  0.00000000000E+00  0.12880563582E+03  0.12880563582E+03  0.00000000000E+00 0.  1.
         21   -1    0    0  501  502 -0.00000000000E+00 -0.00000000000E+00 -0.40946297769E+03  0.40946297769E+03  0.00000000000E+00 0.  1.
      99926    2    1    2    0    0 -0.14210854715E-13  0.00000000000E+00 -0.28065734187E+03  0.53826861351E+03  0.45930878148E+03 0.  0.
      99925    2    3    3    0    0  0.10434887642E+03  0.52759739921E+02 -0.18159972076E+03  0.34045001336E+03  0.26316434950E+03 0.  0.
         25    1    4    4    0    0  0.91318681226E+01  0.16866921814E+02 -0.85640805714E+02  0.15280621640E+03  0.12509000000E+03 0.  0.
         25    1    4    4    0    0  0.95217008298E+02  0.35892818107E+02 -0.95958915044E+02  0.18764379696E+03  0.12509000000E+03 0.  0.
         25    1    3    3    0    0 -0.10434887642E+03 -0.52759739921E+02 -0.99057621109E+02  0.19781860015E+03  0.12509000000E+03 0.  0.
<mgrwt>
<rscale>  2 0.45930878E+03</rscale>
<asrwt>0</asrwt>
<pdfrwt beam="1">  1       21 0.18942005E-01 0.45930878E+03</pdfrwt>
<pdfrwt beam="2">  1       21 0.60215144E-01 0.45930878E+03</pdfrwt>
<totfact> 0.60555820E+04</totfact>
</mgrwt>
</event>
<event>
 7    0  0.4748297E-002  0.4511353E+03  0.7546771E-02  0.1027384E+00
         21   -1    0    0  502  501  0.00000000000E+00  0.00000000000E+00  0.80152596326E+03  0.80152596326E+03  0.00000000000E+00 0. -1.
         21   -1    0    0  501  502 -0.00000000000E+00 -0.00000000000E+00 -0.63479874291E+02  0.63479874291E+02  0.00000000000E+00 0. -1.
      99926    2    1    2    0    0  0.35527136788E-14 -0.14210854715E-13  0.73804608897E+03  0.86500583756E+03  0.45113531180E+03 0.  0.
      99925    2    3    3    0    0 -0.19643966618E+02  0.10771337313E+03  0.47299355401E+03  0.55213460116E+03  0.26294801670E+03 0.  0.
         25    1    3    3    0    0  0.19643966618E+02 -0.10771337313E+03  0.26505253496E+03  0.31287123640E+03  0.12509000000E+03 0.  0.
         25    1    4    4    0    0 -0.47399919441E+00  0.25454165640E+02  0.16030070141E+03  0.20491940415E+03  0.12509000000E+03 0.  0.
         25    1    4    4    0    0 -0.19169967424E+02  0.82259207488E+02  0.31269285260E+03  0.34721519701E+03  0.12509000000E+03 0.  0.
<mgrwt>
<rscale>  2 0.45113531E+03</rscale>
<asrwt>0</asrwt>
<pdfrwt beam="1">  1       21 0.11787146E+00 0.45113531E+03</pdfrwt>
<pdfrwt beam="2">  1       21 0.93352761E-02 0.45113531E+03</pdfrwt>
<totfact> 0.46158560E+04</totfact>
</mgrwt>
</event>
<event>
 7    0  0.4748297E-002  0.4559351E+03  0.7546771E-02  0.1025967E+00
         21   -1    0    0  502  501  0.00000000000E+00  0.00000000000E+00  0.34577179596E+03  0.34577179596E+03  0.00000000000E+00 0.  1.
         21   -1    0    0  501  502 -0.00000000000E+00 -0.00000000000E+00 -0.15029915476E+03  0.15029915476E+03  0.00000000000E+00 0.  1.
      99926    2    1    2    0    0  0.00000000000E+00 -0.39968028887E-14  0.19547264120E+03  0.49607095072E+03  0.45593512114E+03 0.  0.
      99925    2    3    3    0    0 -0.10888372568E+03 -0.37208508269E+01  0.85929818331E+02  0.29728300191E+03  0.26291393858E+03 0.  0.
         25    1    3    3    0    0  0.10888372568E+03  0.37208508269E+01  0.10954282287E+03  0.19878794881E+03  0.12509000000E+03 0.  0.
         25    1    4    4    0    0 -0.53800430663E+02 -0.32257903018E+02  0.15195845587E+02  0.14076036541E+03  0.12509000000E+03 0.  0.
         25    1    4    4    0    0 -0.55083295020E+02  0.28537052191E+02  0.70733972744E+02  0.15652263650E+03  0.12509000000E+03 0.  0.
<mgrwt>
<rscale>  2 0.45593512E+03</rscale>
<asrwt>0</asrwt>
<pdfrwt beam="1">  1       21 0.50848793E-01 0.45593512E+03</pdfrwt>
<pdfrwt beam="2">  1       21 0.22102817E-01 0.45593512E+03</pdfrwt>
<totfact> 0.65063238E+04</totfact>
</mgrwt>
</event>
<event>
 7    0  0.4748297E-002  0.4538144E+03  0.7546771E-02  0.1026591E+00
         21   -1    0    0  502  501  0.00000000000E+00  0.00000000000E+00  0.57954121481E+02  0.57954121481E+02  0.00000000000E+00 0. -1.
         21   -1    0    0  501  502 -0.00000000000E+00 -0.00000000000E+00 -0.88840747479E+03  0.88840747479E+03  0.00000000000E+00 0. -1.
      99926    2    1    2    0    0  0.00000000000E+00  0.00000000000E+00 -0.83045335331E+03  0.94636159627E+03  0.45381438813E+03 0.  0.
      99925    2    3    3    0    0  0.36303839630E+02  0.10277873724E+03 -0.57643175107E+03  0.64295441095E+03  0.26312615475E+03 0.  0.
         25    1    4    4    0    0  0.51371559264E+02  0.77957630187E+02 -0.33098806425E+03  0.36594676660E+03  0.12509000000E+03 0.  0.
         25    1    4    4    0    0 -0.15067719635E+02  0.24821107056E+02 -0.24544368682E+03  0.27700764435E+03  0.12509000000E+03 0.  0.
         25    1    3    3    0    0 -0.36303839630E+02 -0.10277873724E+03 -0.25402160224E+03  0.30340718532E+03  0.12509000000E+03 0.  0.
<mgrwt>
<rscale>  2 0.45381439E+03</rscale>
<asrwt>0</asrwt>
<pdfrwt beam="1">  1       21 0.85226652E-02 0.45381439E+03</pdfrwt>
<pdfrwt beam="2">  1       21 0.13064815E+00 0.45381439E+03</pdfrwt>
<totfact> 0.41673523E+04</totfact>
</mgrwt>
</event>
<event>
 7    0  0.4748297E-002  0.4547337E+03  0.7546771E-02  0.1026320E+00
         21   -1    0    0  502  501  0.00000000000E+00  0.00000000000E+00  0.41190487585E+03  0.41190487585E+03  0.00000000000E+00 0. -1.
         21   -1    0    0  501  502 -0.00000000000E+00 -0.00000000000E+00 -0.12550396481E+03  0.12550396481E+03  0.00000000000E+00 0. -1.
      99926    2    1    2    0    0  0.00000000000E+00  0.14210854715E-13  0.28640091103E+03  0.53740884066E+03  0.45473374647E+03 0.  0.
      99925    2    3    3    0    0  0.34726582084E+02  0.95260339249E+02  0.23897776665E+03  0.36954898703E+03  0.26301257218E+03 0.  0.
         25    1    4    4    0    0  0.46726661999E+01  0.71866327168E+02  0.16534233995E+03  0.21948166272E+03  0.12509000000E+03 0.  0.
         25    1    4    4    0    0  0.30053915884E+02  0.23394012081E+02  0.73635426700E+02  0.15006732431E+03  0.12509000000E+03 0.  0.
         25    1    3    3    0    0 -0.34726582084E+02 -0.95260339249E+02  0.47423144381E+02  0.16785985363E+03  0.12509000000E+03 0.  0.
<mgrwt>
<rscale>  2 0.45473375E+03</rscale>
<asrwt>0</asrwt>
<pdfrwt beam="1">  1       21 0.60574246E-01 0.45473375E+03</pdfrwt>
<pdfrwt beam="2">  1       21 0.18456466E-01 0.45473375E+03</pdfrwt>
<totfact> 0.62838605E+04</totfact>
</mgrwt>
</event>
<event>
 7    0  0.4748297E-002  0.4583019E+03  0.7546771E-02  0.1025275E+00
         21   -1    0    0  502  501  0.00000000000E+00  0.00000000000E+00  0.15285329411E+03  0.15285329411E+03  0.00000000000E+00 0.  1.
         21   -1    0    0  501  502 -0.00000000000E+00 -0.00000000000E+00 -0.34353298669E+03  0.34353298669E+03  0.00000000000E+00 0.  1.
      99926    2    1    2    0    0  0.00000000000E+00  0.00000000000E+00 -0.19067969258E+03  0.49638628080E+03  0.45830185970E+03 0.  0.
      99925    2    3    3    0    0  0.18928712777E+02 -0.76226687613E+02 -0.21245123761E+03  0.34708687576E+03  0.26299233239E+03 0.  0.
         25    1    3    3    0    0 -0.18928712777E+02  0.76226687613E+02  0.21771545027E+02  0.14929940504E+03  0.12509000000E+03 0.  0.
         25    1    4    4    0    0 -0.11495203157E+02 -0.77947838302E+01 -0.73855721695E+02  0.14592831829E+03  0.12509000000E+03 0.  0.
         25    1    4    4    0    0  0.30423915935E+02 -0.68431903782E+02 -0.13859551591E+03  0.20115855748E+03  0.12509000000E+03 0.  0.
<mgrwt>
<rscale>  2 0.45830186E+03</rscale>
<asrwt>0</asrwt>
<pdfrwt beam="1">  1       21 0.22478426E-01 0.45830186E+03</pdfrwt>
<pdfrwt beam="2">  1       21 0.50519556E-01 0.45830186E+03</pdfrwt>
<totfact> 0.63835547E+04</totfact>
</mgrwt>
</event>
<event>
 7    0  0.4748297E-002  0.4558119E+03  0.7546771E-02  0.1026003E+00
         21   -1    0    0  502  501  0.00000000000E+00  0.00000000000E+00  0.33184539964E+03  0.33184539964E+03  0.00000000000E+00 0.  1.
         21   -1    0    0  501  502 -0.00000000000E+00 -0.00000000000E+00 -0.15652203125E+03  0.15652203125E+03  0.00000000000E+00 0.  1.
      99926    2    1    2    0    0  0.00000000000E+00  0.71054273576E-14  0.17532336839E+03  0.48836743088E+03  0.45581187352E+03 0.  0.
      99925    2    3    3    0    0  0.37909386988E+02 -0.45519172052E+02  0.21448628110E+03  0.34452599569E+03  0.26302980873E+03 0.  0.
         25    1    4    4    0    0  0.18230780880E+02 -0.41259013068E+02  0.63308201183E+02  0.14727560547E+03  0.12509000000E+03 0.  0.
         25    1    3    3    0    0 -0.37909386988E+02  0.45519172052E+02 -0.39162912711E+02  0.14384143519E+03  0.12509000000E+03 0.  0.
         25    1    4    4    0    0  0.19678606109E+02 -0.42601589847E+01  0.15117807992E+03  0.19725039022E+03  0.12509000000E+03 0.  0.
<mgrwt>
<rscale>  2 0.45581187E+03</rscale>
<asrwt>0</asrwt>
<pdfrwt beam="1">  1       21 0.48800794E-01 0.45581187E+03</pdfrwt>
<pdfrwt beam="2">  1       21 0.23017946E-01 0.45581187E+03</pdfrwt>
<totfact> 0.65671588E+04</totfact>
</mgrwt>
</event>
<event>
 7    0  0.4748297E-002  0.4462604E+03  0.7546771E-02  0.1028843E+00
         21   -1    0    0  502  501  0.00000000000E+00  0.00000000000E+00  0.60371487523E+03  0.60371487523E+03  0.00000000000E+00 0.  1.
         21   -1    0    0  501  502 -0.00000000000E+00 -0.00000000000E+00 -0.82467885108E+02  0.82467885108E+02  0.00000000000E+00 0.  1.
      99926    2    1    2    0    0  0.35527136788E-14  0.00000000000E+00  0.52124699013E+03  0.68618276034E+03  0.44626041262E+03 0.  0.
      99925    2    3    3    0    0  0.29618707633E+02  0.67161318086E+02  0.44561759983E+03  0.52261252079E+03  0.26298458343E+03 0.  0.
         25    1    4    4    0    0  0.53655874170E+02  0.45833455175E+02  0.24605396729E+03  0.28490300343E+03  0.12509000000E+03 0.  0.
         25    1    4    4    0    0 -0.24037166538E+02  0.21327862911E+02  0.19956363254E+03  0.23770951736E+03  0.12509000000E+03 0.  0.
         25    1    3    3    0    0 -0.29618707633E+02 -0.67161318086E+02  0.75629390296E+02  0.16357023955E+03  0.12509000000E+03 0.  0.
<mgrwt>
<rscale>  2 0.44626041E+03</rscale>
<asrwt>0</asrwt>
<pdfrwt beam="1">  1       21 0.88781597E-01 0.44626041E+03</pdfrwt>
<pdfrwt beam="2">  1       21 0.12127631E-01 0.44626041E+03</pdfrwt>
<totfact> 0.57516097E+04</totfact>
</mgrwt>
</event>
<event>
 7    0  0.4748297E-002  0.4606490E+03  0.7546771E-02  0.1024593E+00
         21   -1    0    0  502  501  0.00000000000E+00  0.00000000000E+00  0.93640124682E+03  0.93640124682E+03  0.00000000000E+00 0.  1.
         21   -1    0    0  501  502 -0.00000000000E+00 -0.00000000000E+00 -0.56652405869E+02  0.56652405869E+02  0.00000000000E+00 0.  1.
      99926    2    1    2    0    0  0.00000000000E+00  0.00000000000E+00  0.87974884095E+03  0.99305365269E+03  0.46064903556E+03 0.  0.
      99925    2    3    3    0    0  0.48389674084E+02 -0.64051258445E+02  0.73823018697E+03  0.78782411828E+03  0.26313287163E+03 0.  0.
         25    1    3    3    0    0 -0.48389674084E+02  0.64051258445E+02  0.14151865398E+03  0.20522953440E+03  0.12509000000E+03 0.  0.
         25    1    4    4    0    0  0.31456005598E+02 -0.15144612702E+02  0.46649438447E+03  0.48423481744E+03  0.12509000000E+03 0.  0.
         25    1    4    4    0    0  0.16933668487E+02 -0.48906645742E+02  0.27173580250E+03  0.30358930084E+03  0.12509000000E+03 0.  0.
<mgrwt>
<rscale>  2 0.46064904E+03</rscale>
<asrwt>0</asrwt>
<pdfrwt beam="1">  1       21 0.13770606E+00 0.46064904E+03</pdfrwt>
<pdfrwt beam="2">  1       21 0.83312367E-02 0.46064904E+03</pdfrwt>
<totfact> 0.37744939E+04</totfact>
</mgrwt>
</event>
<event>
 7    0  0.4748297E-002  0.4388300E+03  0.7546771E-02  0.1031106E+00
         21   -1    0    0  502  501  0.00000000000E+00  0.00000000000E+00  0.33303701438E+02  0.33303701438E+02  0.00000000000E+00 0.  1.
         21   -1    0    0  501  502 -0.00000000000E+00 -0.00000000000E+00 -0.14455731037E+04  0.14455731037E+04  0.00000000000E+00 0.  1.
      99926    2    1    2    0    0  0.71054273576E-14  0.00000000000E+00 -0.14122694023E+04  0.14788768052E+04  0.43882996732E+03 0.  0.
      99925    2    3    3    0    0  0.45227893153E+02 -0.14024710754E+02 -0.11886872142E+04  0.12183412840E+04  0.26293713395E+03 0.  0.
         25    1    4    4    0    0  0.42532254123E+02  0.28219742871E+02 -0.60507723166E+03  0.61997686320E+03  0.12509000000E+03 0.  0.
         25    1    3    3    0    0 -0.45227893153E+02  0.14024710754E+02 -0.22358218814E+03  0.26053552116E+03  0.12509000000E+03 0.  0.
         25    1    4    4    0    0  0.26956390308E+01 -0.42244453626E+02 -0.58360998250E+03  0.59836442082E+03  0.12509000000E+03 0.  0.
<mgrwt>
<rscale>  2 0.43882997E+03</rscale>
<asrwt>0</asrwt>
<pdfrwt beam="1">  1       21 0.48976039E-02 0.43882997E+03</pdfrwt>
<pdfrwt beam="2">  1       21 0.21258425E+00 0.43882997E+03</pdfrwt>
<totfact> 0.27610324E+04</totfact>
</mgrwt>
</event>
<event>
 7    0  0.4748297E-002  0.4523592E+03  0.7546771E-02  0.1027021E+00
         21   -1    0    0  502  501  0.00000000000E+00  0.00000000000E+00  0.22783557832E+03  0.22783557832E+03  0.00000000000E+00 0.  1.
         21   -1    0    0  501  502 -0.00000000000E+00 -0.00000000000E+00 -0.22453566918E+03  0.22453566918E+03  0.00000000000E+00 0.  1.
      99926    2    1    2    0    0 -0.35527136788E-14  0.00000000000E+00  0.32999091428E+01  0.45237124750E+03  0.45235921143E+03 0.  0.
      99925    2    3    3    0    0  0.27036144052E+02 -0.61902412957E+02 -0.85589580497E+02  0.28470577316E+03  0.26299988435E+03 0.  0.
         25    1    3    3    0    0 -0.27036144052E+02  0.61902412957E+02  0.88889489640E+02  0.16766547433E+03  0.12509000000E+03 0.  0.
         25    1    4    4    0    0 -0.23533280925E+02 -0.47392765309E+02 -0.41486091240E+02  0.14201582088E+03  0.12509000000E+03 0.  0.
         25    1    4    4    0    0  0.50569424977E+02 -0.14509647648E+02 -0.44103489257E+02  0.14268995228E+03  0.12509000000E+03 0.  0.
<mgrwt>
<rscale>  2 0.45235921E+03</rscale>
<asrwt>0</asrwt>
<pdfrwt beam="1">  1       21 0.33505232E-01 0.45235921E+03</pdfrwt>
<pdfrwt beam="2">  1       21 0.33019951E-01 0.45235921E+03</pdfrwt>
<totfact> 0.70206483E+04</totfact>
</mgrwt>
</event>
<event>
 7    0  0.4748297E-002  0.4475347E+03  0.7546771E-02  0.1028460E+00
         21   -1    0    0  502  501  0.00000000000E+00  0.00000000000E+00  0.32503198224E+03  0.32503198224E+03  0.00000000000E+00 0. -1.
         21   -1    0    0  501  502 -0.00000000000E+00 -0.00000000000E+00 -0.15405197906E+03  0.15405197906E+03  0.00000000000E+00 0. -1.
      99926    2    1    2    0    0  0.00000000000E+00  0.71054273576E-14  0.17098000318E+03  0.47908396130E+03  0.44753466959E+03 0.  0.
      99925    2    3    3    0    0 -0.10548867657E+02  0.30286118596E+02  0.23576225545E+01  0.26669388870E+03  0.26474807704E+03 0.  0.
         25    1    3    3    0    0  0.10548867657E+02 -0.30286118596E+02  0.16862238063E+03  0.21239007260E+03  0.12509000000E+03 0.  0.
         25    1    4    4    0    0  0.90616127891E-01 -0.28516546261E+01 -0.37930676362E+02  0.13074549497E+03  0.12509000000E+03 0.  0.
         25    1    4    4    0    0 -0.10639483785E+02  0.33137773222E+02  0.40288298916E+02  0.13594839373E+03  0.12509000000E+03 0.  0.
<mgrwt>
<rscale>  2 0.44753467E+03</rscale>
<asrwt>0</asrwt>
<pdfrwt beam="1">  1       21 0.47798821E-01 0.44753467E+03</pdfrwt>
<pdfrwt beam="2">  1       21 0.22654703E-01 0.44753467E+03</pdfrwt>
<totfact> 0.70874706E+04</totfact>
</mgrwt>
</event>
<event>
 7    0  0.4748297E-002  0.4737289E+03  0.7546771E-02  0.1020873E+00
         21   -1    0    0  502  501  0.00000000000E+00  0.00000000000E+00  0.76959769580E+03  0.76959769580E+03  0.00000000000E+00 0. -1.
         21   -1    0    0  501  502 -0.00000000000E+00 -0.00000000000E+00 -0.72901434868E+02  0.72901434868E+02  0.00000000000E+00 0. -1.
      99926    2    1    2    0    0  0.00000000000E+00  0.71054273576E-14  0.69669626093E+03  0.84249913066E+03  0.47372893639E+03 0.  0.
      99925    2    3    3    0    0  0.12450785529E+03 -0.35879466180E+02  0.41147964802E+03  0.50517796841E+03  0.26286828815E+03 0.  0.
         25    1    3    3    0    0 -0.12450785529E+03  0.35879466180E+02  0.28521661291E+03  0.33732116225E+03  0.12509000000E+03 0.  0.
         25    1    4    4    0    0  0.85297827613E+02 -0.50217432808E+02  0.25192575512E+03  0.29818048921E+03  0.12509000000E+03 0.  0.
         25    1    4    4    0    0  0.39210027675E+02  0.14337966628E+02  0.15955389290E+03  0.20699747920E+03  0.12509000000E+03 0.  0.
<mgrwt>
<rscale>  2 0.47372894E+03</rscale>
<asrwt>0</asrwt>
<pdfrwt beam="1">  1       21 0.11317613E+00 0.47372894E+03</pdfrwt>
<pdfrwt beam="2">  1       21 0.10720800E-01 0.47372894E+03</pdfrwt>
<totfact> 0.39625455E+04</totfact>
</mgrwt>
</event>
<event>
 7    0  0.4748297E-002  0.4636618E+03  0.7546771E-02  0.1023725E+00
         21   -1    0    0  502  501  0.00000000000E+00  0.00000000000E+00  0.17961948296E+03  0.17961948296E+03  0.00000000000E+00 0.  1.
         21   -1    0    0  501  502 -0.00000000000E+00 -0.00000000000E+00 -0.29921903514E+03  0.29921903514E+03  0.00000000000E+00 0.  1.
      99926    2    1    2    0    0  0.71054273576E-14  0.35527136788E-14 -0.11959955218E+03  0.47883851811E+03  0.46366180945E+03 0.  0.
      99925    2    3    3    0    0  0.43293959726E+02 -0.28261944504E+02 -0.18790902440E+03  0.32722454596E+03  0.26285546897E+03 0.  0.
         25    1    3    3    0    0 -0.43293959726E+02  0.28261944504E+02  0.68309472223E+02  0.15161397215E+03  0.12509000000E+03 0.  0.
         25    1    4    4    0    0  0.60662114584E+02 -0.32891448727E+01 -0.93229518372E+02  0.16742150942E+03  0.12509000000E+03 0.  0.
         25    1    4    4    0    0 -0.17368154859E+02 -0.24972799632E+02 -0.94679506032E+02  0.15980303654E+03  0.12509000000E+03 0.  0.
<mgrwt>
<rscale>  2 0.46366181E+03</rscale>
<asrwt>0</asrwt>
<pdfrwt beam="1">  1       21 0.26414630E-01 0.46366181E+03</pdfrwt>
<pdfrwt beam="2">  1       21 0.44002799E-01 0.46366181E+03</pdfrwt>
<totfact> 0.62385301E+04</totfact>
</mgrwt>
</event>
<event>
 7    0  0.4748297E-002  0.4535165E+03  0.7546771E-02  0.1026679E+00
         21   -1    0    0  502  501  0.00000000000E+00  0.00000000000E+00  0.14340376552E+04  0.14340376552E+04  0.00000000000E+00 0. -1.
         21   -1    0    0  501  502 -0.00000000000E+00 -0.00000000000E+00 -0.35856305975E+02  0.35856305975E+02  0.00000000000E+00 0. -1.
      99926    2    1    2    0    0  0.00000000000E+00  0.00000000000E+00  0.13981813492E+04  0.14698939612E+04  0.45351645149E+03 0.  0.
      99925    2    3    3    0    0 -0.72415515552E+02 -0.17782771944E+02  0.61113093582E+03  0.66948400671E+03  0.26299730160E+03 0.  0.
         25    1    4    4    0    0 -0.62338682209E+02  0.57310702805E+01  0.38746152481E+03  0.41193797807E+03  0.12509000000E+03 0.  0.
         25    1    4    4    0    0 -0.10076833343E+02 -0.23513842224E+02  0.22366941101E+03  0.25754602864E+03  0.12509000000E+03 0.  0.
         25    1    3    3    0    0  0.72415515552E+02  0.17782771944E+02  0.78705041338E+03  0.80040995444E+03  0.12509000000E+03 0.  0.
<mgrwt>
<rscale>  2 0.45351645E+03</rscale>
<asrwt>0</asrwt>
<pdfrwt beam="1">  1       21 0.21088785E+00 0.45351645E+03</pdfrwt>
<pdfrwt beam="2">  1       21 0.52729871E-02 0.45351645E+03</pdfrwt>
<totfact> 0.24811408E+04</totfact>
</mgrwt>
</event>
<event>
 7    0  0.4748297E-002  0.4439249E+03  0.7546771E-02  0.1029549E+00
         21   -1    0    0  502  501  0.00000000000E+00  0.00000000000E+00  0.11823937487E+03  0.11823937487E+03  0.00000000000E+00 0.  1.
         21   -1    0    0  501  502 -0.00000000000E+00 -0.00000000000E+00 -0.41667455499E+03  0.41667455499E+03  0.00000000000E+00 0.  1.
      99926    2    1    2    0    0  0.00000000000E+00  0.00000000000E+00 -0.29843518012E+03  0.53491392986E+03  0.44392494368E+03 0.  0.
      99925    2    3    3    0    0  0.84459544954E+02  0.57621628122E+02 -0.18208693172E+03  0.33582076130E+03  0.26299480271E+03 0.  0.
         25    1    4    4    0    0  0.51608399761E+02 -0.10518966021E+02 -0.94868455859E+02  0.16559470882E+03  0.12509000000E+03 0.  0.
         25    1    3    3    0    0 -0.84459544954E+02 -0.57621628122E+02 -0.11634824839E+03  0.19909316856E+03  0.12509000000E+03 0.  0.
         25    1    4    4    0    0  0.32851145193E+02  0.68140594143E+02 -0.87218475865E+02  0.17022605248E+03  0.12509000000E+03 0.  0.
<mgrwt>
<rscale>  2 0.44392494E+03</rscale>
<asrwt>0</asrwt>
<pdfrwt beam="1">  1       21 0.17388143E-01 0.44392494E+03</pdfrwt>
<pdfrwt beam="2">  1       21 0.61275671E-01 0.44392494E+03</pdfrwt>
<totfact> 0.68701577E+04</totfact>
</mgrwt>
</event>
<event>
 7    0  0.4748297E-002  0.4521197E+03  0.7546771E-02  0.1027092E+00
         21   -1    0    0  502  501  0.00000000000E+00  0.00000000000E+00  0.61549073920E+03  0.61549073920E+03  0.00000000000E+00 0.  1.
         21   -1    0    0  501  502 -0.00000000000E+00 -0.00000000000E+00 -0.83028151197E+02  0.83028151197E+02  0.00000000000E+00 0.  1.
      99926    2    1    2    0    0  0.00000000000E+00  0.00000000000E+00  0.53246258801E+03  0.69851889040E+03  0.45211971050E+03 0.  0.
      99925    2    3    3    0    0 -0.60802990239E+02  0.70322661016E+02  0.42815469837E+03  0.51098242937E+03  0.26295307018E+03 0.  0.
         25    1    3    3    0    0  0.60802990239E+02 -0.70322661016E+02  0.10430788963E+03  0.18753646103E+03  0.12509000000E+03 0.  0.
         25    1    4    4    0    0 -0.21848351016E+02  0.28255391450E+01  0.24432415206E+03  0.27536727020E+03  0.12509000000E+03 0.  0.
         25    1    4    4    0    0 -0.38954639223E+02  0.67497121871E+02  0.18383054631E+03  0.23561515918E+03  0.12509000000E+03 0.  0.
<mgrwt>
<rscale>  2 0.45211971E+03</rscale>
<asrwt>0</asrwt>
<pdfrwt beam="1">  1       21 0.90513342E-01 0.45211971E+03</pdfrwt>
<pdfrwt beam="2">  1       21 0.12210023E-01 0.45211971E+03</pdfrwt>
<totfact> 0.54201686E+04</totfact>
</mgrwt>
</event>
<event>
 7    0  0.4748297E-002  0.4509703E+03  0.7546771E-02  0.1027433E+00
         21   -1    0    0  502  501  0.00000000000E+00  0.00000000000E+00  0.25910574499E+03  0.25910574499E+03  0.00000000000E+00 0. -1.
         21   -1    0    0  501  502 -0.00000000000E+00 -0.00000000000E+00 -0.19622705674E+03  0.19622705674E+03  0.00000000000E+00 0. -1.
      99926    2    1    2    0    0  0.00000000000E+00  0.00000000000E+00  0.62878688253E+02  0.45533280173E+03  0.45097032153E+03 0.  0.
      99925    2    3    3    0    0  0.71519620506E+02  0.82392762967E+02  0.31904337220E+02  0.28648215166E+03  0.26296485123E+03 0.  0.
         25    1    4    4    0    0  0.51395703578E+02  0.10892547793E+02  0.37927345131E+02  0.14087639104E+03  0.12509000000E+03 0.  0.
         25    1    4    4    0    0  0.20123916927E+02  0.71500215175E+02 -0.60230079116E+01  0.14560576062E+03  0.12509000000E+03 0.  0.
         25    1    3    3    0    0 -0.71519620506E+02 -0.82392762967E+02  0.30974351034E+02  0.16885065007E+03  0.12509000000E+03 0.  0.
<mgrwt>
<rscale>  2 0.45097032E+03</rscale>
<asrwt>0</asrwt>
<pdfrwt beam="1">  1       21 0.38103786E-01 0.45097032E+03</pdfrwt>
<pdfrwt beam="2">  1       21 0.28856920E-01 0.45097032E+03</pdfrwt>
<totfact> 0.70769067E+04</totfact>
</mgrwt>
</event>
<event>
 7    0  0.4748297E-002  0.4560166E+03  0.7546771E-02  0.1025943E+00
         21   -1    0    0  502  501  0.00000000000E+00  0.00000000000E+00  0.46223052631E+03  0.46223052631E+03  0.00000000000E+00 0. -1.
         21   -1    0    0  501  502 -0.00000000000E+00 -0.00000000000E+00 -0.11247154465E+03  0.11247154465E+03  0.00000000000E+00 0. -1.
      99926    2    1    2    0    0  0.00000000000E+00  0.00000000000E+00  0.34975898166E+03  0.57470207097E+03  0.45601658426E+03 0.  0.
      99925    2    3    3    0    0 -0.88088609233E+02 -0.63033105008E+02  0.17463636711E+03  0.33377010208E+03  0.26300540854E+03 0.  0.
         25    1    4    4    0    0 -0.29498942668E+02 -0.36070081370E+02  0.12947415368E+03  0.18596317635E+03  0.12509000000E+03 0.  0.
         25    1    4    4    0    0 -0.58589666565E+02 -0.26963023638E+02  0.45162213436E+02  0.14780692573E+03  0.12509000000E+03 0.  0.
         25    1    3    3    0    0  0.88088609233E+02  0.63033105008E+02  0.17512261455E+03  0.24093196888E+03  0.12509000000E+03 0.  0.
<mgrwt>
<rscale>  2 0.45601658E+03</rscale>
<asrwt>0</asrwt>
<pdfrwt beam="1">  1       21 0.67975077E-01 0.45601658E+03</pdfrwt>
<pdfrwt beam="2">  1       21 0.16539933E-01 0.45601658E+03</pdfrwt>
<totfact> 0.59781112E+04</totfact>
</mgrwt>
</event>
<event>
 7    0  0.4748297E-002  0.4515432E+03  0.7546771E-02  0.1027263E+00
         21   -1    0    0  502  501  0.00000000000E+00  0.00000000000E+00  0.89835800210E+03  0.89835800210E+03  0.00000000000E+00 0. -1.
         21   -1    0    0  501  502 -0.00000000000E+00 -0.00000000000E+00 -0.56739986047E+02  0.56739986047E+02  0.00000000000E+00 0. -1.
      99926    2    1    2    0    0  0.00000000000E+00  0.00000000000E+00  0.84161801605E+03  0.95509798815E+03  0.45154322276E+03 0.  0.
      99925    2    3    3    0    0 -0.12965689053E+02 -0.10890516170E+03  0.54379516934E+03  0.61396106628E+03  0.26307139976E+03 0.  0.
         25    1    4    4    0    0 -0.73440378465E+01 -0.12967112459E+02  0.21263765222E+03  0.24715250381E+03  0.12509000000E+03 0.  0.
         25    1    3    3    0    0  0.12965689053E+02  0.10890516170E+03  0.29782284671E+03  0.34113692187E+03  0.12509000000E+03 0.  0.
         25    1    4    4    0    0 -0.56216512068E+01 -0.95938049246E+02  0.33115751712E+03  0.36680856247E+03  0.12509000000E+03 0.  0.
<mgrwt>
<rscale>  2 0.45154322E+03</rscale>
<asrwt>0</asrwt>
<pdfrwt beam="1">  1       21 0.13211146E+00 0.45154322E+03</pdfrwt>
<pdfrwt beam="2">  1       21 0.83441161E-02 0.45154322E+03</pdfrwt>
<totfact> 0.42060495E+04</totfact>
</mgrwt>
</event>
<event>
 7    0  0.4748297E-002  0.4524378E+03  0.7546771E-02  0.1026998E+00
         21   -1    0    0  502  501  0.00000000000E+00  0.00000000000E+00  0.53927818367E+02  0.53927818367E+02  0.00000000000E+00 0. -1.
         21   -1    0    0  501  502 -0.00000000000E+00 -0.00000000000E+00 -0.94895346268E+03  0.94895346268E+03  0.00000000000E+00 0. -1.
      99926    2    1    2    0    0 -0.14210854715E-13  0.00000000000E+00 -0.89502564431E+03  0.10028812810E+04  0.45243779671E+03 0.  0.
      99925    2    3    3    0    0 -0.77858391420E+02 -0.70963527535E+02 -0.48855495144E+03  0.56474467721E+03  0.26296931096E+03 0.  0.
         25    1    4    4    0    0 -0.32123003365E+02 -0.75188775578E+02 -0.27636305436E+03  0.31418033871E+03  0.12509000000E+03 0.  0.
         25    1    3    3    0    0  0.77858391420E+02  0.70963527535E+02 -0.40647069287E+03  0.43813660383E+03  0.12509000000E+03 0.  0.
         25    1    4    4    0    0 -0.45735388055E+02  0.42252480425E+01 -0.21219189708E+03  0.25056433850E+03  0.12509000000E+03 0.  0.
<mgrwt>
<rscale>  2 0.45243780E+03</rscale>
<asrwt>0</asrwt>
<pdfrwt beam="1">  1       21 0.79305620E-02 0.45243780E+03</pdfrwt>
<pdfrwt beam="2">  1       21 0.13955197E+00 0.45243780E+03</pdfrwt>
<totfact> 0.39846265E+04</totfact>
</mgrwt>
</event>
<event>
 7    0  0.4748297E-002  0.4163659E+03  0.7546771E-02  0.1038256E+00
         21   -1    0    0  502  501  0.00000000000E+00  0.00000000000E+00  0.89078954251E+03  0.89078954251E+03  0.00000000000E+00 0.  1.
         21   -1    0    0  501  502 -0.00000000000E+00 -0.00000000000E+00 -0.48653616330E+02  0.48653616330E+02  0.00000000000E+00 0.  1.
      99926    2    1    2    0    0  0.00000000000E+00 -0.71054273576E-14  0.84213592618E+03  0.93944315884E+03  0.41636586139E+03 0.  0.
      99925    2    3    3    0    0 -0.60842497977E+02 -0.36516662349E+02  0.54244119863E+03  0.60702818624E+03  0.26306936106E+03 0.  0.
         25    1    4    4    0    0 -0.41905055792E+02 -0.33027666207E+02  0.36134620939E+03  0.38608995270E+03  0.12509000000E+03 0.  0.
         25    1    4    4    0    0 -0.18937442186E+02 -0.34889961425E+01  0.18109498925E+03  0.22093823354E+03  0.12509000000E+03 0.  0.
         25    1    3    3    0    0  0.60842497977E+02  0.36516662349E+02  0.29969472755E+03  0.33241497261E+03  0.12509000000E+03 0.  0.
<mgrwt>
<rscale>  2 0.41636586E+03</rscale>
<asrwt>0</asrwt>
<pdfrwt beam="1">  1       21 0.13099845E+00 0.41636586E+03</pdfrwt>
<pdfrwt beam="2">  1       21 0.71549441E-02 0.41636586E+03</pdfrwt>
<totfact> 0.56919985E+04</totfact>
</mgrwt>
</event>
<event>
 7    0  0.4748297E-002  0.4559786E+03  0.7546771E-02  0.1025954E+00
         21   -1    0    0  502  501  0.00000000000E+00  0.00000000000E+00  0.61997323805E+03  0.61997323805E+03  0.00000000000E+00 0.  1.
         21   -1    0    0  501  502 -0.00000000000E+00 -0.00000000000E+00 -0.83840914976E+02  0.83840914976E+02  0.00000000000E+00 0.  1.
      99926    2    1    2    0    0  0.00000000000E+00 -0.35527136788E-14  0.53613232308E+03  0.70381415303E+03  0.45597861151E+03 0.  0.
      99925    2    3    3    0    0 -0.32625314136E+02  0.28149825734E+02  0.50005356316E+03  0.56667915083E+03  0.26308719114E+03 0.  0.
         25    1    4    4    0    0  0.55492235042E+01  0.41964826517E+02  0.29307118805E+03  0.32144994931E+03  0.12509000000E+03 0.  0.
         25    1    4    4    0    0 -0.38174537640E+02 -0.13815000784E+02  0.20698237512E+03  0.24522920152E+03  0.12509000000E+03 0.  0.
         25    1    3    3    0    0  0.32625314136E+02 -0.28149825734E+02  0.36078759914E+02  0.13713500220E+03  0.12509000000E+03 0.  0.
<mgrwt>
<rscale>  2 0.45597861E+03</rscale>
<asrwt>0</asrwt>
<pdfrwt beam="1">  1       21 0.91172532E-01 0.45597861E+03</pdfrwt>
<pdfrwt beam="2">  1       21 0.12329547E-01 0.45597861E+03</pdfrwt>
<totfact> 0.52292506E+04</totfact>
</mgrwt>
</event>
<event>
 7    0  0.4748297E-002  0.4479127E+03  0.7546771E-02  0.1028346E+00
         21   -1    0    0  502  501  0.00000000000E+00  0.00000000000E+00  0.48416422736E+02  0.48416422736E+02  0.00000000000E+00 0.  1.
         21   -1    0    0  501  502 -0.00000000000E+00 -0.00000000000E+00 -0.10359385545E+04  0.10359385545E+04  0.00000000000E+00 0.  1.
      99926    2    1    2    0    0 -0.17763568394E-14  0.71054273576E-14 -0.98752213178E+03  0.10843549773E+04  0.44791266552E+03 0.  0.
      99925    2    3    3    0    0 -0.63034785701E+01 -0.57454216884E+02 -0.40884018636E+03  0.48949278906E+03  0.26289193918E+03 0.  0.
         25    1    4    4    0    0  0.10841133678E+02 -0.11250190003E+02 -0.13670099617E+03  0.18595367006E+03  0.12509000000E+03 0.  0.
         25    1    4    4    0    0 -0.17144612248E+02 -0.46204026880E+02 -0.27213919019E+03  0.30353911901E+03  0.12509000000E+03 0.  0.
         25    1    3    3    0    0  0.63034785701E+01  0.57454216884E+02 -0.57868194542E+03  0.59486218819E+03  0.12509000000E+03 0.  0.
<mgrwt>
<rscale>  2 0.44791267E+03</rscale>
<asrwt>0</asrwt>
<pdfrwt beam="1">  1       21 0.71200625E-02 0.44791267E+03</pdfrwt>
<pdfrwt beam="2">  1       21 0.15234390E+00 0.44791267E+03</pdfrwt>
<totfact> 0.38105406E+04</totfact>
</mgrwt>
</event>
<event>
 7    0  0.4748297E-002  0.4086021E+03  0.7546771E-02  0.1040841E+00
         21   -1    0    0  502  501  0.00000000000E+00  0.00000000000E+00  0.62357780085E+03  0.62357780085E+03  0.00000000000E+00 0.  1.
         21   -1    0    0  501  502 -0.00000000000E+00 -0.00000000000E+00 -0.66934589115E+02  0.66934589115E+02  0.00000000000E+00 0.  1.
      99926    2    1    2    0    0  0.35527136788E-14  0.00000000000E+00  0.55664321173E+03  0.69051238996E+03  0.40860212374E+03 0.  0.
      99925    2    3    3    0    0  0.30043697280E+02 -0.49545851857E+02  0.34223684307E+03  0.43561042017E+03  0.26319758020E+03 0.  0.
         25    1    4    4    0    0  0.41881000175E+02 -0.46731834996E+02  0.21678414438E+03  0.25803247069E+03  0.12509000000E+03 0.  0.
         25    1    4    4    0    0 -0.11837302895E+02 -0.28140168616E+01  0.12545269869E+03  0.17757794947E+03  0.12509000000E+03 0.  0.
         25    1    3    3    0    0 -0.30043697280E+02  0.49545851857E+02  0.21440636866E+03  0.25490196979E+03  0.12509000000E+03 0.  0.
<mgrwt>
<rscale>  2 0.40860212E+03</rscale>
<asrwt>0</asrwt>
<pdfrwt beam="1">  1       21 0.91702615E-01 0.40860212E+03</pdfrwt>
<pdfrwt beam="2">  1       21 0.98433223E-02 0.40860212E+03</pdfrwt>
<totfact> 0.78351693E+04</totfact>
</mgrwt>
</event>
<event>
 7    0  0.4748297E-002  0.4634056E+03  0.7546771E-02  0.1023798E+00
         21   -1    0    0  502  501  0.00000000000E+00  0.00000000000E+00  0.20072272041E+03  0.20072272041E+03  0.00000000000E+00 0. -1.
         21   -1    0    0  501  502 -0.00000000000E+00 -0.00000000000E+00 -0.26746442590E+03  0.26746442590E+03  0.00000000000E+00 0. -1.
      99926    2    1    2    0    0 -0.17763568394E-14 -0.14210854715E-13 -0.66741705493E+02  0.46818714631E+03  0.46340559850E+03 0.  0.
      99925    2    3    3    0    0  0.82565363682E+01 -0.70504823396E+02 -0.14057232105E+03  0.30651597260E+03  0.26296836977E+03 0.  0.
         25    1    4    4    0    0  0.29831562365E+02 -0.38564556810E+01 -0.58681120833E+02  0.14140642279E+03  0.12509000000E+03 0.  0.
         25    1    3    3    0    0 -0.82565363682E+01  0.70504823396E+02  0.73830615562E+02  0.16167117371E+03  0.12509000000E+03 0.  0.
         25    1    4    4    0    0 -0.21575025997E+02 -0.66648367715E+02 -0.81891200221E+02  0.16510954981E+03  0.12509000000E+03 0.  0.
<mgrwt>
<rscale>  2 0.46340560E+03</rscale>
<asrwt>0</asrwt>
<pdfrwt beam="1">  1       21 0.29518047E-01 0.46340560E+03</pdfrwt>
<pdfrwt beam="2">  1       21 0.39333004E-01 0.46340560E+03</pdfrwt>
<totfact> 0.63241260E+04</totfact>
</mgrwt>
</event>
<event>
 7    0  0.4748297E-002  0.4598656E+03  0.7546771E-02  0.1024820E+00
         21   -1    0    0  502  501  0.00000000000E+00  0.00000000000E+00  0.10900817751E+03  0.10900817751E+03  0.00000000000E+00 0.  1.
         21   -1    0    0  501  502 -0.00000000000E+00 -0.00000000000E+00 -0.48500108473E+03  0.48500108473E+03  0.00000000000E+00 0.  1.
      99926    2    1    2    0    0 -0.71054273576E-14  0.71054273576E-14 -0.37599290722E+03  0.59400926223E+03  0.45986556442E+03 0.  0.
      99925    2    3    3    0    0  0.57220055638E+02 -0.34683982184E+02 -0.36054086366E+03  0.45130892188E+03  0.26308347574E+03 0.  0.
         25    1    4    4    0    0  0.12532078520E+02 -0.29810973982E+02 -0.11922428602E+03  0.17580581799E+03  0.12509000000E+03 0.  0.
         25    1    4    4    0    0  0.44687977118E+02 -0.48730082025E+01 -0.24131657764E+03  0.27550310389E+03  0.12509000000E+03 0.  0.
         25    1    3    3    0    0 -0.57220055638E+02  0.34683982184E+02 -0.15452043554E+02  0.14270034035E+03  0.12509000000E+03 0.  0.
<mgrwt>
<rscale>  2 0.45986556E+03</rscale>
<asrwt>0</asrwt>
<pdfrwt beam="1">  1       21 0.16030614E-01 0.45986556E+03</pdfrwt>
<pdfrwt beam="2">  1       21 0.71323689E-01 0.45986556E+03</pdfrwt>
<totfact> 0.56831546E+04</totfact>
</mgrwt>
</event>
<event>
 7    0  0.4748297E-002  0.4520092E+03  0.7546771E-02  0.1027125E+00
         21   -1    0    0  502  501  0.00000000000E+00  0.00000000000E+00  0.27329276858E+03  0.27329276858E+03  0.00000000000E+00 0.  1.
         21   -1    0    0  501  502 -0.00000000000E+00 -0.00000000000E+00 -0.18689875311E+03  0.18689875311E+03  0.00000000000E+00 0.  1.
      99926    2    1    2    0    0  0.00000000000E+00  0.00000000000E+00  0.86394015466E+02  0.46019152170E+03  0.45200919319E+03 0.  0.
      99925    2    3    3    0    0  0.46179956991E+02  0.27211145199E+02  0.15309690386E+03  0.30863355169E+03  0.26256993813E+03 0.  0.
         25    1    4    4    0    0  0.59412190211E+02  0.10701605017E+02  0.99772455734E+02  0.17101574114E+03  0.12509000000E+03 0.  0.
         25    1    3    3    0    0 -0.46179956991E+02 -0.27211145199E+02 -0.66702888394E+02  0.15155797000E+03  0.12509000000E+03 0.  0.
         25    1    4    4    0    0 -0.13232233220E+02  0.16509540182E+02  0.53324448126E+02  0.13761781055E+03  0.12509000000E+03 0.  0.
<mgrwt>
<rscale>  2 0.45200919E+03</rscale>
<asrwt>0</asrwt>
<pdfrwt beam="1">  1       21 0.40190113E-01 0.45200919E+03</pdfrwt>
<pdfrwt beam="2">  1       21 0.27485110E-01 0.45200919E+03</pdfrwt>
<totfact> 0.69813717E+04</totfact>
</mgrwt>
</event>
<event>
 7    0  0.4748297E-002  0.4506144E+03  0.7546771E-02  0.1027539E+00
         21   -1    0    0  502  501  0.00000000000E+00  0.00000000000E+00  0.32294679372E+03  0.32294679372E+03  0.00000000000E+00 0.  1.
         21   -1    0    0  501  502 -0.00000000000E+00 -0.00000000000E+00 -0.15718789946E+03  0.15718789946E+03  0.00000000000E+00 0.  1.
      99926    2    1    2    0    0  0.00000000000E+00  0.00000000000E+00  0.16575889426E+03  0.48013469318E+03  0.45061437236E+03 0.  0.
      99925    2    3    3    0    0  0.91913243685E+02 -0.53164137319E+02  0.13108551384E+03  0.31243191661E+03  0.26297494313E+03 0.  0.
         25    1    4    4    0    0  0.25595077394E+02 -0.55625100921E+01  0.93649460109E+02  0.15844172110E+03  0.12509000000E+03 0.  0.
         25    1    3    3    0    0 -0.91913243685E+02  0.53164137319E+02  0.34673380412E+02  0.16770277657E+03  0.12509000000E+03 0.  0.
         25    1    4    4    0    0  0.66318166291E+02 -0.47601627227E+02  0.37436053736E+02  0.15399019551E+03  0.12509000000E+03 0.  0.
<mgrwt>
<rscale>  2 0.45061437E+03</rscale>
<asrwt>0</asrwt>
<pdfrwt beam="1">  1       21 0.47492176E-01 0.45061437E+03</pdfrwt>
<pdfrwt beam="2">  1       21 0.23115868E-01 0.45061437E+03</pdfrwt>
<totfact> 0.69063477E+04</totfact>
</mgrwt>
</event>
<event>
 7    0  0.4748297E-002  0.4543906E+03  0.7546771E-02  0.1026421E+00
         21   -1    0    0  502  501  0.00000000000E+00  0.00000000000E+00  0.39684729911E+03  0.39684729911E+03  0.00000000000E+00 0. -1.
         21   -1    0    0  501  502 -0.00000000000E+00 -0.00000000000E+00 -0.13006943104E+03  0.13006943104E+03  0.00000000000E+00 0. -1.
      99926    2    1    2    0    0  0.00000000000E+00  0.00000000000E+00  0.26677786807E+03  0.52691673014E+03  0.45439059147E+03 0.  0.
      99925    2    3    3    0    0 -0.24467329675E+02 -0.99656667746E+02  0.22162611617E+03  0.35893967681E+03  0.26303888414E+03 0.  0.
         25    1    4    4    0    0 -0.29814277791E+02 -0.58038886657E+02  0.68572337868E+02  0.15686643091E+03  0.12509000000E+03 0.  0.
         25    1    3    3    0    0  0.24467329675E+02  0.99656667746E+02  0.45151751898E+02  0.16797705333E+03  0.12509000000E+03 0.  0.
         25    1    4    4    0    0  0.53469481155E+01 -0.41617781089E+02  0.15305377830E+03  0.20207324590E+03  0.12509000000E+03 0.  0.
<mgrwt>
<rscale>  2 0.45439059E+03</rscale>
<asrwt>0</asrwt>
<pdfrwt beam="1">  1       21 0.58359896E-01 0.45439059E+03</pdfrwt>
<pdfrwt beam="2">  1       21 0.19127858E-01 0.45439059E+03</pdfrwt>
<totfact> 0.63723003E+04</totfact>
</mgrwt>
</event>
<event>
 7    0  0.4748297E-002  0.4487787E+03  0.7546771E-02  0.1028087E+00
         21   -1    0    0  502  501  0.00000000000E+00  0.00000000000E+00  0.23228987754E+03  0.23228987754E+03  0.00000000000E+00 0. -1.
         21   -1    0    0  501  502 -0.00000000000E+00 -0.00000000000E+00 -0.21675753205E+03  0.21675753205E+03  0.00000000000E+00 0. -1.
      99926    2    1    2    0    0  0.14210854715E-13  0.00000000000E+00  0.15532345487E+02  0.44904740959E+03  0.44877870082E+03 0.  0.
      99925    2    3    3    0    0 -0.77770855247E+02  0.10093194382E+02  0.82984362791E+02  0.28672839889E+03  0.26301443261E+03 0.  0.
         25    1    3    3    0    0  0.77770855247E+02 -0.10093194382E+02 -0.67452017304E+02  0.16231901071E+03  0.12509000000E+03 0.  0.
         25    1    4    4    0    0 -0.64193979771E+02  0.14007128091E+01  0.98910544566E+01  0.14095449654E+03  0.12509000000E+03 0.  0.
         25    1    4    4    0    0 -0.13576875475E+02  0.86924815725E+01  0.73093308334E+02  0.14577390235E+03  0.12509000000E+03 0.  0.
<mgrwt>
<rscale>  2 0.44877870E+03</rscale>
<asrwt>0</asrwt>
<pdfrwt beam="1">  1       21 0.34160276E-01 0.44877870E+03</pdfrwt>
<pdfrwt beam="2">  1       21 0.31876108E-01 0.44877870E+03</pdfrwt>
<totfact> 0.72517518E+04</totfact>
</mgrwt>
</event>
<event>
 7    0  0.4748297E-002  0.4514429E+03  0.7546771E-02  0.1027293E+00
         21   -1    0    0  502  501  0.00000000000E+00  0.00000000000E+00  0.96134468036E+02  0.96134468036E+02  0.00000000000E+00 0. -1.
         21   -1    0    0  501  502 -0.00000000000E+00 -0.00000000000E+00 -0.52998855660E+03  0.52998855660E+03  0.00000000000E+00 0. -1.
      99926    2    1    2    0    0 -0.35527136788E-14  0.00000000000E+00 -0.43385408857E+03  0.62612302464E+03  0.45144287769E+03 0.  0.
      99925    2    3    3    0    0 -0.30684341365E+02  0.79315658396E+01 -0.41967163226E+03  0.49630357806E+03  0.26303711550E+03 0.  0.
         25    1    3    3    0    0  0.30684341365E+02 -0.79315658396E+01 -0.14182456302E+02  0.12981944657E+03  0.12509000000E+03 0.  0.
         25    1    4    4    0    0  0.25369793007E+01 -0.30553333747E+02 -0.18212757490E+03  0.22306479800E+03  0.12509000000E+03 0.  0.
         25    1    4    4    0    0 -0.33221320665E+02  0.38484899587E+02 -0.23754405737E+03  0.27323878007E+03  0.12509000000E+03 0.  0.
<mgrwt>
<rscale>  2 0.45144288E+03</rscale>
<asrwt>0</asrwt>
<pdfrwt beam="1">  1       21 0.14137422E-01 0.45144288E+03</pdfrwt>
<pdfrwt beam="2">  1       21 0.77939493E-01 0.45144288E+03</pdfrwt>
<totfact> 0.58730487E+04</totfact>
</mgrwt>
</event>
<event>
 7    0  0.4748297E-002  0.4424087E+03  0.7546771E-02  0.1030010E+00
         21   -1    0    0  502  501  0.00000000000E+00  0.00000000000E+00  0.72309308082E+02  0.72309308082E+02  0.00000000000E+00 0.  1.
         21   -1    0    0  501  502 -0.00000000000E+00 -0.00000000000E+00 -0.67669515991E+03  0.67669515991E+03  0.00000000000E+00 0.  1.
      99926    2    1    2    0    0  0.00000000000E+00  0.00000000000E+00 -0.60438585183E+03  0.74900446799E+03  0.44240867440E+03 0.  0.
      99925    2    3    3    0    0  0.76783219146E+02 -0.62705690523E+02 -0.41675849193E+03  0.50267298270E+03  0.26299205419E+03 0.  0.
         25    1    3    3    0    0 -0.76783219146E+02  0.62705690523E+02 -0.18762735990E+03  0.24633148530E+03  0.12509000000E+03 0.  0.
         25    1    4    4    0    0  0.64567721482E+02 -0.13377982818E+02 -0.16760419486E+03  0.21928665102E+03  0.12509000000E+03 0.  0.
         25    1    4    4    0    0  0.12215497664E+02 -0.49327707706E+02 -0.24915429708E+03  0.28338633168E+03  0.12509000000E+03 0.  0.
<mgrwt>
<rscale>  2 0.44240867E+03</rscale>
<asrwt>0</asrwt>
<pdfrwt beam="1">  1       21 0.10633721E-01 0.44240867E+03</pdfrwt>
<pdfrwt beam="2">  1       21 0.99513998E-01 0.44240867E+03</pdfrwt>
<totfact> 0.55625612E+04</totfact>
</mgrwt>
</event>
<event>
 7    0  0.4748297E-002  0.4620830E+03  0.7546771E-02  0.1024179E+00
         21   -1    0    0  502  501  0.00000000000E+00  0.00000000000E+00  0.57783610456E+03  0.57783610456E+03  0.00000000000E+00 0. -1.
         21   -1    0    0  501  502 -0.00000000000E+00 -0.00000000000E+00 -0.92379445446E+02  0.92379445446E+02  0.00000000000E+00 0. -1.
      99926    2    1    2    0    0  0.14210854715E-13  0.00000000000E+00  0.48545665912E+03  0.67021555001E+03  0.46208301807E+03 0.  0.
      99925    2    3    3    0    0 -0.10632711572E+03 -0.26289108193E+02  0.37352596123E+03  0.46978460935E+03  0.26301970024E+03 0.  0.
         25    1    4    4    0    0 -0.17174625004E+02 -0.76108805801E+01  0.13103550246E+03  0.18212826319E+03  0.12509000000E+03 0.  0.
         25    1    4    4    0    0 -0.89152490715E+02 -0.18678227612E+02  0.24249045877E+03  0.28765634615E+03  0.12509000000E+03 0.  0.
         25    1    3    3    0    0  0.10632711572E+03  0.26289108193E+02  0.11193069788E+03  0.20043094066E+03  0.12509000000E+03 0.  0.
<mgrwt>
<rscale>  2 0.46208302E+03</rscale>
<asrwt>0</asrwt>
<pdfrwt beam="1">  1       21 0.84975896E-01 0.46208302E+03</pdfrwt>
<pdfrwt beam="2">  1       21 0.13585213E-01 0.46208302E+03</pdfrwt>
<totfact> 0.51607535E+04</totfact>
</mgrwt>
</event>
<event>
 7    0  0.4748297E-002  0.4537823E+03  0.7546771E-02  0.1026600E+00
         21   -1    0    0  502  501  0.00000000000E+00  0.00000000000E+00  0.28966393884E+03  0.28966393884E+03  0.00000000000E+00 0. -1.
         21   -1    0    0  501  502 -0.00000000000E+00 -0.00000000000E+00 -0.17772175748E+03  0.17772175748E+03  0.00000000000E+00 0. -1.
      99926    2    1    2    0    0 -0.88817841970E-15 -0.35527136788E-14  0.11194218136E+03  0.46738569632E+03  0.45378225742E+03 0.  0.
      99925    2    3    3    0    0 -0.58653680591E+01  0.18297666939E+02  0.18385693195E+03  0.32182317845E+03  0.26343420356E+03 0.  0.
         25    1    4    4    0    0 -0.13842887360E+02 -0.22221918686E+02  0.60678530392E+02  0.14147378326E+03  0.12509000000E+03 0.  0.
         25    1    3    3    0    0  0.58653680591E+01 -0.18297666939E+02 -0.71914750580E+02  0.14556251787E+03  0.12509000000E+03 0.  0.
         25    1    4    4    0    0  0.79775193010E+01  0.40519585625E+02  0.12317840155E+03  0.18034939518E+03  0.12509000000E+03 0.  0.
<mgrwt>
<rscale>  2 0.45378226E+03</rscale>
<asrwt>0</asrwt>
<pdfrwt beam="1">  1       21 0.42597638E-01 0.45378226E+03</pdfrwt>
<pdfrwt beam="2">  1       21 0.26135552E-01 0.45378226E+03</pdfrwt>
<totfact> 0.68287995E+04</totfact>
</mgrwt>
</event>
<event>
 7    0  0.4748297E-002  0.4681159E+03  0.7546771E-02  0.1022453E+00
         21   -1    0    0  502  501  0.00000000000E+00  0.00000000000E+00  0.26221247602E+03  0.26221247602E+03  0.00000000000E+00 0. -1.
         21   -1    0    0  501  502 -0.00000000000E+00 -0.00000000000E+00 -0.20892649446E+03  0.20892649446E+03  0.00000000000E+00 0. -1.
      99926    2    1    2    0    0  0.00000000000E+00 -0.14210854715E-13  0.53285981558E+02  0.47113897048E+03  0.46811594042E+03 0.  0.
      99925    2    3    3    0    0 -0.81915807441E+02  0.86649719398E+02  0.71178834849E+02  0.29739768097E+03  0.26298399331E+03 0.  0.
         25    1    4    4    0    0 -0.49769698652E+02  0.25885931447E+01  0.33533750900E+02  0.13876506862E+03  0.12509000000E+03 0.  0.
         25    1    4    4    0    0 -0.32146108789E+02  0.84061126253E+02  0.37645083949E+02  0.15863261236E+03  0.12509000000E+03 0.  0.
         25    1    3    3    0    0  0.81915807441E+02 -0.86649719398E+02 -0.17892853291E+02  0.17374128951E+03  0.12509000000E+03 0.  0.
<mgrwt>
<rscale>  2 0.46811594E+03</rscale>
<asrwt>0</asrwt>
<pdfrwt beam="1">  1       21 0.38560658E-01 0.46811594E+03</pdfrwt>
<pdfrwt beam="2">  1       21 0.30724484E-01 0.46811594E+03</pdfrwt>
<totfact> 0.60766892E+04</totfact>
</mgrwt>
</event>
<event>
 7    0  0.4748297E-002  0.4604235E+03  0.7546771E-02  0.1024658E+00
         21   -1    0    0  502  501  0.00000000000E+00  0.00000000000E+00  0.50104725081E+03  0.50104725081E+03  0.00000000000E+00 0.  1.
         21   -1    0    0  501  502 -0.00000000000E+00 -0.00000000000E+00 -0.10577335555E+03  0.10577335555E+03  0.00000000000E+00 0.  1.
      99926    2    1    2    0    0 -0.14210854715E-13  0.00000000000E+00  0.39527389526E+03  0.60682060636E+03  0.46042349640E+03 0.  0.
      99925    2    3    3    0    0  0.11724260604E+03  0.73188217771E+01  0.23142705793E+03  0.36955980466E+03  0.26309042600E+03 0.  0.
         25    1    4    4    0    0  0.27284392524E+02  0.12079454524E+02  0.14102454365E+03  0.19085539371E+03  0.12509000000E+03 0.  0.
         25    1    4    4    0    0  0.89958213518E+02 -0.47606327464E+01  0.90402514279E+02  0.17870441095E+03  0.12509000000E+03 0.  0.
         25    1    3    3    0    0 -0.11724260604E+03 -0.73188217771E+01  0.16384683732E+03  0.23726080170E+03  0.12509000000E+03 0.  0.
<mgrwt>
<rscale>  2 0.46042350E+03</rscale>
<asrwt>0</asrwt>
<pdfrwt beam="1">  1       21 0.73683418E-01 0.46042350E+03</pdfrwt>
<pdfrwt beam="2">  1       21 0.15554905E-01 0.46042350E+03</pdfrwt>
<totfact> 0.55829640E+04</totfact>
</mgrwt>
</event>
<event>
 7    0  0.4748297E-002  0.4673977E+03  0.7546771E-02  0.1022657E+00
         21   -1    0    0  502  501  0.00000000000E+00  0.00000000000E+00  0.17533287445E+04  0.17533287445E+04  0.00000000000E+00 0. -1.
         21   -1    0    0  501  502 -0.00000000000E+00 -0.00000000000E+00 -0.31149405104E+02  0.31149405104E+02  0.00000000000E+00 0. -1.
      99926    2    1    2    0    0  0.00000000000E+00  0.00000000000E+00  0.17221793394E+04  0.17844781496E+04  0.46739767797E+03 0.  0.
      99925    2    3    3    0    0  0.85584829033E+02 -0.78233228256E+02  0.90009223662E+03  0.94488306052E+03  0.26304517230E+03 0.  0.
         25    1    4    4    0    0  0.81382909146E+02 -0.60520290158E+02  0.49845664436E+03  0.52382479688E+03  0.12509000000E+03 0.  0.
         25    1    3    3    0    0 -0.85584829033E+02  0.78233228256E+02  0.82208710279E+03  0.83959508910E+03  0.12509000000E+03 0.  0.
         25    1    4    4    0    0  0.42019198864E+01 -0.17712938098E+02  0.40163559226E+03  0.42105826364E+03  0.12509000000E+03 0.  0.
<mgrwt>
<rscale>  2 0.46739768E+03</rscale>
<asrwt>0</asrwt>
<pdfrwt beam="1">  1       21 0.25784240E+00 0.46739768E+03</pdfrwt>
<pdfrwt beam="2">  1       21 0.45807961E-02 0.46739768E+03</pdfrwt>
<totfact> 0.15966672E+04</totfact>
</mgrwt>
</event>
<event>
 7    0  0.4748297E-002  0.4542719E+03  0.7546771E-02  0.1026456E+00
         21   -1    0    0  502  501  0.00000000000E+00  0.00000000000E+00  0.27956320793E+03  0.27956320793E+03  0.00000000000E+00 0.  1.
         21   -1    0    0  501  502 -0.00000000000E+00 -0.00000000000E+00 -0.18454053504E+03  0.18454053504E+03  0.00000000000E+00 0.  1.
      99926    2    1    2    0    0 -0.71054273576E-14  0.00000000000E+00  0.95022672884E+02  0.46410374297E+03  0.45427191843E+03 0.  0.
      99925    2    3    3    0    0 -0.40802120725E+02 -0.57962838810E+02  0.14905949545E+03  0.31050690045E+03  0.26300436937E+03 0.  0.
         25    1    4    4    0    0 -0.56603853036E+02 -0.49119477888E+02  0.85354561187E+02  0.16896635317E+03  0.12509000000E+03 0.  0.
         25    1    4    4    0    0  0.15801732311E+02 -0.88433609222E+01  0.63704934264E+02  0.14154054729E+03  0.12509000000E+03 0.  0.
         25    1    3    3    0    0  0.40802120725E+02  0.57962838810E+02 -0.54036822567E+02  0.15359684252E+03  0.12509000000E+03 0.  0.
<mgrwt>
<rscale>  2 0.45427192E+03</rscale>
<asrwt>0</asrwt>
<pdfrwt beam="1">  1       21 0.41112237E-01 0.45427192E+03</pdfrwt>
<pdfrwt beam="2">  1       21 0.27138314E-01 0.45427192E+03</pdfrwt>
<totfact> 0.68270945E+04</totfact>
</mgrwt>
</event>
<event>
 7    0  0.4748297E-002  0.4530225E+03  0.7546771E-02  0.1026825E+00
         21   -1    0    0  502  501  0.00000000000E+00  0.00000000000E+00  0.15412556452E+03  0.15412556452E+03  0.00000000000E+00 0.  1.
         21   -1    0    0  501  502 -0.00000000000E+00 -0.00000000000E+00 -0.33289319034E+03  0.33289319034E+03  0.00000000000E+00 0.  1.
      99926    2    1    2    0    0  0.00000000000E+00  0.00000000000E+00 -0.17876762581E+03  0.48701875486E+03  0.45302251991E+03 0.  0.
      99925    2    3    3    0    0  0.86152723148E+02  0.18348332908E+02 -0.39633208441E+02  0.28022212234E+03  0.26304884263E+03 0.  0.
         25    1    3    3    0    0 -0.86152723148E+02 -0.18348332908E+02 -0.13913441737E+03  0.20679663252E+03  0.12509000000E+03 0.  0.
         25    1    4    4    0    0  0.45534505124E+02 -0.14613911268E+02 -0.52896504690E+02  0.14398786709E+03  0.12509000000E+03 0.  0.
         25    1    4    4    0    0  0.40618218024E+02  0.32962244175E+02  0.13263296249E+02  0.13623425525E+03  0.12509000000E+03 0.  0.
<mgrwt>
<rscale>  2 0.45302252E+03</rscale>
<asrwt>0</asrwt>
<pdfrwt beam="1">  1       21 0.22665524E-01 0.45302252E+03</pdfrwt>
<pdfrwt beam="2">  1       21 0.48954882E-01 0.45302252E+03</pdfrwt>
<totfact> 0.67242041E+04</totfact>
</mgrwt>
</event>
<event>
 6    0  0.4748297E-002  0.4505560E+03  0.7546771E-02  0.1027556E+00
         21   -1    0    0  502  501  0.00000000000E+00  0.00000000000E+00  0.52795336635E+02  0.52795336635E+02  0.00000000000E+00 0. -1.
         21   -1    0    0  501  502 -0.00000000000E+00 -0.00000000000E+00 -0.96126232876E+03  0.96126232876E+03  0.00000000000E+00 0. -1.
      99926    2    1    2    0    0  0.00000000000E+00  0.00000000000E+00 -0.90846699212E+03  0.10140576654E+04  0.45055595986E+03 0.  0.
         25    1    3    3    0    0 -0.10593203230E+02  0.67758123367E+02 -0.37331824132E+03  0.39964658967E+03  0.12509000000E+03 0.  0.
         25    1    3    3    0    0 -0.38410758097E+02 -0.47986979074E+00 -0.36326427535E+03  0.38611404851E+03  0.12509000000E+03 0.  0.
         25    1    3    3    0    0  0.49003961327E+02 -0.67278253576E+02 -0.17188447546E+03  0.22829702721E+03  0.12509000000E+03 0.  0.
<mgrwt>
<rscale>  2 0.45055596E+03</rscale>
<asrwt>0</asrwt>
<pdfrwt beam="1">  1       21 0.77640198E-02 0.45055596E+03</pdfrwt>
<pdfrwt beam="2">  1       21 0.14136211E+00 0.45055596E+03</pdfrwt>
<totfact> 0.39994314E+04</totfact>
</mgrwt>
</event>
<event>
 7    0  0.4748297E-002  0.4575019E+03  0.7546771E-02  0.1025508E+00
         21   -1    0    0  502  501  0.00000000000E+00  0.00000000000E+00  0.17886451462E+03  0.17886451462E+03  0.00000000000E+00 0. -1.
         21   -1    0    0  501  502 -0.00000000000E+00 -0.00000000000E+00 -0.29255105030E+03  0.29255105030E+03  0.00000000000E+00 0. -1.
      99926    2    1    2    0    0 -0.17763568394E-14 -0.14210854715E-13 -0.11368653568E+03  0.47141556492E+03  0.45750191962E+03 0.  0.
      99925    2    3    3    0    0  0.15449037463E+02  0.81653589784E+02 -0.15412851780E+03  0.31588729257E+03  0.26291291357E+03 0.  0.
         25    1    3    3    0    0 -0.15449037463E+02 -0.81653589784E+02  0.40441982121E+02  0.15552827235E+03  0.12509000000E+03 0.  0.
         25    1    4    4    0    0  0.51735493747E+01  0.18369582749E+02 -0.34104003687E+02  0.13105265488E+03  0.12509000000E+03 0.  0.
         25    1    4    4    0    0  0.10275488088E+02  0.63284007035E+02 -0.12002451411E+03  0.18483463769E+03  0.12509000000E+03 0.  0.
<mgrwt>
<rscale>  2 0.45750192E+03</rscale>
<asrwt>0</asrwt>
<pdfrwt beam="1">  1       21 0.26303605E-01 0.45750192E+03</pdfrwt>
<pdfrwt beam="2">  1       21 0.43022213E-01 0.45750192E+03</pdfrwt>
<totfact> 0.66010696E+04</totfact>
</mgrwt>
</event>
<event>
 7    0  0.4748297E-002  0.4588557E+03  0.7546771E-02  0.1025114E+00
         21   -1    0    0  502  501  0.00000000000E+00  0.00000000000E+00  0.14362293771E+03  0.14362293771E+03  0.00000000000E+00 0.  1.
         21   -1    0    0  501  502 -0.00000000000E+00 -0.00000000000E+00 -0.36649541670E+03  0.36649541670E+03  0.00000000000E+00 0.  1.
      99926    2    1    2    0    0  0.00000000000E+00  0.00000000000E+00 -0.22287247898E+03  0.51011835441E+03  0.45885574380E+03 0.  0.
      99925    2    3    3    0    0 -0.10849006063E+03 -0.15434212168E+02 -0.94952134242E+02  0.30031027339E+03  0.26298677599E+03 0.  0.
         25    1    4    4    0    0 -0.88618739830E+02 -0.29989044777E+02 -0.38505838634E+02  0.16088142082E+03  0.12509000000E+03 0.  0.
         25    1    4    4    0    0 -0.19871320804E+02  0.14554832610E+02 -0.56446295608E+02  0.13942885258E+03  0.12509000000E+03 0.  0.
         25    1    3    3    0    0  0.10849006063E+03  0.15434212168E+02 -0.12792034474E+03  0.20980808102E+03  0.12509000000E+03 0.  0.
<mgrwt>
<rscale>  2 0.45885574E+03</rscale>
<asrwt>0</asrwt>
<pdfrwt beam="1">  1       21 0.21121020E-01 0.45885574E+03</pdfrwt>
<pdfrwt beam="2">  1       21 0.53896385E-01 0.45885574E+03</pdfrwt>
<totfact> 0.62626937E+04</totfact>
</mgrwt>
</event>
<event>
 7    0  0.4748297E-002  0.4527758E+03  0.7546771E-02  0.1026897E+00
         21   -1    0    0  502  501  0.00000000000E+00  0.00000000000E+00  0.82712160071E+02  0.82712160071E+02  0.00000000000E+00 0. -1.
         21   -1    0    0  501  502 -0.00000000000E+00 -0.00000000000E+00 -0.61963658387E+03  0.61963658387E+03  0.00000000000E+00 0. -1.
      99926    2    1    2    0    0  0.14210854715E-13  0.00000000000E+00 -0.53692442380E+03  0.70234874394E+03  0.45277579578E+03 0.  0.
      99925    2    3    3    0    0  0.66619634270E+02  0.82435711673E+02 -0.39342583039E+03  0.48446534246E+03  0.26208579092E+03 0.  0.
         25    1    3    3    0    0 -0.66619634270E+02 -0.82435711673E+02 -0.14349859341E+03  0.21788340148E+03  0.12509000000E+03 0.  0.
         25    1    4    4    0    0  0.71613368869E+02  0.39299772408E+02 -0.22769965077E+03  0.27233726475E+03  0.12509000000E+03 0.  0.
         25    1    4    4    0    0 -0.49937345985E+01  0.43135939265E+02 -0.16572617962E+03  0.21212807771E+03  0.12509000000E+03 0.  0.
<mgrwt>
<rscale>  2 0.45277580E+03</rscale>
<asrwt>0</asrwt>
<pdfrwt beam="1">  1       21 0.12163554E-01 0.45277580E+03</pdfrwt>
<pdfrwt beam="2">  1       21 0.91123022E-01 0.45277580E+03</pdfrwt>
<totfact> 0.53709530E+04</totfact>
</mgrwt>
</event>
<event>
 7    0  0.4748297E-002  0.4539951E+03  0.7546771E-02  0.1026537E+00
         21   -1    0    0  502  501  0.00000000000E+00  0.00000000000E+00  0.37772272225E+03  0.37772272225E+03  0.00000000000E+00 0. -1.
         21   -1    0    0  501  502 -0.00000000000E+00 -0.00000000000E+00 -0.13641725258E+03  0.13641725258E+03  0.00000000000E+00 0. -1.
      99926    2    1    2    0    0  0.00000000000E+00  0.00000000000E+00  0.24130546967E+03  0.51413997482E+03  0.45399513656E+03 0.  0.
      99925    2    3    3    0    0 -0.10465193153E+03 -0.81361495283E+01  0.19873008913E+03  0.34538454579E+03  0.26225676815E+03 0.  0.
         25    1    3    3    0    0  0.10465193153E+03  0.81361495283E+01  0.42575380534E+02  0.16875542903E+03  0.12509000000E+03 0.  0.
         25    1    4    4    0    0 -0.77217209708E+02  0.90107158913E+00  0.67372807269E+02  0.16170934625E+03  0.12509000000E+03 0.  0.
         25    1    4    4    0    0 -0.27434721817E+02 -0.90372211174E+01  0.13135728187E+03  0.18367519954E+03  0.12509000000E+03 0.  0.
<mgrwt>
<rscale>  2 0.45399514E+03</rscale>
<asrwt>0</asrwt>
<pdfrwt beam="1">  1       21 0.55547459E-01 0.45399514E+03</pdfrwt>
<pdfrwt beam="2">  1       21 0.20061361E-01 0.45399514E+03</pdfrwt>
<totfact> 0.64803459E+04</totfact>
</mgrwt>
</event>
<event>
 7    0  0.4748297E-002  0.4574719E+03  0.7546771E-02  0.1025517E+00
         21   -1    0    0  502  501  0.00000000000E+00  0.00000000000E+00  0.12325970963E+03  0.12325970963E+03  0.00000000000E+00 0. -1.
         21   -1    0    0  501  502 -0.00000000000E+00 -0.00000000000E+00 -0.42447068032E+03  0.42447068032E+03  0.00000000000E+00 0. -1.
      99926    2    1    2    0    0  0.00000000000E+00  0.00000000000E+00 -0.30121097069E+03  0.54773038995E+03  0.45747189117E+03 0.  0.
      99925    2    3    3    0    0 -0.86680394450E+02  0.75985815699E+02 -0.17583798156E+03  0.33641728228E+03  0.26262188997E+03 0.  0.
         25    1    4    4    0    0 -0.45304290194E+02  0.39938519755E+02 -0.13535130362E+03  0.19394599135E+03  0.12509000000E+03 0.  0.
         25    1    3    3    0    0  0.86680394450E+02 -0.75985815699E+02 -0.12537298913E+03  0.21131310767E+03  0.12509000000E+03 0.  0.
         25    1    4    4    0    0 -0.41376104256E+02  0.36047295944E+02 -0.40486677937E+02  0.14247129093E+03  0.12509000000E+03 0.  0.
<mgrwt>
<rscale>  2 0.45747189E+03</rscale>
<asrwt>0</asrwt>
<pdfrwt beam="1">  1       21 0.18126428E-01 0.45747189E+03</pdfrwt>
<pdfrwt beam="2">  1       21 0.62422159E-01 0.45747189E+03</pdfrwt>
<totfact> 0.60818458E+04</totfact>
</mgrwt>
</event>
<event>
 7    0  0.4748297E-002  0.4538401E+03  0.7546771E-02  0.1026583E+00
         21   -1    0    0  502  501  0.00000000000E+00  0.00000000000E+00  0.27793033633E+03  0.27793033633E+03  0.00000000000E+00 0.  1.
         21   -1    0    0  501  502 -0.00000000000E+00 -0.00000000000E+00 -0.18527197883E+03  0.18527197883E+03  0.00000000000E+00 0.  1.
      99926    2    1    2    0    0  0.00000000000E+00  0.00000000000E+00  0.92658357505E+02  0.46320231516E+03  0.45384007487E+03 0.  0.
      99925    2    3    3    0    0  0.25122469669E+02 -0.83997158724E+02 -0.13311022231E+02  0.27728922069E+03  0.26272698270E+03 0.  0.
         25    1    4    4    0    0  0.80542530764E+01 -0.30580092466E+02  0.31956552472E+02  0.13292382177E+03  0.12509000000E+03 0.  0.
         25    1    4    4    0    0  0.17068216592E+02 -0.53417066258E+02 -0.45267574702E+02  0.14436539892E+03  0.12509000000E+03 0.  0.
         25    1    3    3    0    0 -0.25122469669E+02  0.83997158724E+02  0.10596937974E+03  0.18591309448E+03  0.12509000000E+03 0.  0.
<mgrwt>
<rscale>  2 0.45384007E+03</rscale>
<asrwt>0</asrwt>
<pdfrwt beam="1">  1       21 0.40872108E-01 0.45384007E+03</pdfrwt>
<pdfrwt beam="2">  1       21 0.27245879E-01 0.45384007E+03</pdfrwt>
<totfact> 0.68574024E+04</totfact>
</mgrwt>
</event>
<event>
 7    0  0.4748297E-002  0.4429752E+03  0.7546771E-02  0.1029838E+00
         21   -1    0    0  502  501  0.00000000000E+00  0.00000000000E+00  0.32953986819E+03  0.32953986819E+03  0.00000000000E+00 0. -1.
         21   -1    0    0  501  502 -0.00000000000E+00 -0.00000000000E+00 -0.14886439534E+03  0.14886439534E+03  0.00000000000E+00 0. -1.
      99926    2    1    2    0    0  0.00000000000E+00  0.00000000000E+00  0.18067547284E+03  0.47840426353E+03  0.44297518313E+03 0.  0.
      99925    2    3    3    0    0 -0.71260721248E+02  0.72173277217E+02  0.11603508749E+03  0.30487340214E+03  0.26305242341E+03 0.  0.
         25    1    3    3    0    0  0.71260721248E+02 -0.72173277217E+02  0.64640385349E+02  0.17353086139E+03  0.12509000000E+03 0.  0.
         25    1    4    4    0    0 -0.96871392708E+01  0.47012103482E+02  0.24511932764E+02  0.13620690691E+03  0.12509000000E+03 0.  0.
         25    1    4    4    0    0 -0.61573581978E+02  0.25161173735E+02  0.91523154731E+02  0.16866649523E+03  0.12509000000E+03 0.  0.
<mgrwt>
<rscale>  2 0.44297518E+03</rscale>
<asrwt>0</asrwt>
<pdfrwt beam="1">  1       21 0.48461745E-01 0.44297518E+03</pdfrwt>
<pdfrwt beam="2">  1       21 0.21891823E-01 0.44297518E+03</pdfrwt>
<totfact> 0.73594606E+04</totfact>
</mgrwt>
</event>
<event>
 7    0  0.4748297E-002  0.4382355E+03  0.7546771E-02  0.1031290E+00
         21   -1    0    0  502  501  0.00000000000E+00  0.00000000000E+00  0.15563188673E+03  0.15563188673E+03  0.00000000000E+00 0. -1.
         21   -1    0    0  501  502 -0.00000000000E+00 -0.00000000000E+00 -0.30850093496E+03  0.30850093496E+03  0.00000000000E+00 0. -1.
      99926    2    1    2    0    0  0.00000000000E+00  0.00000000000E+00 -0.15286904823E+03  0.46413282169E+03  0.43823547354E+03 0.  0.
      99925    2    3    3    0    0 -0.32205590422E+02  0.45098898870E+02 -0.13924869349E+02  0.26913511997E+03  0.26299942981E+03 0.  0.
         25    1    3    3    0    0  0.32205590422E+02 -0.45098898870E+02 -0.13894417888E+03  0.19499770172E+03  0.12509000000E+03 0.  0.
         25    1    4    4    0    0 -0.44983248805E+02  0.35650146128E+02 -0.33193630929E+02  0.14157595427E+03  0.12509000000E+03 0.  0.
         25    1    4    4    0    0  0.12777658383E+02  0.94487527413E+01  0.19268761580E+02  0.12755916570E+03  0.12509000000E+03 0.  0.
<mgrwt>
<rscale>  2 0.43823547E+03</rscale>
<asrwt>0</asrwt>
<pdfrwt beam="1">  1       21 0.22887042E-01 0.43823547E+03</pdfrwt>
<pdfrwt beam="2">  1       21 0.45367785E-01 0.43823547E+03</pdfrwt>
<totfact> 0.77709005E+04</totfact>
</mgrwt>
</event>
<event>
 7    0  0.4748297E-002  0.4540379E+03  0.7546771E-02  0.1026525E+00
         21   -1    0    0  502  501  0.00000000000E+00  0.00000000000E+00  0.22303576970E+03  0.22303576970E+03  0.00000000000E+00 0.  1.
         21   -1    0    0  501  502 -0.00000000000E+00 -0.00000000000E+00 -0.23107326421E+03  0.23107326421E+03  0.00000000000E+00 0.  1.
      99926    2    1    2    0    0  0.00000000000E+00  0.00000000000E+00 -0.80374945181E+01  0.45410903391E+03  0.45403789859E+03 0.  0.
      99925    2    3    3    0    0 -0.73057925490E+02  0.70688149482E+02  0.42337349472E+02  0.28523213211E+03  0.26311716606E+03 0.  0.
         25    1    4    4    0    0 -0.56680437428E+02  0.10087069708E+01  0.30071430447E+02  0.14058978806E+03  0.12509000000E+03 0.  0.
         25    1    4    4    0    0 -0.16377488062E+02  0.69679442511E+02  0.12265919026E+02  0.14464234405E+03  0.12509000000E+03 0.  0.
         25    1    3    3    0    0  0.73057925490E+02 -0.70688149482E+02 -0.50374843990E+02  0.16887690180E+03  0.12509000000E+03 0.  0.
<mgrwt>
<rscale>  2 0.45403790E+03</rscale>
<asrwt>0</asrwt>
<pdfrwt beam="1">  1       21 0.32799378E-01 0.45403790E+03</pdfrwt>
<pdfrwt beam="2">  1       21 0.33981362E-01 0.45403790E+03</pdfrwt>
<totfact> 0.69140352E+04</totfact>
</mgrwt>
</event>
<event>
 7    0  0.4748297E-002  0.4645617E+03  0.7546771E-02  0.1023466E+00
         21   -1    0    0  502  501  0.00000000000E+00  0.00000000000E+00  0.18458804041E+03  0.18458804041E+03  0.00000000000E+00 0.  1.
         21   -1    0    0  501  502 -0.00000000000E+00 -0.00000000000E+00 -0.29229620897E+03  0.29229620897E+03  0.00000000000E+00 0.  1.
      99926    2    1    2    0    0  0.00000000000E+00  0.00000000000E+00 -0.10770816856E+03  0.47688424938E+03  0.46456166193E+03 0.  0.
      99925    2    3    3    0    0 -0.15298876585E+01 -0.89618443811E+02  0.18933557283E+02  0.27758688149E+03  0.26203471364E+03 0.  0.
         25    1    3    3    0    0  0.15298876585E+01  0.89618443811E+02 -0.12664172584E+03  0.19929736790E+03  0.12509000000E+03 0.  0.
         25    1    4    4    0    0  0.11756621092E+01 -0.51472793752E+02  0.48101985948E+02  0.14356928582E+03  0.12509000000E+03 0.  0.
         25    1    4    4    0    0 -0.27055497677E+01 -0.38145650059E+02 -0.29168428665E+02  0.13401759567E+03  0.12509000000E+03 0.  0.
<mgrwt>
<rscale>  2 0.46456166E+03</rscale>
<asrwt>0</asrwt>
<pdfrwt beam="1">  1       21 0.27145301E-01 0.46456166E+03</pdfrwt>
<pdfrwt beam="2">  1       21 0.42984736E-01 0.46456166E+03</pdfrwt>
<totfact> 0.62082693E+04</totfact>
</mgrwt>
</event>
<event>
 7    0  0.4748297E-002  0.4468763E+03  0.7546771E-02  0.1028658E+00
         21   -1    0    0  502  501  0.00000000000E+00  0.00000000000E+00  0.79733750441E+02  0.79733750441E+02  0.00000000000E+00 0. -1.
         21   -1    0    0  501  502 -0.00000000000E+00 -0.00000000000E+00 -0.62614154263E+03  0.62614154263E+03  0.00000000000E+00 0. -1.
      99926    2    1    2    0    0  0.13322676296E-14 -0.14210854715E-13 -0.54640779219E+03  0.70587529307E+03  0.44687632965E+03 0.  0.
      99925    2    3    3    0    0  0.26445513284E+01  0.99750048390E+02 -0.29330401592E+03  0.40643231776E+03  0.26306447376E+03 0.  0.
         25    1    3    3    0    0 -0.26445513284E+01 -0.99750048390E+02 -0.25310377627E+03  0.29944297531E+03  0.12509000000E+03 0.  0.
         25    1    4    4    0    0 -0.30122212483E+02  0.76575508653E+02 -0.16483757091E+03  0.22268832276E+03  0.12509000000E+03 0.  0.
         25    1    4    4    0    0  0.32766763811E+02  0.23174539737E+02 -0.12846644501E+03  0.18374399500E+03  0.12509000000E+03 0.  0.
<mgrwt>
<rscale>  2 0.44687633E+03</rscale>
<asrwt>0</asrwt>
<pdfrwt beam="1">  1       21 0.11725552E-01 0.44687633E+03</pdfrwt>
<pdfrwt beam="2">  1       21 0.92079635E-01 0.44687633E+03</pdfrwt>
<totfact> 0.56085048E+04</totfact>
</mgrwt>
</event>
<event>
 7    0  0.4748297E-002  0.4557249E+03  0.7546771E-02  0.1026028E+00
         21   -1    0    0  502  501  0.00000000000E+00  0.00000000000E+00  0.16193746558E+03  0.16193746558E+03  0.00000000000E+00 0.  1.
         21   -1    0    0  501  502 -0.00000000000E+00 -0.00000000000E+00 -0.32062563910E+03  0.32062563910E+03  0.00000000000E+00 0.  1.
      99926    2    1    2    0    0  0.00000000000E+00  0.00000000000E+00 -0.15868817352E+03  0.48256310468E+03  0.45572493193E+03 0.  0.
      99925    2    3    3    0    0 -0.46568681336E+02  0.73427230768E+02 -0.17770746749E+03  0.32903967994E+03  0.26292007659E+03 0.  0.
         25    1    4    4    0    0  0.14477813733E+02  0.18944390963E+02 -0.86337204368E+02  0.15385096034E+03  0.12509000000E+03 0.  0.
         25    1    3    3    0    0  0.46568681336E+02 -0.73427230768E+02  0.19019293965E+02  0.15352342474E+03  0.12509000000E+03 0.  0.
         25    1    4    4    0    0 -0.61046495070E+02  0.54482839805E+02 -0.91370263119E+02  0.17518871960E+03  0.12509000000E+03 0.  0.
<mgrwt>
<rscale>  2 0.45572493E+03</rscale>
<asrwt>0</asrwt>
<pdfrwt beam="1">  1       21 0.23814334E-01 0.45572493E+03</pdfrwt>
<pdfrwt beam="2">  1       21 0.47150829E-01 0.45572493E+03</pdfrwt>
<totfact> 0.66132618E+04</totfact>
</mgrwt>
</event>
<event>
 7    0  0.4748297E-002  0.4574418E+03  0.7546771E-02  0.1025526E+00
         21   -1    0    0  502  501  0.00000000000E+00  0.00000000000E+00  0.32205317766E+03  0.32205317766E+03  0.00000000000E+00 0. -1.
         21   -1    0    0  501  502 -0.00000000000E+00 -0.00000000000E+00 -0.16243671297E+03  0.16243671297E+03  0.00000000000E+00 0. -1.
      99926    2    1    2    0    0  0.00000000000E+00  0.00000000000E+00  0.15961646468E+03  0.48448989063E+03  0.45744184147E+03 0.  0.
      99925    2    3    3    0    0 -0.58245060859E+02  0.98290785551E+02  0.11794978318E+03  0.31002732707E+03  0.26296620797E+03 0.  0.
         25    1    4    4    0    0 -0.53240999928E+02  0.85832523312E+02  0.70762925268E+02  0.17566082609E+03  0.12509000000E+03 0.  0.
         25    1    3    3    0    0  0.58245060859E+02 -0.98290785551E+02  0.41666681504E+02  0.17446256357E+03  0.12509000000E+03 0.  0.
         25    1    4    4    0    0 -0.50040609308E+01  0.12458262240E+02  0.47186857910E+02  0.13436650097E+03  0.12509000000E+03 0.  0.
<mgrwt>
<rscale>  2 0.45744184E+03</rscale>
<asrwt>0</asrwt>
<pdfrwt beam="1">  1       21 0.47360761E-01 0.45744184E+03</pdfrwt>
<pdfrwt beam="2">  1       21 0.23887752E-01 0.45744184E+03</pdfrwt>
<totfact> 0.65103578E+04</totfact>
</mgrwt>
</event>
<event>
 7    0  0.4748297E-002  0.4513651E+03  0.7546771E-02  0.1027316E+00
         21   -1    0    0  502  501  0.00000000000E+00  0.00000000000E+00  0.10776025946E+03  0.10776025946E+03  0.00000000000E+00 0. -1.
         21   -1    0    0  501  502 -0.00000000000E+00 -0.00000000000E+00 -0.47264751070E+03  0.47264751070E+03  0.00000000000E+00 0. -1.
      99926    2    1    2    0    0  0.00000000000E+00 -0.71054273576E-14 -0.36488725124E+03  0.58040777016E+03  0.45136512221E+03 0.  0.
      99925    2    3    3    0    0 -0.26844418180E+02  0.46665524761E+02 -0.10741832518E+03  0.28914148311E+03  0.26299392898E+03 0.  0.
         25    1    4    4    0    0 -0.22182045540E+02  0.41239330271E+01 -0.90101669250E+02  0.15580394369E+03  0.12509000000E+03 0.  0.
         25    1    4    4    0    0 -0.46623726401E+01  0.42541591734E+02 -0.17316655932E+02  0.13333753942E+03  0.12509000000E+03 0.  0.
         25    1    3    3    0    0  0.26844418180E+02 -0.46665524761E+02 -0.25746892605E+03  0.29126628705E+03  0.12509000000E+03 0.  0.
<mgrwt>
<rscale>  2 0.45136512E+03</rscale>
<asrwt>0</asrwt>
<pdfrwt beam="1">  1       21 0.15847097E-01 0.45136512E+03</pdfrwt>
<pdfrwt beam="2">  1       21 0.69506986E-01 0.45136512E+03</pdfrwt>
<totfact> 0.61653360E+04</totfact>
</mgrwt>
</event>
<event>
 7    0  0.4748297E-002  0.4544048E+03  0.7546771E-02  0.1026417E+00
         21   -1    0    0  502  501  0.00000000000E+00  0.00000000000E+00  0.69351972726E+02  0.69351972726E+02  0.00000000000E+00 0. -1.
         21   -1    0    0  501  502 -0.00000000000E+00 -0.00000000000E+00 -0.74433249042E+03  0.74433249042E+03  0.00000000000E+00 0. -1.
      99926    2    1    2    0    0  0.00000000000E+00  0.00000000000E+00 -0.67498051769E+03  0.81368446315E+03  0.45440478244E+03 0.  0.
      99925    2    3    3    0    0 -0.88291595272E+02 -0.46137121959E+02 -0.51909993000E+03  0.59036785934E+03  0.26295519046E+03 0.  0.
         25    1    3    3    0    0  0.88291595272E+02  0.46137121959E+02 -0.15588058769E+03  0.22331660381E+03  0.12509000000E+03 0.  0.
         25    1    4    4    0    0 -0.25603666349E+02 -0.54423018937E+02 -0.29540756028E+03  0.32639017677E+03  0.12509000000E+03 0.  0.
         25    1    4    4    0    0 -0.62687928923E+02  0.82858969779E+01 -0.22369236972E+03  0.26397768257E+03  0.12509000000E+03 0.  0.
<mgrwt>
<rscale>  2 0.45440478E+03</rscale>
<asrwt>0</asrwt>
<pdfrwt beam="1">  1       21 0.10198819E-01 0.45440478E+03</pdfrwt>
<pdfrwt beam="2">  1       21 0.10946067E+00 0.45440478E+03</pdfrwt>
<totfact> 0.47330702E+04</totfact>
</mgrwt>
</event>
<event>
 7    0  0.4748297E-002  0.4559939E+03  0.7546771E-02  0.1025950E+00
         21   -1    0    0  502  501  0.00000000000E+00  0.00000000000E+00  0.89146386534E+02  0.89146386534E+02  0.00000000000E+00 0.  1.
         21   -1    0    0  501  502 -0.00000000000E+00 -0.00000000000E+00 -0.58311520177E+03  0.58311520177E+03  0.00000000000E+00 0.  1.
      99926    2    1    2    0    0  0.71054273576E-14 -0.14210854715E-13 -0.49396881524E+03  0.67226158831E+03  0.45599391738E+03 0.  0.
      99925    2    3    3    0    0 -0.33753740554E+02  0.87225062581E+02 -0.40690772851E+03  0.49344697071E+03  0.26299902441E+03 0.  0.
         25    1    3    3    0    0  0.33753740554E+02 -0.87225062581E+02 -0.87061086731E+02  0.17881461760E+03  0.12509000000E+03 0.  0.
         25    1    4    4    0    0 -0.44378191944E+02  0.74937922570E+02 -0.23828281406E+03  0.28286272949E+03  0.12509000000E+03 0.  0.
         25    1    4    4    0    0  0.10624451390E+02  0.12287140011E+02 -0.16862491445E+03  0.21058424122E+03  0.12509000000E+03 0.  0.
<mgrwt>
<rscale>  2 0.45599392E+03</rscale>
<asrwt>0</asrwt>
<pdfrwt beam="1">  1       21 0.13109763E-01 0.45599392E+03</pdfrwt>
<pdfrwt beam="2">  1       21 0.85752232E-01 0.45599392E+03</pdfrwt>
<totfact> 0.54010823E+04</totfact>
</mgrwt>
</event>
<event>
 7    0  0.4748297E-002  0.5629449E+03  0.7546771E-02  0.9985413E-01
         21   -1    0    0  502  501  0.00000000000E+00  0.00000000000E+00  0.18805860218E+03  0.18805860218E+03  0.00000000000E+00 0.  1.
         21   -1    0    0  501  502 -0.00000000000E+00 -0.00000000000E+00 -0.42128748783E+03  0.42128748783E+03  0.00000000000E+00 0.  1.
      99926    2    1    2    0    0  0.00000000000E+00  0.00000000000E+00 -0.23322888565E+03  0.60934609001E+03  0.56294488567E+03 0.  0.
      99925    2    3    3    0    0 -0.69808059879E+02 -0.14682087247E+03 -0.14682824967E+02  0.30961383856E+03  0.26308859698E+03 0.  0.
         25    1    4    4    0    0 -0.31075472464E+02 -0.46896427542E+02  0.26796611698E+02  0.13975165975E+03  0.12509000000E+03 0.  0.
         25    1    3    3    0    0  0.69808059879E+02  0.14682087247E+03 -0.21854606068E+03  0.29973225145E+03  0.12509000000E+03 0.  0.
         25    1    4    4    0    0 -0.38732587414E+02 -0.99924444930E+02 -0.41479436665E+02  0.16986217881E+03  0.12509000000E+03 0.  0.
<mgrwt>
<rscale>  2 0.56294489E+03</rscale>
<asrwt>0</asrwt>
<pdfrwt beam="1">  1       21 0.27655677E-01 0.56294489E+03</pdfrwt>
<pdfrwt beam="2">  1       21 0.61954042E-01 0.56294489E+03</pdfrwt>
<totfact> 0.26791202E+04</totfact>
</mgrwt>
</event>
<event>
 7    0  0.4748297E-002  0.4653016E+03  0.7546771E-02  0.1023255E+00
         21   -1    0    0  502  501  0.00000000000E+00  0.00000000000E+00  0.96478264762E+03  0.96478264762E+03  0.00000000000E+00 0. -1.
         21   -1    0    0  501  502 -0.00000000000E+00 -0.00000000000E+00 -0.56102161522E+02  0.56102161522E+02  0.00000000000E+00 0. -1.
      99926    2    1    2    0    0 -0.14210854715E-13  0.00000000000E+00  0.90868048610E+03  0.10208848091E+04  0.46530158792E+03 0.  0.
      99925    2    3    3    0    0  0.95373637674E+02  0.75424357680E+02  0.57925782798E+03  0.64812247162E+03  0.26407980318E+03 0.  0.
         25    1    4    4    0    0  0.33715554653E+02  0.71952738132E+01  0.32843599096E+03  0.35313767690E+03  0.12509000000E+03 0.  0.
         25    1    4    4    0    0  0.61658083022E+02  0.68229083867E+02  0.25082183702E+03  0.29498479471E+03  0.12509000000E+03 0.  0.
         25    1    3    3    0    0 -0.95373637674E+02 -0.75424357680E+02  0.32942265812E+03  0.37276233753E+03  0.12509000000E+03 0.  0.
<mgrwt>
<rscale>  2 0.46530159E+03</rscale>
<asrwt>0</asrwt>
<pdfrwt beam="1">  1       21 0.14187979E+00 0.46530159E+03</pdfrwt>
<pdfrwt beam="2">  1       21 0.82503185E-02 0.46530159E+03</pdfrwt>
<totfact> 0.35427655E+04</totfact>
</mgrwt>
</event>
<event>
 7    0  0.4748297E-002  0.4513460E+03  0.7546771E-02  0.1027321E+00
         21   -1    0    0  502  501  0.00000000000E+00  0.00000000000E+00  0.29571476672E+03  0.29571476672E+03  0.00000000000E+00 0.  1.
         21   -1    0    0  501  502 -0.00000000000E+00 -0.00000000000E+00 -0.17222100889E+03  0.17222100889E+03  0.00000000000E+00 0.  1.
      99926    2    1    2    0    0  0.62172489379E-14  0.00000000000E+00  0.12349375783E+03  0.46793577561E+03  0.45134596694E+03 0.  0.
      99925    2    3    3    0    0  0.54132137247E+01 -0.78343244119E+02  0.15701858256E+03  0.31648152920E+03  0.26332253279E+03 0.  0.
         25    1    3    3    0    0 -0.54132137247E+01  0.78343244119E+02 -0.33524824734E+02  0.15145424641E+03  0.12509000000E+03 0.  0.
         25    1    4    4    0    0  0.41179992439E+02 -0.25634787892E+02  0.70085347297E+02  0.15136841855E+03  0.12509000000E+03 0.  0.
         25    1    4    4    0    0 -0.35766778715E+02 -0.52708456227E+02  0.86933235263E+02  0.16511311066E+03  0.12509000000E+03 0.  0.
<mgrwt>
<rscale>  2 0.45134597E+03</rscale>
<asrwt>0</asrwt>
<pdfrwt beam="1">  1       21 0.43487466E-01 0.45134597E+03</pdfrwt>
<pdfrwt beam="2">  1       21 0.25326619E-01 0.45134597E+03</pdfrwt>
<totfact> 0.69584922E+04</totfact>
</mgrwt>
</event>
<event>
 7    0  0.4748297E-002  0.4566294E+03  0.7546771E-02  0.1025763E+00
         21   -1    0    0  502  501  0.00000000000E+00  0.00000000000E+00  0.19853464024E+04  0.19853464024E+04  0.00000000000E+00 0. -1.
         21   -1    0    0  501  502 -0.00000000000E+00 -0.00000000000E+00 -0.26256174282E+02  0.26256174282E+02  0.00000000000E+00 0. -1.
      99926    2    1    2    0    0  0.00000000000E+00  0.00000000000E+00  0.19590902281E+04  0.20116025766E+04  0.45662939525E+03 0.  0.
      99925    2    3    3    0    0 -0.76469575968E+02 -0.82040607168E+02  0.11267584125E+04  0.11624842006E+04  0.26307173764E+03 0.  0.
         25    1    3    3    0    0  0.76469575968E+02  0.82040607168E+02  0.83233181554E+03  0.84911837604E+03  0.12509000000E+03 0.  0.
         25    1    4    4    0    0 -0.65685243573E+02 -0.68305112969E+02  0.70302585281E+03  0.72032839560E+03  0.12509000000E+03 0.  0.
         25    1    4    4    0    0 -0.10784332395E+02 -0.13735494200E+02  0.42373255974E+03  0.44215580501E+03  0.12509000000E+03 0.  0.
<mgrwt>
<rscale>  2 0.45662940E+03</rscale>
<asrwt>0</asrwt>
<pdfrwt beam="1">  1       21 0.29196261E+00 0.45662940E+03</pdfrwt>
<pdfrwt beam="2">  1       21 0.38612034E-02 0.45662940E+03</pdfrwt>
<totfact> 0.13351476E+04</totfact>
</mgrwt>
</event>
<event>
 7    0  0.4748297E-002  0.4614941E+03  0.7546771E-02  0.1024349E+00
         21   -1    0    0  502  501  0.00000000000E+00  0.00000000000E+00  0.62305138728E+02  0.62305138728E+02  0.00000000000E+00 0. -1.
         21   -1    0    0  501  502 -0.00000000000E+00 -0.00000000000E+00 -0.85457167464E+03  0.85457167464E+03  0.00000000000E+00 0. -1.
      99926    2    1    2    0    0  0.00000000000E+00  0.00000000000E+00 -0.79226653591E+03  0.91687681337E+03  0.46149412452E+03 0.  0.
      99925    2    3    3    0    0 -0.87312940859E+02 -0.52387577322E+02 -0.61872580719E+03  0.67995509523E+03  0.26296254325E+03 0.  0.
         25    1    4    4    0    0 -0.31322232751E+02 -0.11653390585E+02 -0.20749026739E+03  0.24457433009E+03  0.12509000000E+03 0.  0.
         25    1    4    4    0    0 -0.55990708108E+02 -0.40734186737E+02 -0.41123553980E+03  0.43538076514E+03  0.12509000000E+03 0.  0.
         25    1    3    3    0    0  0.87312940859E+02  0.52387577322E+02 -0.17354072873E+03  0.23692171814E+03  0.12509000000E+03 0.  0.
<mgrwt>
<rscale>  2 0.46149412E+03</rscale>
<asrwt>0</asrwt>
<pdfrwt beam="1">  1       21 0.91625214E-02 0.46149412E+03</pdfrwt>
<pdfrwt beam="2">  1       21 0.12567229E+00 0.46149412E+03</pdfrwt>
<totfact> 0.40418023E+04</totfact>
</mgrwt>
</event>
<event>
 7    0  0.4748297E-002  0.4544229E+03  0.7546771E-02  0.1026411E+00
         21   -1    0    0  502  501  0.00000000000E+00  0.00000000000E+00  0.86980288926E+03  0.86980288926E+03  0.00000000000E+00 0. -1.
         21   -1    0    0  501  502 -0.00000000000E+00 -0.00000000000E+00 -0.59352586229E+02  0.59352586229E+02  0.00000000000E+00 0. -1.
      99926    2    1    2    0    0 -0.17763568394E-14  0.00000000000E+00  0.81045030303E+03  0.92915547549E+03  0.45442293510E+03 0.  0.
      99925    2    3    3    0    0  0.67049274307E+01  0.10727389110E+03  0.57880045865E+03  0.64479337839E+03  0.26305110933E+03 0.  0.
         25    1    4    4    0    0  0.22891051277E+02  0.62838083334E+02  0.21879321233E+03  0.26075007729E+03  0.12509000000E+03 0.  0.
         25    1    3    3    0    0 -0.67049274307E+01 -0.10727389110E+03  0.23164984438E+03  0.28436209710E+03  0.12509000000E+03 0.  0.
         25    1    4    4    0    0 -0.16186123846E+02  0.44435807766E+02  0.36000724631E+03  0.38404330109E+03  0.12509000000E+03 0.  0.
<mgrwt>
<rscale>  2 0.45442294E+03</rscale>
<asrwt>0</asrwt>
<pdfrwt beam="1">  1       21 0.12791218E+00 0.45442294E+03</pdfrwt>
<pdfrwt beam="2">  1       21 0.87283221E-02 0.45442294E+03</pdfrwt>
<totfact> 0.42186714E+04</totfact>
</mgrwt>
</event>
<event>
 7    0  0.4748297E-002  0.4723847E+03  0.7546771E-02  0.1021249E+00
         21   -1    0    0  502  501  0.00000000000E+00  0.00000000000E+00  0.86966948430E+03  0.86966948430E+03  0.00000000000E+00 0. -1.
         21   -1    0    0  501  502 -0.00000000000E+00 -0.00000000000E+00 -0.64147151731E+02  0.64147151731E+02  0.00000000000E+00 0. -1.
      99926    2    1    2    0    0  0.00000000000E+00  0.00000000000E+00  0.80552233257E+03  0.93381663603E+03  0.47238467530E+03 0.  0.
      99925    2    3    3    0    0  0.41652243214E+02  0.11914088214E+03  0.44879432253E+03  0.53527951052E+03  0.26301777752E+03 0.  0.
         25    1    4    4    0    0  0.13129391527E+02  0.15965536071E+02  0.18315196672E+03  0.22275419250E+03  0.12509000000E+03 0.  0.
         25    1    3    3    0    0 -0.41652243214E+02 -0.11914088214E+03  0.35672801004E+03  0.39853712551E+03  0.12509000000E+03 0.  0.
         25    1    4    4    0    0  0.28522851687E+02  0.10317534607E+03  0.26564235581E+03  0.31252531802E+03  0.12509000000E+03 0.  0.
<mgrwt>
<rscale>  2 0.47238468E+03</rscale>
<asrwt>0</asrwt>
<pdfrwt beam="1">  1       21 0.12789256E+00 0.47238468E+03</pdfrwt>
<pdfrwt beam="2">  1       21 0.94334051E-02 0.47238468E+03</pdfrwt>
<totfact> 0.36568923E+04</totfact>
</mgrwt>
</event>
<event>
 7    0  0.4748297E-002  0.4287765E+03  0.7546771E-02  0.1034247E+00
         21   -1    0    0  502  501  0.00000000000E+00  0.00000000000E+00  0.41677830532E+03  0.41677830532E+03  0.00000000000E+00 0.  1.
         21   -1    0    0  501  502 -0.00000000000E+00 -0.00000000000E+00 -0.11028000516E+03  0.11028000516E+03  0.00000000000E+00 0.  1.
      99926    2    1    2    0    0  0.00000000000E+00 -0.14210854715E-13  0.30649830016E+03  0.52705831047E+03  0.42877646232E+03 0.  0.
      99925    2    3    3    0    0  0.38463533555E+02 -0.77057452479E+02  0.19435539148E+03  0.33827050773E+03  0.26312663075E+03 0.  0.
         25    1    4    4    0    0 -0.17948220098E+02 -0.18960148176E+02  0.86119415886E+02  0.15409635854E+03  0.12509000000E+03 0.  0.
         25    1    4    4    0    0  0.56411753653E+02 -0.58097304304E+02  0.10823597560E+03  0.18417414919E+03  0.12509000000E+03 0.  0.
         25    1    3    3    0    0 -0.38463533555E+02  0.77057452479E+02  0.11214290868E+03  0.18878780274E+03  0.12509000000E+03 0.  0.
<mgrwt>
<rscale>  2 0.42877646E+03</rscale>
<asrwt>0</asrwt>
<pdfrwt beam="1">  1       21 0.61290927E-01 0.42877646E+03</pdfrwt>
<pdfrwt beam="2">  1       21 0.16217648E-01 0.42877646E+03</pdfrwt>
<totfact> 0.78474240E+04</totfact>
</mgrwt>
</event>
<event>
 7    0  0.4748297E-002  0.4497431E+03  0.7546771E-02  0.1027799E+00
         21   -1    0    0  502  501  0.00000000000E+00  0.00000000000E+00  0.80105108884E+02  0.80105108884E+02  0.00000000000E+00 0. -1.
         21   -1    0    0  501  502 -0.00000000000E+00 -0.00000000000E+00 -0.63126068959E+03  0.63126068959E+03  0.00000000000E+00 0. -1.
      99926    2    1    2    0    0  0.00000000000E+00  0.00000000000E+00 -0.55115558071E+03  0.71136579848E+03  0.44974306564E+03 0.  0.
      99925    2    3    3    0    0  0.64248531877E+02  0.85901726948E+02 -0.32617237532E+03  0.43248960489E+03  0.26296741124E+03 0.  0.
         25    1    4    4    0    0  0.46515475244E+02  0.49227233063E+01 -0.16493097022E+03  0.21222077108E+03  0.12509000000E+03 0.  0.
         25    1    3    3    0    0 -0.64248531877E+02 -0.85901726948E+02 -0.22498320539E+03  0.27887619358E+03  0.12509000000E+03 0.  0.
         25    1    4    4    0    0  0.17733056633E+02  0.80979003641E+02 -0.16124140510E+03  0.22026883381E+03  0.12509000000E+03 0.  0.
<mgrwt>
<rscale>  2 0.44974307E+03</rscale>
<asrwt>0</asrwt>
<pdfrwt beam="1">  1       21 0.11780163E-01 0.44974307E+03</pdfrwt>
<pdfrwt beam="2">  1       21 0.92832457E-01 0.44974307E+03</pdfrwt>
<totfact> 0.54509896E+04</totfact>
</mgrwt>
</event>
<event>
 7    0  0.4748297E-002  0.4579674E+03  0.7546771E-02  0.1025372E+00
         21   -1    0    0  502  501  0.00000000000E+00  0.00000000000E+00  0.37217218093E+02  0.37217218093E+02  0.00000000000E+00 0. -1.
         21   -1    0    0  501  502 -0.00000000000E+00 -0.00000000000E+00 -0.14088515369E+04  0.14088515369E+04  0.00000000000E+00 0. -1.
      99926    2    1    2    0    0  0.00000000000E+00 -0.71054273576E-14 -0.13716343188E+04  0.14460687550E+04  0.45796740020E+03 0.  0.
      99925    2    3    3    0    0 -0.99968177549E+02 -0.55236387772E+02 -0.79895077444E+03  0.84885970856E+03  0.26305088819E+03 0.  0.
         25    1    3    3    0    0  0.99968177549E+02  0.55236387772E+02 -0.57268354440E+03  0.59720904647E+03  0.12509000000E+03 0.  0.
         25    1    4    4    0    0 -0.53228553293E+02 -0.65715956494E+02 -0.47090814526E+03  0.49452386716E+03  0.12509000000E+03 0.  0.
         25    1    4    4    0    0 -0.46739624256E+02  0.10479568722E+02 -0.32804262918E+03  0.35433584139E+03  0.12509000000E+03 0.  0.
<mgrwt>
<rscale>  2 0.45796740E+03</rscale>
<asrwt>0</asrwt>
<pdfrwt beam="1">  1       21 0.54731192E-02 0.45796740E+03</pdfrwt>
<pdfrwt beam="2">  1       21 0.20718409E+00 0.45796740E+03</pdfrwt>
<totfact> 0.24558670E+04</totfact>
</mgrwt>
</event>
<event>
 7    0  0.4748297E-002  0.4542361E+03  0.7546771E-02  0.1026466E+00
         21   -1    0    0  502  501  0.00000000000E+00  0.00000000000E+00  0.90400145359E+02  0.90400145359E+02  0.00000000000E+00 0. -1.
         21   -1    0    0  501  502 -0.00000000000E+00 -0.00000000000E+00 -0.57060322719E+03  0.57060322719E+03  0.00000000000E+00 0. -1.
      99926    2    1    2    0    0  0.00000000000E+00  0.00000000000E+00 -0.48020308183E+03  0.66100337254E+03  0.45423612661E+03 0.  0.
      99925    2    3    3    0    0 -0.22142770718E+02  0.48017826813E+02 -0.15841672707E+03  0.31173273222E+03  0.26322124332E+03 0.  0.
         25    1    4    4    0    0 -0.47960685094E+02  0.18523580812E+02 -0.10010143601E+03  0.16825919277E+03  0.12509000000E+03 0.  0.
         25    1    4    4    0    0  0.25817914376E+02  0.29494246002E+02 -0.58315291064E+02  0.14347353945E+03  0.12509000000E+03 0.  0.
         25    1    3    3    0    0  0.22142770718E+02 -0.48017826813E+02 -0.32178635476E+03  0.34927064033E+03  0.12509000000E+03 0.  0.
<mgrwt>
<rscale>  2 0.45423613E+03</rscale>
<asrwt>0</asrwt>
<pdfrwt beam="1">  1       21 0.13294139E-01 0.45423613E+03</pdfrwt>
<pdfrwt beam="2">  1       21 0.83912237E-01 0.45423613E+03</pdfrwt>
<totfact> 0.55404431E+04</totfact>
</mgrwt>
</event>
<event>
 7    0  0.4748297E-002  0.4451347E+03  0.7546771E-02  0.1029183E+00
         21   -1    0    0  502  501  0.00000000000E+00  0.00000000000E+00  0.46388996654E+02  0.46388996654E+02  0.00000000000E+00 0. -1.
         21   -1    0    0  501  502 -0.00000000000E+00 -0.00000000000E+00 -0.10678443343E+04  0.10678443343E+04  0.00000000000E+00 0. -1.
      99926    2    1    2    0    0  0.00000000000E+00  0.71054273576E-14 -0.10214553377E+04  0.11142333310E+04  0.44513470883E+03 0.  0.
      99925    2    3    3    0    0  0.62859089282E+02 -0.40377610705E+02 -0.82865829889E+03  0.87257277810E+03  0.26292025448E+03 0.  0.
         25    1    3    3    0    0 -0.62859089282E+02  0.40377610705E+02 -0.19279703877E+03  0.24166055287E+03  0.12509000000E+03 0.  0.
         25    1    4    4    0    0  0.25517326406E+02 -0.36638762308E+02 -0.53399149965E+03  0.55026172195E+03  0.12509000000E+03 0.  0.
         25    1    4    4    0    0  0.37341762876E+02 -0.37388483976E+01 -0.29466679924E+03  0.32231105615E+03  0.12509000000E+03 0.  0.
<mgrwt>
<rscale>  2 0.44513471E+03</rscale>
<asrwt>0</asrwt>
<pdfrwt beam="1">  1       21 0.68219114E-02 0.44513471E+03</pdfrwt>
<pdfrwt beam="2">  1       21 0.15703593E+00 0.44513471E+03</pdfrwt>
<totfact> 0.37825938E+04</totfact>
</mgrwt>
</event>
<event>
 7    0  0.4748297E-002  0.4427152E+03  0.7546771E-02  0.1029917E+00
         21   -1    0    0  502  501  0.00000000000E+00  0.00000000000E+00  0.47377582997E+02  0.47377582997E+02  0.00000000000E+00 0. -1.
         21   -1    0    0  501  502 -0.00000000000E+00 -0.00000000000E+00 -0.10342274250E+04  0.10342274250E+04  0.00000000000E+00 0. -1.
      99926    2    1    2    0    0  0.00000000000E+00  0.00000000000E+00 -0.98684984196E+03  0.10816050080E+04  0.44271523879E+03 0.  0.
      99925    2    3    3    0    0 -0.82731941176E+02 -0.56757893808E+02 -0.59439364126E+03  0.65765287602E+03  0.26294005395E+03 0.  0.
         25    1    4    4    0    0 -0.66558997880E+02 -0.55740694962E+02 -0.27657190567E+03  0.31571609459E+03  0.12509000000E+03 0.  0.
         25    1    3    3    0    0  0.82731941176E+02  0.56757893808E+02 -0.39245620071E+03  0.42395213194E+03  0.12509000000E+03 0.  0.
         25    1    4    4    0    0 -0.16172943297E+02 -0.10171988451E+01 -0.31782173558E+03  0.34193678144E+03  0.12509000000E+03 0.  0.
<mgrwt>
<rscale>  2 0.44271524E+03</rscale>
<asrwt>0</asrwt>
<pdfrwt beam="1">  1       21 0.69672918E-02 0.44271524E+03</pdfrwt>
<pdfrwt beam="2">  1       21 0.15209226E+00 0.44271524E+03</pdfrwt>
<totfact> 0.39820799E+04</totfact>
</mgrwt>
</event>
<event>
 7    0  0.4748297E-002  0.4594997E+03  0.7546771E-02  0.1024926E+00
         21   -1    0    0  502  501  0.00000000000E+00  0.00000000000E+00  0.10280668145E+03  0.10280668145E+03  0.00000000000E+00 0.  1.
         21   -1    0    0  501  502 -0.00000000000E+00 -0.00000000000E+00 -0.51343931008E+03  0.51343931008E+03  0.00000000000E+00 0.  1.
      99926    2    1    2    0    0  0.00000000000E+00 -0.71054273576E-14 -0.41063262862E+03  0.61624599153E+03  0.45949969139E+03 0.  0.
      99925    2    3    3    0    0  0.99189925656E+02  0.50369707027E+02 -0.30752976003E+03  0.41964116364E+03  0.26296084153E+03 0.  0.
         25    1    3    3    0    0 -0.99189925656E+02 -0.50369707027E+02 -0.10310286860E+03  0.19660482789E+03  0.12509000000E+03 0.  0.
         25    1    4    4    0    0  0.24953910278E+02  0.13050069053E+00 -0.10459780018E+03  0.16495733561E+03  0.12509000000E+03 0.  0.
         25    1    4    4    0    0  0.74236015378E+02  0.50239206337E+02 -0.20293195985E+03  0.25468382803E+03  0.12509000000E+03 0.  0.
<mgrwt>
<rscale>  2 0.45949969E+03</rscale>
<asrwt>0</asrwt>
<pdfrwt beam="1">  1       21 0.15118630E-01 0.45949969E+03</pdfrwt>
<pdfrwt beam="2">  1       21 0.75505781E-01 0.45949969E+03</pdfrwt>
<totfact> 0.55683887E+04</totfact>
</mgrwt>
</event>
<event>
 7    0  0.4748297E-002  0.4536950E+03  0.7546771E-02  0.1026626E+00
         21   -1    0    0  502  501  0.00000000000E+00  0.00000000000E+00  0.66264733539E+02  0.66264733539E+02  0.00000000000E+00 0. -1.
         21   -1    0    0  501  502 -0.00000000000E+00 -0.00000000000E+00 -0.77657878451E+03  0.77657878451E+03  0.00000000000E+00 0. -1.
      99926    2    1    2    0    0  0.35527136788E-14  0.00000000000E+00 -0.71031405097E+03  0.84284351805E+03  0.45369499106E+03 0.  0.
      99925    2    3    3    0    0 -0.24107667713E+02 -0.29324472554E+02 -0.64313164517E+03  0.69586702985E+03  0.26300476400E+03 0.  0.
         25    1    3    3    0    0  0.24107667713E+02  0.29324472554E+02 -0.67182405802E+02  0.14697648820E+03  0.12509000000E+03 0.  0.
         25    1    4    4    0    0 -0.52387870195E+01  0.14420784952E+02 -0.23974207740E+03  0.27084899059E+03  0.12509000000E+03 0.  0.
         25    1    4    4    0    0 -0.18868880694E+02 -0.43745257506E+02 -0.40338956777E+03  0.42501803927E+03  0.12509000000E+03 0.  0.
<mgrwt>
<rscale>  2 0.45369499E+03</rscale>
<asrwt>0</asrwt>
<pdfrwt beam="1">  1       21 0.97448143E-02 0.45369499E+03</pdfrwt>
<pdfrwt beam="2">  1       21 0.11420276E+00 0.45369499E+03</pdfrwt>
<totfact> 0.46232744E+04</totfact>
</mgrwt>
</event>
<event>
 7    0  0.4748297E-002  0.4522771E+03  0.7546771E-02  0.1027045E+00
         21   -1    0    0  502  501  0.00000000000E+00  0.00000000000E+00  0.39681509255E+03  0.39681509255E+03  0.00000000000E+00 0.  1.
         21   -1    0    0  501  502 -0.00000000000E+00 -0.00000000000E+00 -0.12887271024E+03  0.12887271024E+03  0.00000000000E+00 0.  1.
      99926    2    1    2    0    0  0.14210854715E-13  0.00000000000E+00  0.26794238230E+03  0.52568780279E+03  0.45227706748E+03 0.  0.
      99925    2    3    3    0    0 -0.91847267737E+02 -0.27639051127E+02  0.10534646120E+03  0.29922637252E+03  0.26313249018E+03 0.  0.
         25    1    3    3    0    0  0.91847267737E+02  0.27639051127E+02  0.16259592111E+03  0.22646143027E+03  0.12509000000E+03 0.  0.
         25    1    4    4    0    0 -0.66323650049E+02  0.21441958267E+02  0.50037235953E+02  0.15168987182E+03  0.12509000000E+03 0.  0.
         25    1    4    4    0    0 -0.25523617688E+02 -0.49081009394E+02  0.55309225244E+02  0.14753650070E+03  0.12509000000E+03 0.  0.
<mgrwt>
<rscale>  2 0.45227707E+03</rscale>
<asrwt>0</asrwt>
<pdfrwt beam="1">  1       21 0.58355160E-01 0.45227707E+03</pdfrwt>
<pdfrwt beam="2">  1       21 0.18951869E-01 0.45227707E+03</pdfrwt>
<totfact> 0.64888663E+04</totfact>
</mgrwt>
</event>
<event>
 7    0  0.4748297E-002  0.4516886E+03  0.7546771E-02  0.1027220E+00
         21   -1    0    0  502  501  0.00000000000E+00  0.00000000000E+00  0.61149124244E+02  0.61149124244E+02  0.00000000000E+00 0. -1.
         21   -1    0    0  501  502 -0.00000000000E+00 -0.00000000000E+00 -0.83411900405E+03  0.83411900405E+03  0.00000000000E+00 0. -1.
      99926    2    1    2    0    0  0.00000000000E+00  0.14210854715E-13 -0.77296987980E+03  0.89526812829E+03  0.45168859455E+03 0.  0.
      99925    2    3    3    0    0 -0.44978360594E+02 -0.74679202587E+02 -0.35252976876E+03  0.44803504443E+03  0.26240832105E+03 0.  0.
         25    1    3    3    0    0  0.44978360594E+02  0.74679202587E+02 -0.42044011105E+03  0.44723308386E+03  0.12509000000E+03 0.  0.
         25    1    4    4    0    0 -0.28225712086E+01 -0.70962365356E+02 -0.16888203601E+03  0.22183839702E+03  0.12509000000E+03 0.  0.
         25    1    4    4    0    0 -0.42155789385E+02 -0.37168372309E+01 -0.18364773275E+03  0.22619664741E+03  0.12509000000E+03 0.  0.
<mgrwt>
<rscale>  2 0.45168859E+03</rscale>
<asrwt>0</asrwt>
<pdfrwt beam="1">  1       21 0.89925190E-02 0.45168859E+03</pdfrwt>
<pdfrwt beam="2">  1       21 0.12266455E+00 0.45168859E+03</pdfrwt>
<totfact> 0.44583692E+04</totfact>
</mgrwt>
</event>
<event>
 7    0  0.4748297E-002  0.4574236E+03  0.7546771E-02  0.1025531E+00
         21   -1    0    0  502  501  0.00000000000E+00  0.00000000000E+00  0.30502571446E+03  0.30502571446E+03  0.00000000000E+00 0.  1.
         21   -1    0    0  501  502 -0.00000000000E+00 -0.00000000000E+00 -0.17149073990E+03  0.17149073990E+03  0.00000000000E+00 0.  1.
      99926    2    1    2    0    0  0.00000000000E+00  0.14210854715E-13  0.13353497456E+03  0.47651645436E+03  0.45742359126E+03 0.  0.
      99925    2    3    3    0    0 -0.76389822705E+02  0.84737765647E+02  0.65496338089E+02  0.29405369626E+03  0.26298652445E+03 0.  0.
         25    1    3    3    0    0  0.76389822705E+02 -0.84737765647E+02  0.68038636469E+02  0.18246275810E+03  0.12509000000E+03 0.  0.
         25    1    4    4    0    0 -0.19301458955E+02  0.74997606292E+02  0.49779432224E+02  0.15531480045E+03  0.12509000000E+03 0.  0.
         25    1    4    4    0    0 -0.57088363751E+02  0.97401593553E+01  0.15716905865E+02  0.13873889581E+03  0.12509000000E+03 0.  0.
<mgrwt>
<rscale>  2 0.45742359E+03</rscale>
<asrwt>0</asrwt>
<pdfrwt beam="1">  1       21 0.44856723E-01 0.45742359E+03</pdfrwt>
<pdfrwt beam="2">  1       21 0.25219226E-01 0.45742359E+03</pdfrwt>
<totfact> 0.65682167E+04</totfact>
</mgrwt>
</event>
<event>
 7    0  0.4748297E-002  0.4594932E+03  0.7546771E-02  0.1024928E+00
         21   -1    0    0  502  501  0.00000000000E+00  0.00000000000E+00  0.84644620664E+02  0.84644620664E+02  0.00000000000E+00 0. -1.
         21   -1    0    0  501  502 -0.00000000000E+00 -0.00000000000E+00 -0.62358958540E+03  0.62358958540E+03  0.00000000000E+00 0. -1.
      99926    2    1    2    0    0  0.00000000000E+00  0.00000000000E+00 -0.53894496474E+03  0.70823420607E+03  0.45949321608E+03 0.  0.
      99925    2    3    3    0    0 -0.16281973781E+02 -0.71242999103E+02 -0.19729676474E+03  0.33713897805E+03  0.26343122358E+03 0.  0.
         25    1    4    4    0    0  0.24277689455E+02 -0.51838939428E+02 -0.75863906063E+02  0.15709717435E+03  0.12509000000E+03 0.  0.
         25    1    3    3    0    0  0.16281973781E+02  0.71242999103E+02 -0.34164820000E+03  0.37109522802E+03  0.12509000000E+03 0.  0.
         25    1    4    4    0    0 -0.40559663237E+02 -0.19404059675E+02 -0.12143285867E+03  0.18004180370E+03  0.12509000000E+03 0.  0.
<mgrwt>
<rscale>  2 0.45949322E+03</rscale>
<asrwt>0</asrwt>
<pdfrwt beam="1">  1       21 0.12447739E-01 0.45949322E+03</pdfrwt>
<pdfrwt beam="2">  1       21 0.91704348E-01 0.45949322E+03</pdfrwt>
<totfact> 0.50643863E+04</totfact>
</mgrwt>
</event>
<event>
 7    0  0.4748297E-002  0.4561451E+03  0.7546771E-02  0.1025905E+00
         21   -1    0    0  502  501  0.00000000000E+00  0.00000000000E+00  0.31261754191E+03  0.31261754191E+03  0.00000000000E+00 0. -1.
         21   -1    0    0  501  502 -0.00000000000E+00 -0.00000000000E+00 -0.16639209052E+03  0.16639209052E+03  0.00000000000E+00 0. -1.
      99926    2    1    2    0    0  0.00000000000E+00  0.00000000000E+00  0.14622545140E+03  0.47900963243E+03  0.45614509241E+03 0.  0.
      99925    2    3    3    0    0  0.67164617028E+02 -0.44554236765E+01  0.18926954222E+03  0.33058039530E+03  0.26254428495E+03 0.  0.
         25    1    4    4    0    0  0.10062886566E+02 -0.21830222230E+01  0.50747706658E+02  0.13538413904E+03  0.12509000000E+03 0.  0.
         25    1    4    4    0    0  0.57101730463E+02 -0.22724014535E+01  0.13852183556E+03  0.19519625626E+03  0.12509000000E+03 0.  0.
         25    1    3    3    0    0 -0.67164617028E+02  0.44554236765E+01 -0.43044090824E+02  0.14842923713E+03  0.12509000000E+03 0.  0.
<mgrwt>
<rscale>  2 0.45614509E+03</rscale>
<asrwt>0</asrwt>
<pdfrwt beam="1">  1       21 0.45973168E-01 0.45614509E+03</pdfrwt>
<pdfrwt beam="2">  1       21 0.24469425E-01 0.45614509E+03</pdfrwt>
<totfact> 0.66168828E+04</totfact>
</mgrwt>
</event>
<event>
 7    0  0.4748297E-002  0.4574138E+03  0.7546771E-02  0.1025534E+00
         21   -1    0    0  502  501  0.00000000000E+00  0.00000000000E+00  0.40694042886E+03  0.40694042886E+03  0.00000000000E+00 0.  1.
         21   -1    0    0  501  502 -0.00000000000E+00 -0.00000000000E+00 -0.12853683964E+03  0.12853683964E+03  0.00000000000E+00 0.  1.
      99926    2    1    2    0    0  0.14210854715E-13  0.71054273576E-14  0.27840358922E+03  0.53547726850E+03  0.45741375864E+03 0.  0.
      99925    2    3    3    0    0 -0.84805080321E+02 -0.25855346672E+02  0.88432803893E+02  0.29135269380E+03  0.26306963104E+03 0.  0.
         25    1    4    4    0    0 -0.12050098326E+02  0.16615991704E+02  0.42580839580E+02  0.13372334145E+03  0.12509000000E+03 0.  0.
         25    1    3    3    0    0  0.84805080321E+02  0.25855346672E+02  0.18997078532E+03  0.24412457471E+03  0.12509000000E+03 0.  0.
         25    1    4    4    0    0 -0.72754981995E+02 -0.42471338377E+02  0.45851964313E+02  0.15762935234E+03  0.12509000000E+03 0.  0.
<mgrwt>
<rscale>  2 0.45741376E+03</rscale>
<asrwt>0</asrwt>
<pdfrwt beam="1">  1       21 0.59844180E-01 0.45741376E+03</pdfrwt>
<pdfrwt beam="2">  1       21 0.18902477E-01 0.45741376E+03</pdfrwt>
<totfact> 0.61649417E+04</totfact>
</mgrwt>
</event>
<event>
 7    0  0.4748297E-002  0.4604198E+03  0.7546771E-02  0.1024660E+00
         21   -1    0    0  502  501  0.00000000000E+00  0.00000000000E+00  0.20710801702E+03  0.20710801702E+03  0.00000000000E+00 0. -1.
         21   -1    0    0  501  502 -0.00000000000E+00 -0.00000000000E+00 -0.25588864566E+03  0.25588864566E+03  0.00000000000E+00 0. -1.
      99926    2    1    2    0    0  0.00000000000E+00 -0.14210854715E-13 -0.48780628648E+02  0.46299666268E+03  0.46041976491E+03 0.  0.
      99925    2    3    3    0    0  0.16250846873E+02 -0.99631159846E+02 -0.92334002307E+02  0.29645879163E+03  0.26300530245E+03 0.  0.
         25    1    4    4    0    0  0.28211144458E+02 -0.13808101496E+02 -0.51753774954E+02  0.13896939829E+03  0.12509000000E+03 0.  0.
         25    1    3    3    0    0 -0.16250846873E+02  0.99631159846E+02  0.43553373659E+02  0.16653787105E+03  0.12509000000E+03 0.  0.
         25    1    4    4    0    0 -0.11960297585E+02 -0.85823058350E+02 -0.40580227353E+02  0.15748939334E+03  0.12509000000E+03 0.  0.
<mgrwt>
<rscale>  2 0.46041976E+03</rscale>
<asrwt>0</asrwt>
<pdfrwt beam="1">  1       21 0.30457061E-01 0.46041976E+03</pdfrwt>
<pdfrwt beam="2">  1       21 0.37630683E-01 0.46041976E+03</pdfrwt>
<totfact> 0.65102824E+04</totfact>
</mgrwt>
</event>
<event>
 7    0  0.4748297E-002  0.4506652E+03  0.7546771E-02  0.1027524E+00
         21   -1    0    0  502  501  0.00000000000E+00  0.00000000000E+00  0.26921514220E+03  0.26921514220E+03  0.00000000000E+00 0. -1.
         21   -1    0    0  501  502 -0.00000000000E+00 -0.00000000000E+00 -0.18860296103E+03  0.18860296103E+03  0.00000000000E+00 0. -1.
      99926    2    1    2    0    0  0.00000000000E+00  0.00000000000E+00  0.80612181176E+02  0.45781810323E+03  0.45066516605E+03 0.  0.
      99925    2    3    3    0    0  0.45993184988E+02 -0.43011306078E+02  0.14150376424E+03  0.30510713930E+03  0.26287203283E+03 0.  0.
         25    1    3    3    0    0 -0.45993184988E+02  0.43011306078E+02 -0.60891583068E+02  0.15271096393E+03  0.12509000000E+03 0.  0.
         25    1    4    4    0    0  0.46522827000E+02 -0.29142520481E+02  0.37024515864E+02  0.14153438737E+03  0.12509000000E+03 0.  0.
         25    1    4    4    0    0 -0.52964201150E+00 -0.13868785597E+02  0.10447924838E+03  0.16357275194E+03  0.12509000000E+03 0.  0.
<mgrwt>
<rscale>  2 0.45066517E+03</rscale>
<asrwt>0</asrwt>
<pdfrwt beam="1">  1       21 0.39590462E-01 0.45066517E+03</pdfrwt>
<pdfrwt beam="2">  1       21 0.27735730E-01 0.45066517E+03</pdfrwt>
<totfact> 0.70753436E+04</totfact>
</mgrwt>
</event>
<event>
 7    0  0.4748297E-002  0.4222471E+03  0.7546771E-02  0.1036337E+00
         21   -1    0    0  502  501  0.00000000000E+00  0.00000000000E+00  0.74047426504E+02  0.74047426504E+02  0.00000000000E+00 0.  1.
         21   -1    0    0  501  502 -0.00000000000E+00 -0.00000000000E+00 -0.60195405840E+03  0.60195405840E+03  0.00000000000E+00 0.  1.
      99926    2    1    2    0    0  0.00000000000E+00  0.00000000000E+00 -0.52790663190E+03  0.67600148490E+03  0.42224707884E+03 0.  0.
      99925    2    3    3    0    0  0.70701205365E+02 -0.19365799123E+01 -0.39778323068E+03  0.48214066260E+03  0.26310778996E+03 0.  0.
         25    1    4    4    0    0  0.53542513426E+02 -0.87178120546E+01 -0.14228663368E+03  0.19706799643E+03  0.12509000000E+03 0.  0.
         25    1    4    4    0    0  0.17158691939E+02  0.67812321422E+01 -0.25549659700E+03  0.28507266617E+03  0.12509000000E+03 0.  0.
         25    1    3    3    0    0 -0.70701205365E+02  0.19365799123E+01 -0.13012340121E+03  0.19386082231E+03  0.12509000000E+03 0.  0.
<mgrwt>
<rscale>  2 0.42224708E+03</rscale>
<asrwt>0</asrwt>
<pdfrwt beam="1">  1       21 0.10889328E-01 0.42224708E+03</pdfrwt>
<pdfrwt beam="2">  1       21 0.88522655E-01 0.42224708E+03</pdfrwt>
<totfact> 0.70793409E+04</totfact>
</mgrwt>
</event>
<event>
 7    0  0.4748297E-002  0.4537348E+03  0.7546771E-02  0.1026614E+00
         21   -1    0    0  502  501  0.00000000000E+00  0.00000000000E+00  0.87908101974E+03  0.87908101974E+03  0.00000000000E+00 0.  1.
         21   -1    0    0  501  502 -0.00000000000E+00 -0.00000000000E+00 -0.58548438557E+02  0.58548438557E+02  0.00000000000E+00 0.  1.
      99926    2    1    2    0    0 -0.71054273576E-14 -0.14210854715E-13  0.82053258118E+03  0.93762945829E+03  0.45373481714E+03 0.  0.
      99925    2    3    3    0    0  0.41971421980E+02  0.85074047147E+02  0.39355467202E+03  0.48270436910E+03  0.26290499106E+03 0.  0.
         25    1    4    4    0    0  0.30996273774E+02  0.40973011694E+02  0.13065547345E+03  0.18803701103E+03  0.12509000000E+03 0.  0.
         25    1    4    4    0    0  0.10975148207E+02  0.44101035453E+02  0.26289919857E+03  0.29466735808E+03  0.12509000000E+03 0.  0.
         25    1    3    3    0    0 -0.41971421980E+02 -0.85074047147E+02  0.42697790916E+03  0.45492508919E+03  0.12509000000E+03 0.  0.
<mgrwt>
<rscale>  2 0.45373482E+03</rscale>
<asrwt>0</asrwt>
<pdfrwt beam="1">  1       21 0.12927661E+00 0.45373482E+03</pdfrwt>
<pdfrwt beam="2">  1       21 0.86100651E-02 0.45373482E+03</pdfrwt>
<totfact> 0.42060466E+04</totfact>
</mgrwt>
</event>
<event>
 7    0  0.4748297E-002  0.4525171E+03  0.7546771E-02  0.1026974E+00
         21   -1    0    0  502  501  0.00000000000E+00  0.00000000000E+00  0.51357745209E+03  0.51357745209E+03  0.00000000000E+00 0. -1.
         21   -1    0    0  501  502 -0.00000000000E+00 -0.00000000000E+00 -0.99679105553E+02  0.99679105553E+02  0.00000000000E+00 0. -1.
      99926    2    1    2    0    0  0.00000000000E+00 -0.51070259133E-14  0.41389834654E+03  0.61325655765E+03  0.45251714247E+03 0.  0.
      99925    2    3    3    0    0 -0.74151386567E+02 -0.18608677169E+01  0.14917746556E+03  0.31121923564E+03  0.26287184224E+03 0.  0.
         25    1    4    4    0    0 -0.46744091222E+02 -0.38217815837E+02  0.90225210313E+02  0.16563124158E+03  0.12509000000E+03 0.  0.
         25    1    4    4    0    0 -0.27407295345E+02  0.36356948120E+02  0.58952255245E+02  0.14558799406E+03  0.12509000000E+03 0.  0.
         25    1    3    3    0    0  0.74151386567E+02  0.18608677169E+01  0.26472088098E+03  0.30203732201E+03  0.12509000000E+03 0.  0.
<mgrwt>
<rscale>  2 0.45251714E+03</rscale>
<asrwt>0</asrwt>
<pdfrwt beam="1">  1       21 0.75526094E-01 0.45251714E+03</pdfrwt>
<pdfrwt beam="2">  1       21 0.14658692E-01 0.45251714E+03</pdfrwt>
<totfact> 0.59018473E+04</totfact>
</mgrwt>
</event>
<event>
 7    0  0.4748297E-002  0.4549716E+03  0.7546771E-02  0.1026250E+00
         21   -1    0    0  502  501  0.00000000000E+00  0.00000000000E+00  0.74765461293E+02  0.74765461293E+02  0.00000000000E+00 0. -1.
         21   -1    0    0  501  502 -0.00000000000E+00 -0.00000000000E+00 -0.69216177857E+03  0.69216177857E+03  0.00000000000E+00 0. -1.
      99926    2    1    2    0    0 -0.71054273576E-14  0.00000000000E+00 -0.61739631727E+03  0.76692723986E+03  0.45497162401E+03 0.  0.
      99925    2    3    3    0    0  0.44439838820E+02  0.10873699429E+02 -0.21424839009E+03  0.34234639255E+03  0.26306946463E+03 0.  0.
         25    1    3    3    0    0 -0.44439838820E+02 -0.10873699429E+02 -0.40314792718E+03  0.42458084731E+03  0.12509000000E+03 0.  0.
         25    1    4    4    0    0  0.21316566924E+02  0.10137174591E+02 -0.15893547420E+03  0.20362993737E+03  0.12509000000E+03 0.  0.
         25    1    4    4    0    0  0.23123271896E+02  0.73652483772E+00 -0.55312915890E+02  0.13871645517E+03  0.12509000000E+03 0.  0.
<mgrwt>
<rscale>  2 0.45497162E+03</rscale>
<asrwt>0</asrwt>
<pdfrwt beam="1">  1       21 0.10994921E-01 0.45497162E+03</pdfrwt>
<pdfrwt beam="2">  1       21 0.10178850E+00 0.45497162E+03</pdfrwt>
<totfact> 0.49416976E+04</totfact>
</mgrwt>
</event>
<event>
 7    0  0.4748297E-002  0.4549368E+03  0.7546771E-02  0.1026260E+00
         21   -1    0    0  502  501  0.00000000000E+00  0.00000000000E+00  0.16613026138E+03  0.16613026138E+03  0.00000000000E+00 0. -1.
         21   -1    0    0  501  502 -0.00000000000E+00 -0.00000000000E+00 -0.31145367466E+03  0.31145367466E+03  0.00000000000E+00 0. -1.
      99926    2    1    2    0    0  0.00000000000E+00  0.00000000000E+00 -0.14532341327E+03  0.47758393604E+03  0.45493683245E+03 0.  0.
      99925    2    3    3    0    0  0.46354139113E+02  0.94418531301E+02 -0.47807639934E+02  0.28726735921E+03  0.26300836482E+03 0.  0.
         25    1    4    4    0    0  0.70392943704E+01  0.72093964950E+02 -0.53508836235E+02  0.15413563865E+03  0.12509000000E+03 0.  0.
         25    1    4    4    0    0  0.39314844742E+02  0.22324566351E+02  0.57011963011E+01  0.13313172056E+03  0.12509000000E+03 0.  0.
         25    1    3    3    0    0 -0.46354139113E+02 -0.94418531301E+02 -0.97515773339E+02  0.19031657683E+03  0.12509000000E+03 0.  0.
<mgrwt>
<rscale>  2 0.45493683E+03</rscale>
<asrwt>0</asrwt>
<pdfrwt beam="1">  1       21 0.24430921E-01 0.45493683E+03</pdfrwt>
<pdfrwt beam="2">  1       21 0.45802011E-01 0.45493683E+03</pdfrwt>
<totfact> 0.66909929E+04</totfact>
</mgrwt>
</event>
<event>
 7    0  0.4748297E-002  0.4617953E+03  0.7546771E-02  0.1024262E+00
         21   -1    0    0  502  501  0.00000000000E+00  0.00000000000E+00  0.15167354643E+03  0.15167354643E+03  0.00000000000E+00 0. -1.
         21   -1    0    0  501  502 -0.00000000000E+00 -0.00000000000E+00 -0.35150318401E+03  0.35150318401E+03  0.00000000000E+00 0. -1.
      99926    2    1    2    0    0  0.71054273576E-14  0.17763568394E-14 -0.19982963758E+03  0.50317673044E+03  0.46179534212E+03 0.  0.
      99925    2    3    3    0    0  0.38340505033E+02 -0.14784416715E+02 -0.24733772340E+03  0.36320137682E+03  0.26277503192E+03 0.  0.
         25    1    3    3    0    0 -0.38340505033E+02  0.14784416715E+02  0.47508085822E+02  0.13997535362E+03  0.12509000000E+03 0.  0.
         25    1    4    4    0    0  0.50588940480E+02 -0.23734199182E+02 -0.15571233558E+03  0.20740393598E+03  0.12509000000E+03 0.  0.
         25    1    4    4    0    0 -0.12248435447E+02  0.89497824666E+01 -0.91625387824E+02  0.15579744084E+03  0.12509000000E+03 0.  0.
<mgrwt>
<rscale>  2 0.46179534E+03</rscale>
<asrwt>0</asrwt>
<pdfrwt beam="1">  1       21 0.22304933E-01 0.46179534E+03</pdfrwt>
<pdfrwt beam="2">  1       21 0.51691644E-01 0.46179534E+03</pdfrwt>
<totfact> 0.61654551E+04</totfact>
</mgrwt>
</event>
<event>
 7    0  0.4748297E-002  0.4427447E+03  0.7546771E-02  0.1029908E+00
         21   -1    0    0  502  501  0.00000000000E+00  0.00000000000E+00  0.62966836596E+02  0.62966836596E+02  0.00000000000E+00 0.  1.
         21   -1    0    0  501  502 -0.00000000000E+00 -0.00000000000E+00 -0.77827834675E+03  0.77827834675E+03  0.00000000000E+00 0.  1.
      99926    2    1    2    0    0  0.00000000000E+00  0.00000000000E+00 -0.71531151016E+03  0.84124518335E+03  0.44274473678E+03 0.  0.
      99925    2    3    3    0    0 -0.79522794907E+02 -0.34102190773E+02 -0.55512404639E+03  0.62035071539E+03  0.26303130780E+03 0.  0.
         25    1    4    4    0    0 -0.12163866150E+02  0.14909220328E+02 -0.24807824428E+03  0.27849698001E+03  0.12509000000E+03 0.  0.
         25    1    4    4    0    0 -0.67358928758E+02 -0.49011411102E+02 -0.30704580211E+03  0.34185373538E+03  0.12509000000E+03 0.  0.
         25    1    3    3    0    0  0.79522794907E+02  0.34102190773E+02 -0.16018746377E+03  0.22089446796E+03  0.12509000000E+03 0.  0.
<mgrwt>
<rscale>  2 0.44274474E+03</rscale>
<asrwt>0</asrwt>
<pdfrwt beam="1">  1       21 0.92598296E-02 0.44274474E+03</pdfrwt>
<pdfrwt beam="2">  1       21 0.11445269E+00 0.44274474E+03</pdfrwt>
<totfact> 0.50518274E+04</totfact>
</mgrwt>
</event>
<event>
 7    0  0.4748297E-002  0.4541505E+03  0.7546771E-02  0.1026492E+00
         21   -1    0    0  502  501  0.00000000000E+00  0.00000000000E+00  0.50859680276E+02  0.50859680276E+02  0.00000000000E+00 0. -1.
         21   -1    0    0  501  502 -0.00000000000E+00 -0.00000000000E+00 -0.10138319953E+04  0.10138319953E+04  0.00000000000E+00 0. -1.
      99926    2    1    2    0    0  0.00000000000E+00  0.00000000000E+00 -0.96297231501E+03  0.10646916756E+04  0.45415050868E+03 0.  0.
      99925    2    3    3    0    0 -0.94481143237E+02 -0.41604769613E+02 -0.50295321160E+03  0.57691844250E+03  0.26308803273E+03 0.  0.
         25    1    4    4    0    0 -0.11763780000E+02 -0.15336106156E+02 -0.27585477264E+03  0.30350773690E+03  0.12509000000E+03 0.  0.
         25    1    4    4    0    0 -0.82717363237E+02 -0.26268663457E+02 -0.22709843895E+03  0.27341070560E+03  0.12509000000E+03 0.  0.
         25    1    3    3    0    0  0.94481143237E+02  0.41604769613E+02 -0.46001910341E+03  0.48777323305E+03  0.12509000000E+03 0.  0.
<mgrwt>
<rscale>  2 0.45415051E+03</rscale>
<asrwt>0</asrwt>
<pdfrwt beam="1">  1       21 0.74793650E-02 0.45415051E+03</pdfrwt>
<pdfrwt beam="2">  1       21 0.14909294E+00 0.45415051E+03</pdfrwt>
<totfact> 0.36987487E+04</totfact>
</mgrwt>
</event>
<event>
 7    0  0.4748297E-002  0.4620264E+03  0.7546771E-02  0.1024195E+00
         21   -1    0    0  502  501  0.00000000000E+00  0.00000000000E+00  0.15896829004E+03  0.15896829004E+03  0.00000000000E+00 0.  1.
         21   -1    0    0  501  502 -0.00000000000E+00 -0.00000000000E+00 -0.33570914571E+03  0.33570914571E+03  0.00000000000E+00 0.  1.
      99926    2    1    2    0    0  0.71054273576E-14  0.00000000000E+00 -0.17674085566E+03  0.49467743575E+03  0.46202644446E+03 0.  0.
      99925    2    3    3    0    0  0.39584134655E+02  0.10186008892E+03 -0.57764452117E+02  0.29036083307E+03  0.26273617950E+03 0.  0.
         25    1    4    4    0    0 -0.19232240814E+02  0.47963170038E+02 -0.38765601605E+02  0.14078574052E+03  0.12509000000E+03 0.  0.
         25    1    4    4    0    0  0.58816375470E+02  0.53896918881E+02 -0.18998850512E+02  0.14957509254E+03  0.12509000000E+03 0.  0.
         25    1    3    3    0    0 -0.39584134655E+02 -0.10186008892E+03 -0.11897640355E+03  0.20431660268E+03  0.12509000000E+03 0.  0.
<mgrwt>
<rscale>  2 0.46202644E+03</rscale>
<asrwt>0</asrwt>
<pdfrwt beam="1">  1       21 0.23377690E-01 0.46202644E+03</pdfrwt>
<pdfrwt beam="2">  1       21 0.49368992E-01 0.46202644E+03</pdfrwt>
<totfact> 0.62108798E+04</totfact>
</mgrwt>
</event>
<event>
 7    0  0.4748297E-002  0.4578583E+03  0.7546771E-02  0.1025404E+00
         21   -1    0    0  502  501  0.00000000000E+00  0.00000000000E+00  0.45592480387E+03  0.45592480387E+03  0.00000000000E+00 0. -1.
         21   -1    0    0  501  502 -0.00000000000E+00 -0.00000000000E+00 -0.11494998388E+03  0.11494998388E+03  0.00000000000E+00 0. -1.
      99926    2    1    2    0    0  0.35527136788E-14  0.00000000000E+00  0.34097482000E+03  0.57087478775E+03  0.45785827001E+03 0.  0.
      99925    2    3    3    0    0 -0.24625549960E+02  0.21039955095E+02  0.75444939822E+02  0.27557371632E+03  0.26305861849E+03 0.  0.
         25    1    3    3    0    0  0.24625549960E+02 -0.21039955095E+02  0.26552988017E+03  0.29530107143E+03  0.12509000000E+03 0.  0.
         25    1    4    4    0    0  0.11244578919E+02  0.20447707361E+02  0.70217586722E+02  0.14533604810E+03  0.12509000000E+03 0.  0.
         25    1    4    4    0    0 -0.35870128879E+02  0.59224773412E+00  0.52273530992E+01  0.13023766822E+03  0.12509000000E+03 0.  0.
<mgrwt>
<rscale>  2 0.45785827E+03</rscale>
<asrwt>0</asrwt>
<pdfrwt beam="1">  1       21 0.67047765E-01 0.45785827E+03</pdfrwt>
<pdfrwt beam="2">  1       21 0.16904409E-01 0.45785827E+03</pdfrwt>
<totfact> 0.59159279E+04</totfact>
</mgrwt>
</event>
<event>
 7    0  0.4748297E-002  0.4504037E+03  0.7546771E-02  0.1027602E+00
         21   -1    0    0  502  501  0.00000000000E+00  0.00000000000E+00  0.12101749102E+03  0.12101749102E+03  0.00000000000E+00 0.  1.
         21   -1    0    0  501  502 -0.00000000000E+00 -0.00000000000E+00 -0.41907891812E+03  0.41907891812E+03  0.00000000000E+00 0.  1.
      99926    2    1    2    0    0  0.00000000000E+00 -0.35527136788E-14 -0.29806142711E+03  0.54009640914E+03  0.45040372649E+03 0.  0.
      99925    2    3    3    0    0  0.30851559693E+02  0.24455076784E+02 -0.30994868572E+03  0.40841997035E+03  0.26303766819E+03 0.  0.
         25    1    3    3    0    0 -0.30851559693E+02 -0.24455076784E+02  0.11887258609E+02  0.13167643879E+03  0.12509000000E+03 0.  0.
         25    1    4    4    0    0 -0.68761913560E+01 -0.21665708284E+02 -0.13910220370E+03  0.18845056672E+03  0.12509000000E+03 0.  0.
         25    1    4    4    0    0  0.37727751049E+02  0.46120785068E+02 -0.17084648202E+03  0.21996940363E+03  0.12509000000E+03 0.  0.
<mgrwt>
<rscale>  2 0.45040373E+03</rscale>
<asrwt>0</asrwt>
<pdfrwt beam="1">  1       21 0.17796690E-01 0.45040373E+03</pdfrwt>
<pdfrwt beam="2">  1       21 0.61629253E-01 0.45040373E+03</pdfrwt>
<totfact> 0.64852696E+04</totfact>
</mgrwt>
</event>
<event>
 7    0  0.4748297E-002  0.4531495E+03  0.7546771E-02  0.1026787E+00
         21   -1    0    0  502  501  0.00000000000E+00  0.00000000000E+00  0.16372974312E+04  0.16372974312E+04  0.00000000000E+00 0. -1.
         21   -1    0    0  501  502 -0.00000000000E+00 -0.00000000000E+00 -0.31354183960E+02  0.31354183960E+02  0.00000000000E+00 0. -1.
      99926    2    1    2    0    0  0.00000000000E+00  0.26645352591E-14  0.16059432473E+04  0.16686516152E+04  0.45314953318E+03 0.  0.
      99925    2    3    3    0    0 -0.10563010866E+03  0.72316912347E+01  0.88431413338E+03  0.92864749133E+03  0.26299174787E+03 0.  0.
         25    1    3    3    0    0  0.10563010866E+03 -0.72316912347E+01  0.72162911391E+03  0.74000412388E+03  0.12509000000E+03 0.  0.
         25    1    4    4    0    0 -0.65669705200E+02  0.28027452879E+02  0.55794797540E+03  0.57623909937E+03  0.12509000000E+03 0.  0.
         25    1    4    4    0    0 -0.39960403457E+02 -0.20795761644E+02  0.32636615798E+03  0.35240839196E+03  0.12509000000E+03 0.  0.
<mgrwt>
<rscale>  2 0.45314953E+03</rscale>
<asrwt>0</asrwt>
<pdfrwt beam="1">  1       21 0.24077898E+00 0.45314953E+03</pdfrwt>
<pdfrwt beam="2">  1       21 0.46109105E-02 0.45314953E+03</pdfrwt>
<totfact> 0.20210824E+04</totfact>
</mgrwt>
</event>
<event>
 7    0  0.4748297E-002  0.4556614E+03  0.7546771E-02  0.1026047E+00
         21   -1    0    0  502  501  0.00000000000E+00  0.00000000000E+00  0.11163272649E+03  0.11163272649E+03  0.00000000000E+00 0.  1.
         21   -1    0    0  501  502 -0.00000000000E+00 -0.00000000000E+00 -0.46497850873E+03  0.46497850873E+03  0.00000000000E+00 0.  1.
      99926    2    1    2    0    0 -0.35527136788E-14  0.00000000000E+00 -0.35334578225E+03  0.57661123522E+03  0.45566135973E+03 0.  0.
      99925    2    3    3    0    0 -0.31762407316E+02  0.64719093471E+02 -0.11099915426E+03  0.29451761995E+03  0.26310151013E+03 0.  0.
         25    1    4    4    0    0  0.16417622079E+02  0.15750541757E+02 -0.73913083744E+02  0.14706552937E+03  0.12509000000E+03 0.  0.
         25    1    4    4    0    0 -0.48180029395E+02  0.48968551713E+02 -0.37086070512E+02  0.14745209058E+03  0.12509000000E+03 0.  0.
         25    1    3    3    0    0  0.31762407316E+02 -0.64719093471E+02 -0.24234662799E+03  0.28209361527E+03  0.12509000000E+03 0.  0.
<mgrwt>
<rscale>  2 0.45566136E+03</rscale>
<asrwt>0</asrwt>
<pdfrwt beam="1">  1       21 0.16416578E-01 0.45566136E+03</pdfrwt>
<pdfrwt beam="2">  1       21 0.68379191E-01 0.45566136E+03</pdfrwt>
<totfact> 0.59828053E+04</totfact>
</mgrwt>
</event>
<event>
 7    0  0.4748297E-002  0.4508815E+03  0.7546771E-02  0.1027460E+00
         21   -1    0    0  502  501  0.00000000000E+00  0.00000000000E+00  0.54325035084E+03  0.54325035084E+03  0.00000000000E+00 0. -1.
         21   -1    0    0  501  502 -0.00000000000E+00 -0.00000000000E+00 -0.93554526956E+02  0.93554526956E+02  0.00000000000E+00 0. -1.
      99926    2    1    2    0    0  0.00000000000E+00  0.00000000000E+00  0.44969582389E+03  0.63680487780E+03  0.45088149038E+03 0.  0.
      99925    2    3    3    0    0 -0.89899045146E+02  0.17393098816E+02  0.19992257677E+03  0.34283457100E+03  0.26302499532E+03 0.  0.
         25    1    3    3    0    0  0.89899045146E+02 -0.17393098816E+02  0.24977324712E+03  0.29397030680E+03  0.12509000000E+03 0.  0.
         25    1    4    4    0    0 -0.75703364444E+02  0.11979541116E+02  0.72545723032E+02  0.16366092638E+03  0.12509000000E+03 0.  0.
         25    1    4    4    0    0 -0.14195680702E+02  0.54135577005E+01  0.12737685373E+03  0.17917364461E+03  0.12509000000E+03 0.  0.
<mgrwt>
<rscale>  2 0.45088149E+03</rscale>
<asrwt>0</asrwt>
<pdfrwt beam="1">  1       21 0.79889756E-01 0.45088149E+03</pdfrwt>
<pdfrwt beam="2">  1       21 0.13758019E-01 0.45088149E+03</pdfrwt>
<totfact> 0.58341447E+04</totfact>
</mgrwt>
</event>
<event>
 7    0  0.4748297E-002  0.4313997E+03  0.7546771E-02  0.1033419E+00
         21   -1    0    0  502  501  0.00000000000E+00  0.00000000000E+00  0.39036920202E+03  0.39036920202E+03  0.00000000000E+00 0. -1.
         21   -1    0    0  501  502 -0.00000000000E+00 -0.00000000000E+00 -0.11918569030E+03  0.11918569030E+03  0.00000000000E+00 0. -1.
      99926    2    1    2    0    0  0.00000000000E+00  0.00000000000E+00  0.27118351171E+03  0.50955489232E+03  0.43139968853E+03 0.  0.
      99925    2    3    3    0    0  0.81088826316E+02  0.28591627848E+02  0.20265985234E+03  0.34301396963E+03  0.26304883325E+03 0.  0.
         25    1    4    4    0    0  0.24846169139E+01 -0.53076141625E+00  0.10689785995E+03  0.16456340903E+03  0.12509000000E+03 0.  0.
         25    1    3    3    0    0 -0.81088826316E+02 -0.28591627848E+02  0.68523659373E+02  0.16654092269E+03  0.12509000000E+03 0.  0.
         25    1    4    4    0    0  0.78604209402E+02  0.29122389264E+02  0.95761992388E+02  0.17845056060E+03  0.12509000000E+03 0.  0.
<mgrwt>
<rscale>  2 0.43139969E+03</rscale>
<asrwt>0</asrwt>
<pdfrwt beam="1">  1       21 0.57407235E-01 0.43139969E+03</pdfrwt>
<pdfrwt beam="2">  1       21 0.17527308E-01 0.43139969E+03</pdfrwt>
<totfact> 0.78253585E+04</totfact>
</mgrwt>
</event>
<event>
 7    0  0.4748297E-002  0.4530221E+03  0.7546771E-02  0.1026825E+00
         21   -1    0    0  502  501  0.00000000000E+00  0.00000000000E+00  0.12015849140E+03  0.12015849140E+03  0.00000000000E+00 0.  1.
         21   -1    0    0  501  502 -0.00000000000E+00 -0.00000000000E+00 -0.42699659804E+03  0.42699659804E+03  0.00000000000E+00 0.  1.
      99926    2    1    2    0    0  0.00000000000E+00 -0.71054273576E-14 -0.30683810664E+03  0.54715508944E+03  0.45302214980E+03 0.  0.
      99925    2    3    3    0    0 -0.97517234055E+02 -0.53289854231E+02 -0.18584402226E+03  0.34066902197E+03  0.26299802741E+03 0.  0.
         25    1    3    3    0    0  0.97517234055E+02  0.53289854231E+02 -0.12099408438E+03  0.20648606747E+03  0.12509000000E+03 0.  0.
         25    1    4    4    0    0 -0.42660360425E+02  0.82107907654E+01 -0.61570529203E+02  0.14603342632E+03  0.12509000000E+03 0.  0.
         25    1    4    4    0    0 -0.54856873630E+02 -0.61500644997E+02 -0.12427349306E+03  0.19463559565E+03  0.12509000000E+03 0.  0.
<mgrwt>
<rscale>  2 0.45302215E+03</rscale>
<asrwt>0</asrwt>
<pdfrwt beam="1">  1       21 0.17670366E-01 0.45302215E+03</pdfrwt>
<pdfrwt beam="2">  1       21 0.62793618E-01 0.45302215E+03</pdfrwt>
<totfact> 0.63035605E+04</totfact>
</mgrwt>
</event>
<event>
 7    0  0.4748297E-002  0.4532140E+03  0.7546771E-02  0.1026768E+00
         21   -1    0    0  502  501  0.00000000000E+00  0.00000000000E+00  0.53943344896E+03  0.53943344896E+03  0.00000000000E+00 0. -1.
         21   -1    0    0  501  502 -0.00000000000E+00 -0.00000000000E+00 -0.95193808786E+02  0.95193808786E+02  0.00000000000E+00 0. -1.
      99926    2    1    2    0    0 -0.35527136788E-14 -0.14210854715E-13  0.44423964017E+03  0.63462725774E+03  0.45321396533E+03 0.  0.
      99925    2    3    3    0    0 -0.11388708454E+02 -0.99569385272E+02  0.34642966395E+03  0.44685594814E+03  0.26386163259E+03 0.  0.
         25    1    4    4    0    0  0.18874916036E+02 -0.71757205977E+02  0.22391849816E+03  0.26700629390E+03  0.12509000000E+03 0.  0.
         25    1    4    4    0    0 -0.30263624489E+02 -0.27812179295E+02  0.12251116579E+03  0.17984965424E+03  0.12509000000E+03 0.  0.
         25    1    3    3    0    0  0.11388708454E+02  0.99569385272E+02  0.97809976217E+02  0.18777130961E+03  0.12509000000E+03 0.  0.
<mgrwt>
<rscale>  2 0.45321397E+03</rscale>
<asrwt>0</asrwt>
<pdfrwt beam="1">  1       21 0.79328447E-01 0.45321397E+03</pdfrwt>
<pdfrwt beam="2">  1       21 0.13999090E-01 0.45321397E+03</pdfrwt>
<totfact> 0.57400818E+04</totfact>
</mgrwt>
</event>
<event>
 7    0  0.4748297E-002  0.4564340E+03  0.7546771E-02  0.1025821E+00
         21   -1    0    0  502  501  0.00000000000E+00  0.00000000000E+00  0.34527969917E+02  0.34527969917E+02  0.00000000000E+00 0.  1.
         21   -1    0    0  501  502 -0.00000000000E+00 -0.00000000000E+00 -0.15084292566E+04  0.15084292566E+04  0.00000000000E+00 0.  1.
      99926    2    1    2    0    0  0.00000000000E+00  0.00000000000E+00 -0.14739012867E+04  0.15429572265E+04  0.45643400397E+03 0.  0.
      99925    2    3    3    0    0 -0.91717484600E+02 -0.35671413779E+02 -0.11242737656E+04  0.11588069195E+04  0.26297800298E+03 0.  0.
         25    1    4    4    0    0 -0.79265378820E+02  0.44473006346E+01 -0.55434978644E+03  0.57380656374E+03  0.12509000000E+03 0.  0.
         25    1    4    4    0    0 -0.12452105780E+02 -0.40118714414E+02 -0.56992397914E+03  0.58500035580E+03  0.12509000000E+03 0.  0.
         25    1    3    3    0    0  0.91717484600E+02  0.35671413779E+02 -0.34962752111E+03  0.38415030699E+03  0.12509000000E+03 0.  0.
<mgrwt>
<rscale>  2 0.45643400E+03</rscale>
<asrwt>0</asrwt>
<pdfrwt beam="1">  1       21 0.50776428E-02 0.45643400E+03</pdfrwt>
<pdfrwt beam="2">  1       21 0.22182783E+00 0.45643400E+03</pdfrwt>
<totfact> 0.22494129E+04</totfact>
</mgrwt>
</event>
<event>
 7    0  0.4748297E-002  0.4488420E+03  0.7546771E-02  0.1028068E+00
         21   -1    0    0  502  501  0.00000000000E+00  0.00000000000E+00  0.10200455268E+03  0.10200455268E+03  0.00000000000E+00 0.  1.
         21   -1    0    0  501  502 -0.00000000000E+00 -0.00000000000E+00 -0.49375039544E+03  0.49375039544E+03  0.00000000000E+00 0.  1.
      99926    2    1    2    0    0  0.00000000000E+00  0.00000000000E+00 -0.39174584276E+03  0.59575494811E+03  0.44884201327E+03 0.  0.
      99925    2    3    3    0    0 -0.85191889602E+02  0.36769279068E+02 -0.17626892204E+03  0.32988383384E+03  0.26295051439E+03 0.  0.
         25    1    4    4    0    0 -0.30050886881E+01  0.81385247138E+01 -0.93959998822E+02  0.15668840296E+03  0.12509000000E+03 0.  0.
         25    1    4    4    0    0 -0.82186800914E+02  0.28630754354E+02 -0.82308923216E+02  0.17319543089E+03  0.12509000000E+03 0.  0.
         25    1    3    3    0    0  0.85191889602E+02 -0.36769279068E+02 -0.21547692072E+03  0.26587111427E+03  0.12509000000E+03 0.  0.
<mgrwt>
<rscale>  2 0.44884201E+03</rscale>
<asrwt>0</asrwt>
<pdfrwt beam="1">  1       21 0.15000670E-01 0.44884201E+03</pdfrwt>
<pdfrwt beam="2">  1       21 0.72610352E-01 0.44884201E+03</pdfrwt>
<totfact> 0.61897757E+04</totfact>
</mgrwt>
</event>
<event>
 7    0  0.4748297E-002  0.4540140E+03  0.7546771E-02  0.1026532E+00
         21   -1    0    0  502  501  0.00000000000E+00  0.00000000000E+00  0.22478919803E+03  0.22478919803E+03  0.00000000000E+00 0. -1.
         21   -1    0    0  501  502 -0.00000000000E+00 -0.00000000000E+00 -0.22924664123E+03  0.22924664123E+03  0.00000000000E+00 0. -1.
      99926    2    1    2    0    0 -0.35527136788E-14 -0.14210854715E-13 -0.44574431987E+01  0.45403583925E+03  0.45401395852E+03 0.  0.
      99925    2    3    3    0    0  0.28853203634E+02  0.10056727940E+03 -0.43449699097E+02  0.28636297572E+03  0.26300112636E+03 0.  0.
         25    1    4    4    0    0 -0.21057735742E+02  0.27539173601E+02 -0.22256509509E+02  0.13169925828E+03  0.12509000000E+03 0.  0.
         25    1    4    4    0    0  0.49910939377E+02  0.73028105799E+02 -0.21193189588E+02  0.15466371744E+03  0.12509000000E+03 0.  0.
         25    1    3    3    0    0 -0.28853203634E+02 -0.10056727940E+03  0.38992255898E+02  0.16767286353E+03  0.12509000000E+03 0.  0.
<mgrwt>
<rscale>  2 0.45401396E+03</rscale>
<asrwt>0</asrwt>
<pdfrwt beam="1">  1       21 0.33057235E-01 0.45401396E+03</pdfrwt>
<pdfrwt beam="2">  1       21 0.33712741E-01 0.45401396E+03</pdfrwt>
<totfact> 0.69158997E+04</totfact>
</mgrwt>
</event>
<event>
 7    0  0.4748297E-002  0.4560014E+03  0.7546771E-02  0.1025947E+00
         21   -1    0    0  502  501  0.00000000000E+00  0.00000000000E+00  0.13072453406E+04  0.13072453406E+04  0.00000000000E+00 0. -1.
         21   -1    0    0  501  502 -0.00000000000E+00 -0.00000000000E+00 -0.39766303416E+02  0.39766303416E+02  0.00000000000E+00 0. -1.
      99926    2    1    2    0    0  0.71054273576E-14  0.14210854715E-13  0.12674790372E+04  0.13470116441E+04  0.45600138094E+03 0.  0.
      99925    2    3    3    0    0  0.59022328898E+02 -0.78756022185E+02  0.62620744459E+03  0.68628256951E+03  0.26298641639E+03 0.  0.
         25    1    4    4    0    0  0.46491945123E+02 -0.19965020109E+02  0.38548081936E+03  0.40841531947E+03  0.12509000000E+03 0.  0.
         25    1    3    3    0    0 -0.59022328898E+02  0.78756022185E+02  0.64127159263E+03  0.66072907455E+03  0.12509000000E+03 0.  0.
         25    1    4    4    0    0  0.12530383776E+02 -0.58791002076E+02  0.24072662524E+03  0.27786725003E+03  0.12509000000E+03 0.  0.
<mgrwt>
<rscale>  2 0.45600138E+03</rscale>
<asrwt>0</asrwt>
<pdfrwt beam="1">  1       21 0.19224193E+00 0.45600138E+03</pdfrwt>
<pdfrwt beam="2">  1       21 0.58479867E-02 0.45600138E+03</pdfrwt>
<totfact> 0.27563681E+04</totfact>
</mgrwt>
</event>
<event>
 7    0  0.4748297E-002  0.4514445E+03  0.7546771E-02  0.1027292E+00
         21   -1    0    0  502  501  0.00000000000E+00  0.00000000000E+00  0.78989335294E+02  0.78989335294E+02  0.00000000000E+00 0. -1.
         21   -1    0    0  501  502 -0.00000000000E+00 -0.00000000000E+00 -0.64503050320E+03  0.64503050320E+03  0.00000000000E+00 0. -1.
      99926    2    1    2    0    0  0.00000000000E+00  0.00000000000E+00 -0.56604116790E+03  0.72401983849E+03  0.45144448470E+03 0.  0.
      99925    2    3    3    0    0  0.49790176379E+02  0.95924924681E+02 -0.38932988633E+03  0.48203835578E+03  0.26287366398E+03 0.  0.
         25    1    3    3    0    0 -0.49790176379E+02 -0.95924924681E+02 -0.17671128158E+03  0.24198148271E+03  0.12509000000E+03 0.  0.
         25    1    4    4    0    0 -0.37562499554E+00  0.46873545705E+02 -0.24203200514E+03  0.27644939861E+03  0.12509000000E+03 0.  0.
         25    1    4    4    0    0  0.50165801375E+02  0.49051378976E+02 -0.14729788119E+03  0.20558895717E+03  0.12509000000E+03 0.  0.
<mgrwt>
<rscale>  2 0.45144448E+03</rscale>
<asrwt>0</asrwt>
<pdfrwt beam="1">  1       21 0.11616079E-01 0.45144448E+03</pdfrwt>
<pdfrwt beam="2">  1       21 0.94857422E-01 0.45144448E+03</pdfrwt>
<totfact> 0.53087187E+04</totfact>
</mgrwt>
</event>
<event>
 7    0  0.4748297E-002  0.4544147E+03  0.7546771E-02  0.1026414E+00
         21   -1    0    0  502  501  0.00000000000E+00  0.00000000000E+00  0.18787390883E+02  0.18787390883E+02  0.00000000000E+00 0. -1.
         21   -1    0    0  501  502 -0.00000000000E+00 -0.00000000000E+00 -0.27477563114E+04  0.27477563114E+04  0.00000000000E+00 0. -1.
      99926    2    1    2    0    0  0.00000000000E+00  0.00000000000E+00 -0.27289689205E+04  0.27665437023E+04  0.45441466471E+03 0.  0.
      99925    2    3    3    0    0 -0.93248418100E+02  0.10118633691E+02 -0.20974194227E+04  0.21159286621E+04  0.26303652623E+03 0.  0.
         25    1    4    4    0    0 -0.13610378171E+02  0.65063682450E+00 -0.76928458046E+03  0.77950749807E+03  0.12509000000E+03 0.  0.
         25    1    3    3    0    0  0.93248418100E+02 -0.10118633691E+02 -0.63154949779E+03  0.65061504016E+03  0.12509000000E+03 0.  0.
         25    1    4    4    0    0 -0.79638039929E+02  0.94679968666E+01 -0.13281348423E+04  0.13364211641E+04  0.12509000000E+03 0.  0.
<mgrwt>
<rscale>  2 0.45441466E+03</rscale>
<asrwt>0</asrwt>
<pdfrwt beam="1">  1       21 0.27628510E-02 0.45441466E+03</pdfrwt>
<pdfrwt beam="2">  1       21 0.40408190E+00 0.45441466E+03</pdfrwt>
<totfact> 0.47929476E+03</totfact>
</mgrwt>
</event>
<event>
 7    0  0.4748297E-002  0.4588815E+03  0.7546771E-02  0.1025106E+00
         21   -1    0    0  502  501  0.00000000000E+00  0.00000000000E+00  0.20331646504E+03  0.20331646504E+03  0.00000000000E+00 0. -1.
         21   -1    0    0  501  502 -0.00000000000E+00 -0.00000000000E+00 -0.25892177744E+03  0.25892177744E+03  0.00000000000E+00 0. -1.
      99926    2    1    2    0    0 -0.17763568394E-14  0.00000000000E+00 -0.55605312404E+02  0.46223824248E+03  0.45888151198E+03 0.  0.
      99925    2    3    3    0    0 -0.14179409976E+02 -0.11568771174E+03 -0.43316077264E+02  0.29082285310E+03  0.26290102134E+03 0.  0.
         25    1    4    4    0    0 -0.18641289045E+02 -0.71533536902E+02 -0.59699952248E+02  0.15708639966E+03  0.12509000000E+03 0.  0.
         25    1    3    3    0    0  0.14179409976E+02  0.11568771174E+03 -0.12289235140E+02  0.17141538938E+03  0.12509000000E+03 0.  0.
         25    1    4    4    0    0  0.44618790688E+01 -0.44154174835E+02  0.16383874985E+02  0.13373645344E+03  0.12509000000E+03 0.  0.
<mgrwt>
<rscale>  2 0.45888151E+03</rscale>
<asrwt>0</asrwt>
<pdfrwt beam="1">  1       21 0.29899480E-01 0.45888151E+03</pdfrwt>
<pdfrwt beam="2">  1       21 0.38076732E-01 0.45888151E+03</pdfrwt>
<totfact> 0.65952400E+04</totfact>
</mgrwt>
</event>
<event>
 7    0  0.4748297E-002  0.4528314E+03  0.7546771E-02  0.1026881E+00
         21   -1    0    0  502  501  0.00000000000E+00  0.00000000000E+00  0.39421527446E+02  0.39421527446E+02  0.00000000000E+00 0.  1.
         21   -1    0    0  501  502 -0.00000000000E+00 -0.00000000000E+00 -0.13004081026E+04  0.13004081026E+04  0.00000000000E+00 0.  1.
      99926    2    1    2    0    0  0.00000000000E+00  0.00000000000E+00 -0.12609865752E+04  0.13398296301E+04  0.45283141988E+03 0.  0.
      99925    2    3    3    0    0 -0.88788185892E+02  0.65158116392E+02 -0.75060913972E+03  0.80292967961E+03  0.26296970866E+03 0.  0.
         25    1    4    4    0    0 -0.26931592791E+02  0.35288436071E+02 -0.46615992818E+03  0.48468873635E+03  0.12509000000E+03 0.  0.
         25    1    3    3    0    0  0.88788185892E+02 -0.65158116392E+02 -0.51037743545E+03  0.53689995046E+03  0.12509000000E+03 0.  0.
         25    1    4    4    0    0 -0.61856593101E+02  0.29869680321E+02 -0.28444921155E+03  0.31824094325E+03  0.12509000000E+03 0.  0.
<mgrwt>
<rscale>  2 0.45283142E+03</rscale>
<asrwt>0</asrwt>
<pdfrwt beam="1">  1       21 0.57972846E-02 0.45283142E+03</pdfrwt>
<pdfrwt beam="2">  1       21 0.19123645E+00 0.45283142E+03</pdfrwt>
<totfact> 0.28456382E+04</totfact>
</mgrwt>
</event>
<event>
 7    0  0.5930258E-002  0.4164849E+03  0.7546771E-02  0.1038216E+00
         21   -1    0    0  502  501  0.00000000000E+00  0.00000000000E+00  0.39597389403E+03  0.39597389403E+03  0.00000000000E+00 0. -1.
         21   -1    0    0  501  502 -0.00000000000E+00 -0.00000000000E+00 -0.10951461113E+03  0.10951461113E+03  0.00000000000E+00 0. -1.
      99926    2    1    2    0    0  0.17763568394E-14  0.00000000000E+00  0.28645928290E+03  0.50548850517E+03  0.41648494342E+03 0.  0.
      99925    2    3    3    0    0  0.74178173496E+01  0.53232742557E+02  0.24504289040E+03  0.36318047812E+03  0.26261243812E+03 0.  0.
         25    1    4    4    0    0  0.25621420874E+02  0.35897722631E+02  0.16831739356E+03  0.21429735596E+03  0.12509000000E+03 0.  0.
         25    1    4    4    0    0 -0.18203603524E+02  0.17335019926E+02  0.76725496842E+02  0.14888312216E+03  0.12509000000E+03 0.  0.
         25    1    3    3    0    0 -0.74178173496E+01 -0.53232742557E+02  0.41416392501E+02  0.14230802705E+03  0.12509000000E+03 0.  0.
<mgrwt>
<rscale>  2 0.41648494E+03</rscale>
<asrwt>0</asrwt>
<pdfrwt beam="1">  1       21 0.58231455E-01 0.41648494E+03</pdfrwt>
<pdfrwt beam="2">  1       21 0.16105090E-01 0.41648494E+03</pdfrwt>
<totfact> 0.89147434E+04</totfact>
</mgrwt>
</event>
<event>
 7    0  0.4748297E-002  0.4500841E+03  0.7546771E-02  0.1027697E+00
         21   -1    0    0  502  501  0.00000000000E+00  0.00000000000E+00  0.87296517467E+02  0.87296517467E+02  0.00000000000E+00 0.  1.
         21   -1    0    0  501  502 -0.00000000000E+00 -0.00000000000E+00 -0.58013678342E+03  0.58013678342E+03  0.00000000000E+00 0.  1.
      99926    2    1    2    0    0  0.00000000000E+00  0.00000000000E+00 -0.49284026596E+03  0.66743330089E+03  0.45008408480E+03 0.  0.
      99925    2    3    3    0    0  0.91807898945E+02  0.55072468582E+02 -0.28542558160E+03  0.40261255682E+03  0.26299703643E+03 0.  0.
         25    1    4    4    0    0  0.70311907819E+02  0.20871390106E+02 -0.19524106101E+03  0.24319942293E+03  0.12509000000E+03 0.  0.
         25    1    4    4    0    0  0.21495991127E+02  0.34201078476E+02 -0.90184520584E+02  0.15941313389E+03  0.12509000000E+03 0.  0.
         25    1    3    3    0    0 -0.91807898945E+02 -0.55072468582E+02 -0.20741468436E+03  0.26482074407E+03  0.12509000000E+03 0.  0.
<mgrwt>
<rscale>  2 0.45008408E+03</rscale>
<asrwt>0</asrwt>
<pdfrwt beam="1">  1       21 0.12837723E-01 0.45008408E+03</pdfrwt>
<pdfrwt beam="2">  1       21 0.85314236E-01 0.45008408E+03</pdfrwt>
<totfact> 0.56878989E+04</totfact>
</mgrwt>
</event>
<event>
 7    0  0.4748297E-002  0.4593010E+03  0.7546771E-02  0.1024984E+00
         21   -1    0    0  502  501  0.00000000000E+00  0.00000000000E+00  0.19993359010E+03  0.19993359010E+03  0.00000000000E+00 0. -1.
         21   -1    0    0  501  502 -0.00000000000E+00 -0.00000000000E+00 -0.26378431552E+03  0.26378431552E+03  0.00000000000E+00 0. -1.
      99926    2    1    2    0    0  0.00000000000E+00  0.00000000000E+00 -0.63850725425E+02  0.46371790562E+03  0.45930096980E+03 0.  0.
      99925    2    3    3    0    0  0.13453556217E+02 -0.87793735555E+01  0.77124976955E+02  0.27456259289E+03  0.26301764155E+03 0.  0.
         25    1    4    4    0    0  0.46933637308E+02 -0.45699822930E+01  0.45300782711E+02  0.14114999137E+03  0.12509000000E+03 0.  0.
         25    1    4    4    0    0 -0.33480081090E+02 -0.42093912625E+01  0.31824194243E+02  0.13341260152E+03  0.12509000000E+03 0.  0.
         25    1    3    3    0    0 -0.13453556217E+02  0.87793735555E+01 -0.14097570238E+03  0.18915531274E+03  0.12509000000E+03 0.  0.
<mgrwt>
<rscale>  2 0.45930097E+03</rscale>
<asrwt>0</asrwt>
<pdfrwt beam="1">  1       21 0.29401999E-01 0.45930097E+03</pdfrwt>
<pdfrwt beam="2">  1       21 0.38791811E-01 0.45930097E+03</pdfrwt>
<totfact> 0.65630342E+04</totfact>
</mgrwt>
</event>
<event>
 7    0  0.4748297E-002  0.4595930E+03  0.7546771E-02  0.1024899E+00
         21   -1    0    0  502  501  0.00000000000E+00  0.00000000000E+00  0.14365708312E+03  0.14365708312E+03  0.00000000000E+00 0. -1.
         21   -1    0    0  501  502 -0.00000000000E+00 -0.00000000000E+00 -0.36758667472E+03  0.36758667472E+03  0.00000000000E+00 0. -1.
      99926    2    1    2    0    0  0.00000000000E+00  0.26645352591E-14 -0.22392959160E+03  0.51124375784E+03  0.45959299161E+03 0.  0.
      99925    2    3    3    0    0 -0.29119091392E+01 -0.44327895727E+01 -0.27086242020E+03  0.37753389531E+03  0.26293965580E+03 0.  0.
         25    1    4    4    0    0  0.26530574235E+02  0.24724488685E+02 -0.11838205774E+03  0.17600281647E+03  0.12509000000E+03 0.  0.
         25    1    4    4    0    0 -0.29442483374E+02 -0.29157278257E+02 -0.15248036246E+03  0.20153107884E+03  0.12509000000E+03 0.  0.
         25    1    3    3    0    0  0.29119091392E+01  0.44327895727E+01  0.46932828600E+02  0.13370986253E+03  0.12509000000E+03 0.  0.
<mgrwt>
<rscale>  2 0.45959299E+03</rscale>
<asrwt>0</asrwt>
<pdfrwt beam="1">  1       21 0.21126042E-01 0.45959299E+03</pdfrwt>
<pdfrwt beam="2">  1       21 0.54056863E-01 0.45959299E+03</pdfrwt>
<totfact> 0.62189667E+04</totfact>
</mgrwt>
</event>
<event>
 7    0  0.4748297E-002  0.4564386E+03  0.7546771E-02  0.1025819E+00
         21   -1    0    0  502  501  0.00000000000E+00  0.00000000000E+00  0.16367636833E+03  0.16367636833E+03  0.00000000000E+00 0. -1.
         21   -1    0    0  501  502 -0.00000000000E+00 -0.00000000000E+00 -0.31821359377E+03  0.31821359377E+03  0.00000000000E+00 0. -1.
      99926    2    1    2    0    0  0.00000000000E+00  0.00000000000E+00 -0.15453722543E+03  0.48188996210E+03  0.45643858462E+03 0.  0.
      99925    2    3    3    0    0  0.11231104801E+03 -0.59099434769E+01 -0.11960756131E+03  0.31008691070E+03  0.26305745480E+03 0.  0.
         25    1    4    4    0    0  0.87387484073E+02 -0.75202593144E+01 -0.95791433591E+02  0.18032369096E+03  0.12509000000E+03 0.  0.
         25    1    3    3    0    0 -0.11231104801E+03  0.59099434769E+01 -0.34929664121E+02  0.17180305140E+03  0.12509000000E+03 0.  0.
         25    1    4    4    0    0  0.24923563932E+02  0.16103158376E+01 -0.23816127719E+02  0.12976321973E+03  0.12509000000E+03 0.  0.
<mgrwt>
<rscale>  2 0.45643858E+03</rscale>
<asrwt>0</asrwt>
<pdfrwt beam="1">  1       21 0.24070055E-01 0.45643858E+03</pdfrwt>
<pdfrwt beam="2">  1       21 0.46796116E-01 0.45643858E+03</pdfrwt>
<totfact> 0.65808098E+04</totfact>
</mgrwt>
</event>
<event>
 7    0  0.4748297E-002  0.4621879E+03  0.7546771E-02  0.1024149E+00
         21   -1    0    0  502  501  0.00000000000E+00  0.00000000000E+00  0.24156483246E+03  0.24156483246E+03  0.00000000000E+00 0. -1.
         21   -1    0    0  501  502 -0.00000000000E+00 -0.00000000000E+00 -0.22107695449E+03  0.22107695449E+03  0.00000000000E+00 0. -1.
      99926    2    1    2    0    0  0.00000000000E+00  0.00000000000E+00  0.20487877975E+02  0.46264178695E+03  0.46218791621E+03 0.  0.
      99925    2    3    3    0    0  0.94066599956E+02 -0.66724219768E+02  0.45315154930E+02  0.29069834127E+03  0.26296656750E+03 0.  0.
         25    1    3    3    0    0 -0.94066599956E+02  0.66724219768E+02 -0.24827276955E+02  0.17194344568E+03  0.12509000000E+03 0.  0.
         25    1    4    4    0    0  0.55478489461E+02 -0.58037985878E+02 -0.85293220755E+01  0.14888427732E+03  0.12509000000E+03 0.  0.
         25    1    4    4    0    0  0.38588110495E+02 -0.86862338905E+01  0.53844477006E+02  0.14181406395E+03  0.12509000000E+03 0.  0.
<mgrwt>
<rscale>  2 0.46218792E+03</rscale>
<asrwt>0</asrwt>
<pdfrwt beam="1">  1       21 0.35524240E-01 0.46218792E+03</pdfrwt>
<pdfrwt beam="2">  1       21 0.32511317E-01 0.46218792E+03</pdfrwt>
<totfact> 0.64226300E+04</totfact>
</mgrwt>
</event>
<event>
 7    0  0.4748297E-002  0.4512603E+03  0.7546771E-02  0.1027347E+00
         21   -1    0    0  502  501  0.00000000000E+00  0.00000000000E+00  0.90796825542E+03  0.90796825542E+03  0.00000000000E+00 0.  1.
         21   -1    0    0  501  502 -0.00000000000E+00 -0.00000000000E+00 -0.56069096323E+02  0.56069096323E+02  0.00000000000E+00 0.  1.
      99926    2    1    2    0    0  0.14210854715E-13  0.22204460493E-15  0.85189915910E+03  0.96403735174E+03  0.45126027776E+03 0.  0.
      99925    2    3    3    0    0  0.71091207994E+02  0.13722795871E+01  0.71609204950E+03  0.76618154030E+03  0.26304084537E+03 0.  0.
         25    1    3    3    0    0 -0.71091207994E+02 -0.13722795871E+01  0.13580710960E+03  0.19785581145E+03  0.12509000000E+03 0.  0.
         25    1    4    4    0    0  0.46714331726E+02  0.67592523212E+01  0.47458424335E+03  0.49305742913E+03  0.12509000000E+03 0.  0.
         25    1    4    4    0    0  0.24376876268E+02 -0.53869727341E+01  0.24150780614E+03  0.27312411117E+03  0.12509000000E+03 0.  0.
<mgrwt>
<rscale>  2 0.45126028E+03</rscale>
<asrwt>0</asrwt>
<pdfrwt beam="1">  1       21 0.13352473E+00 0.45126028E+03</pdfrwt>
<pdfrwt beam="2">  1       21 0.82454559E-02 0.45126028E+03</pdfrwt>
<totfact> 0.41786057E+04</totfact>
</mgrwt>
</event>
<event>
 7    0  0.4748297E-002  0.4501261E+03  0.7546771E-02  0.1027684E+00
         21   -1    0    0  502  501  0.00000000000E+00  0.00000000000E+00  0.33772846225E+03  0.33772846225E+03  0.00000000000E+00 0.  1.
         21   -1    0    0  501  502 -0.00000000000E+00 -0.00000000000E+00 -0.14998254177E+03  0.14998254177E+03  0.00000000000E+00 0.  1.
      99926    2    1    2    0    0 -0.71054273576E-14  0.00000000000E+00  0.18774592049E+03  0.48771100402E+03  0.45012608543E+03 0.  0.
      99925    2    3    3    0    0  0.35784265277E+02  0.44140462541E+02  0.21887491630E+03  0.34683724296E+03  0.26298469545E+03 0.  0.
         25    1    4    4    0    0  0.50433499603E+02  0.21338950040E+02  0.14446239018E+03  0.19878576143E+03  0.12509000000E+03 0.  0.
         25    1    3    3    0    0 -0.35784265277E+02 -0.44140462541E+02 -0.31128995814E+02  0.14087376106E+03  0.12509000000E+03 0.  0.
         25    1    4    4    0    0 -0.14649234326E+02  0.22801512501E+02  0.74412526119E+02  0.14805148153E+03  0.12509000000E+03 0.  0.
<mgrwt>
<rscale>  2 0.45012609E+03</rscale>
<asrwt>0</asrwt>
<pdfrwt beam="1">  1       21 0.49665950E-01 0.45012609E+03</pdfrwt>
<pdfrwt beam="2">  1       21 0.22056256E-01 0.45012609E+03</pdfrwt>
<totfact> 0.68765366E+04</totfact>
</mgrwt>
</event>
<event>
 7    0  0.4748297E-002  0.4510242E+03  0.7546771E-02  0.1027417E+00
         21   -1    0    0  502  501  0.00000000000E+00  0.00000000000E+00  0.75812315543E+03  0.75812315543E+03  0.00000000000E+00 0.  1.
         21   -1    0    0  501  502 -0.00000000000E+00 -0.00000000000E+00 -0.67081053779E+02  0.67081053779E+02  0.00000000000E+00 0.  1.
      99926    2    1    2    0    0  0.00000000000E+00  0.00000000000E+00  0.69104210165E+03  0.82520420921E+03  0.45102416858E+03 0.  0.
      99925    2    3    3    0    0 -0.10802128480E+03 -0.11476039308E+02  0.41113939659E+03  0.49994534331E+03  0.26288675398E+03 0.  0.
         25    1    3    3    0    0  0.10802128480E+03  0.11476039308E+02  0.27990270506E+03  0.32525886590E+03  0.12509000000E+03 0.  0.
         25    1    4    4    0    0 -0.95979294731E+02  0.23768560810E+01  0.21617054006E+03  0.26757220512E+03  0.12509000000E+03 0.  0.
         25    1    4    4    0    0 -0.12041990065E+02 -0.13852895389E+02  0.19496885653E+03  0.23237313819E+03  0.12509000000E+03 0.  0.
<mgrwt>
<rscale>  2 0.45102417E+03</rscale>
<asrwt>0</asrwt>
<pdfrwt beam="1">  1       21 0.11148869E+00 0.45102417E+03</pdfrwt>
<pdfrwt beam="2">  1       21 0.98648613E-02 0.45102417E+03</pdfrwt>
<totfact> 0.48051309E+04</totfact>
</mgrwt>
</event>
<event>
 7    0  0.4748297E-002  0.4072811E+03  0.7546771E-02  0.1041287E+00
         21   -1    0    0  502  501  0.00000000000E+00  0.00000000000E+00  0.32068290252E+02  0.32068290252E+02  0.00000000000E+00 0.  1.
         21   -1    0    0  501  502 -0.00000000000E+00 -0.00000000000E+00 -0.12931615092E+04  0.12931615092E+04  0.00000000000E+00 0.  1.
      99926    2    1    2    0    0  0.35527136788E-14  0.00000000000E+00 -0.12610932190E+04  0.13252297995E+04  0.40728112463E+03 0.  0.
      99925    2    3    3    0    0  0.27850841806E+02 -0.22795992765E+02 -0.98247433481E+03  0.10177053006E+04  0.26300747842E+03 0.  0.
         25    1    4    4    0    0  0.39711374231E+02  0.85427288764E+01 -0.40225215813E+03  0.42320713402E+03  0.12509000000E+03 0.  0.
         25    1    4    4    0    0 -0.11860532425E+02 -0.31338721641E+02 -0.58022217668E+03  0.59449816662E+03  0.12509000000E+03 0.  0.
         25    1    3    3    0    0 -0.27850841806E+02  0.22795992765E+02 -0.27861888415E+03  0.30752449883E+03  0.12509000000E+03 0.  0.
<mgrwt>
<rscale>  2 0.40728112E+03</rscale>
<asrwt>0</asrwt>
<pdfrwt beam="1">  1       21 0.47159258E-02 0.40728112E+03</pdfrwt>
<pdfrwt beam="2">  1       21 0.19017078E+00 0.40728112E+03</pdfrwt>
<totfact> 0.41919865E+04</totfact>
</mgrwt>
</event>
<event>
 6    0  0.4748297E-002  0.4495718E+03  0.7546771E-02  0.1027850E+00
         21   -1    0    0  502  501  0.00000000000E+00  0.00000000000E+00  0.67713443736E+02  0.67713443736E+02  0.00000000000E+00 0.  1.
         21   -1    0    0  501  502 -0.00000000000E+00 -0.00000000000E+00 -0.74621383474E+03  0.74621383474E+03  0.00000000000E+00 0.  1.
      99926    2    1    2    0    0  0.22204460493E-14 -0.35527136788E-14 -0.67850039100E+03  0.81392727848E+03  0.44957183414E+03 0.  0.
         25    1    3    3    0    0  0.40051244165E+02 -0.20011843829E+01 -0.34545192755E+03  0.36958442776E+03  0.12509000000E+03 0.  0.
         25    1    3    3    0    0 -0.38014974337E+02 -0.26350718931E+02 -0.27057814191E+03  0.30166129623E+03  0.12509000000E+03 0.  0.
         25    1    3    3    0    0 -0.20362698277E+01  0.28351903314E+02 -0.62470321544E+02  0.14268155448E+03  0.12509000000E+03 0.  0.
<mgrwt>
<rscale>  2 0.44957183E+03</rscale>
<asrwt>0</asrwt>
<pdfrwt beam="1">  1       21 0.99578593E-02 0.44957183E+03</pdfrwt>
<pdfrwt beam="2">  1       21 0.10973733E+00 0.44957183E+03</pdfrwt>
<totfact> 0.49159257E+04</totfact>
</mgrwt>
</event>
<event>
 7    0  0.4748297E-002  0.4561750E+03  0.7546771E-02  0.1025896E+00
         21   -1    0    0  502  501  0.00000000000E+00  0.00000000000E+00  0.19761715378E+03  0.19761715378E+03  0.00000000000E+00 0. -1.
         21   -1    0    0  501  502 -0.00000000000E+00 -0.00000000000E+00 -0.26325608267E+03  0.26325608267E+03  0.00000000000E+00 0. -1.
      99926    2    1    2    0    0  0.00000000000E+00  0.00000000000E+00 -0.65638928890E+02  0.46087323645E+03  0.45617504436E+03 0.  0.
      99925    2    3    3    0    0  0.25162816746E+02  0.77547601765E+02 -0.12208259907E+03  0.30124806961E+03  0.26305786543E+03 0.  0.
         25    1    4    4    0    0  0.17110475531E+02  0.70457011230E+02 -0.35927270196E+02  0.14898065528E+03  0.12509000000E+03 0.  0.
         25    1    3    3    0    0 -0.25162816746E+02 -0.77547601765E+02  0.56443670181E+02  0.15962516684E+03  0.12509000000E+03 0.  0.
         25    1    4    4    0    0  0.80523412154E+01  0.70905905345E+01 -0.86155328876E+02  0.15226741433E+03  0.12509000000E+03 0.  0.
<mgrwt>
<rscale>  2 0.45617504E+03</rscale>
<asrwt>0</asrwt>
<pdfrwt beam="1">  1       21 0.29061346E-01 0.45617504E+03</pdfrwt>
<pdfrwt beam="2">  1       21 0.38714130E-01 0.45617504E+03</pdfrwt>
<totfact> 0.67482409E+04</totfact>
</mgrwt>
</event>
<event>
 7    0  0.4748297E-002  0.4462029E+03  0.7546771E-02  0.1028860E+00
         21   -1    0    0  502  501  0.00000000000E+00  0.00000000000E+00  0.21195391252E+03  0.21195391252E+03  0.00000000000E+00 0.  1.
         21   -1    0    0  501  502 -0.00000000000E+00 -0.00000000000E+00 -0.23483523166E+03  0.23483523166E+03  0.00000000000E+00 0.  1.
      99926    2    1    2    0    0  0.00000000000E+00 -0.14210854715E-13 -0.22881319143E+02  0.44678914417E+03  0.44620285139E+03 0.  0.
      99925    2    3    3    0    0 -0.40411118798E+02 -0.65758148749E+02  0.56413653342E+02  0.27977898457E+03  0.26293837163E+03 0.  0.
         25    1    4    4    0    0 -0.14258654078E+02  0.45918343878E+01  0.86515159083E+01  0.12628044578E+03  0.12509000000E+03 0.  0.
         25    1    4    4    0    0 -0.26152464720E+02 -0.70349983137E+02  0.47762137434E+02  0.15349853879E+03  0.12509000000E+03 0.  0.
         25    1    3    3    0    0  0.40411118798E+02  0.65758148749E+02 -0.79294972485E+02  0.16701015960E+03  0.12509000000E+03 0.  0.
<mgrwt>
<rscale>  2 0.44620285E+03</rscale>
<asrwt>0</asrwt>
<pdfrwt beam="1">  1       21 0.31169693E-01 0.44620285E+03</pdfrwt>
<pdfrwt beam="2">  1       21 0.34534593E-01 0.44620285E+03</pdfrwt>
<totfact> 0.74226386E+04</totfact>
</mgrwt>
</event>
<event>
 6    0  0.4748297E-002  0.4553087E+03  0.7546771E-02  0.1026151E+00
         21   -1    0    0  502  501  0.00000000000E+00  0.00000000000E+00  0.77777620005E+02  0.77777620005E+02  0.00000000000E+00 0. -1.
         21   -1    0    0  501  502 -0.00000000000E+00 -0.00000000000E+00 -0.66634210829E+03  0.66634210829E+03  0.00000000000E+00 0. -1.
      99926    2    1    2    0    0 -0.14210854715E-13  0.00000000000E+00 -0.58856448829E+03  0.74411972830E+03  0.45530870096E+03 0.  0.
         25    1    3    3    0    0  0.70931730340E+02 -0.85074773765E+02 -0.24269657433E+03  0.29464921990E+03  0.12509000000E+03 0.  0.
         25    1    3    3    0    0 -0.58441613732E+02  0.75015870108E+02 -0.22763958467E+03  0.27660457623E+03  0.12509000000E+03 0.  0.
         25    1    3    3    0    0 -0.12490116608E+02  0.10058903658E+02 -0.11822832929E+03  0.17286593216E+03  0.12509000000E+03 0.  0.
<mgrwt>
<rscale>  2 0.45530870E+03</rscale>
<asrwt>0</asrwt>
<pdfrwt beam="1">  1       21 0.11437885E-01 0.45530870E+03</pdfrwt>
<pdfrwt beam="2">  1       21 0.97991491E-01 0.45530870E+03</pdfrwt>
<totfact> 0.50449598E+04</totfact>
</mgrwt>
</event>
<event>
 7    0  0.4748297E-002  0.4773012E+03  0.7546771E-02  0.1019880E+00
         21   -1    0    0  502  501  0.00000000000E+00  0.00000000000E+00  0.18689876437E+03  0.18689876437E+03  0.00000000000E+00 0. -1.
         21   -1    0    0  501  502 -0.00000000000E+00 -0.00000000000E+00 -0.30473241349E+03  0.30473241349E+03  0.00000000000E+00 0. -1.
      99926    2    1    2    0    0  0.00000000000E+00  0.00000000000E+00 -0.11783364913E+03  0.49163117786E+03  0.47730121116E+03 0.  0.
      99925    2    3    3    0    0  0.81194908221E+01 -0.85435200113E+02  0.31925707949E+02  0.27846346764E+03  0.26297823566E+03 0.  0.
         25    1    4    4    0    0 -0.32744207323E+02 -0.48101374661E+02  0.32221101476E+02  0.14167439020E+03  0.12509000000E+03 0.  0.
         25    1    4    4    0    0  0.40863698145E+02 -0.37333825452E+02 -0.29539352684E+00  0.13678907744E+03  0.12509000000E+03 0.  0.
         25    1    3    3    0    0 -0.81194908221E+01  0.85435200113E+02 -0.14975935708E+03  0.21316771022E+03  0.12509000000E+03 0.  0.
<mgrwt>
<rscale>  2 0.47730121E+03</rscale>
<asrwt>0</asrwt>
<pdfrwt beam="1">  1       21 0.27485112E-01 0.47730121E+03</pdfrwt>
<pdfrwt beam="2">  1       21 0.44813590E-01 0.47730121E+03</pdfrwt>
<totfact> 0.55389076E+04</totfact>
</mgrwt>
</event>
<event>
 7    0  0.4748297E-002  0.4556054E+03  0.7546771E-02  0.1026064E+00
         21   -1    0    0  502  501  0.00000000000E+00  0.00000000000E+00  0.69755264275E+03  0.69755264275E+03  0.00000000000E+00 0.  1.
         21   -1    0    0  501  502 -0.00000000000E+00 -0.00000000000E+00 -0.74394485629E+02  0.74394485629E+02  0.00000000000E+00 0.  1.
      99926    2    1    2    0    0 -0.14210854715E-13 -0.35527136788E-14  0.62315815712E+03  0.77194712838E+03  0.45560539969E+03 0.  0.
      99925    2    3    3    0    0  0.10672651909E+03 -0.27627250063E+02  0.43923184062E+03  0.52369279745E+03  0.26301277814E+03 0.  0.
         25    1    3    3    0    0 -0.10672651909E+03  0.27627250063E+02  0.18392631650E+03  0.24825433093E+03  0.12509000000E+03 0.  0.
         25    1    4    4    0    0  0.12433525032E+02 -0.30358684452E+01  0.21475904020E+03  0.24886293917E+03  0.12509000000E+03 0.  0.
         25    1    4    4    0    0  0.94292994055E+02 -0.24591381617E+02  0.22447280042E+03  0.27482985828E+03  0.12509000000E+03 0.  0.
<mgrwt>
<rscale>  2 0.45560540E+03</rscale>
<asrwt>0</asrwt>
<pdfrwt beam="1">  1       21 0.10258127E+00 0.45560540E+03</pdfrwt>
<pdfrwt beam="2">  1       21 0.10940366E-01 0.45560540E+03</pdfrwt>
<totfact> 0.48918713E+04</totfact>
</mgrwt>
</event>
<event>
 7    0  0.4748297E-002  0.4521007E+03  0.7546771E-02  0.1027097E+00
         21   -1    0    0  502  501  0.00000000000E+00  0.00000000000E+00  0.18004781685E+03  0.18004781685E+03  0.00000000000E+00 0. -1.
         21   -1    0    0  501  502 -0.00000000000E+00 -0.00000000000E+00 -0.28380658759E+03  0.28380658759E+03  0.00000000000E+00 0. -1.
      99926    2    1    2    0    0  0.00000000000E+00 -0.71054273576E-14 -0.10375877075E+03  0.46385440444E+03  0.45210068127E+03 0.  0.
      99925    2    3    3    0    0  0.61137797060E+02 -0.59592006094E+02  0.65129976406E+01  0.27651404994E+03  0.26292311282E+03 0.  0.
         25    1    4    4    0    0  0.71495635990E+02 -0.27190880551E+02  0.84505711966E+01  0.14686691324E+03  0.12509000000E+03 0.  0.
         25    1    3    3    0    0 -0.61137797060E+02  0.59592006094E+02 -0.11027176839E+03  0.18734035450E+03  0.12509000000E+03 0.  0.
         25    1    4    4    0    0 -0.10357838929E+02 -0.32401125543E+02 -0.19375735560E+01  0.12964713670E+03  0.12509000000E+03 0.  0.
<mgrwt>
<rscale>  2 0.45210068E+03</rscale>
<asrwt>0</asrwt>
<pdfrwt beam="1">  1       21 0.26477620E-01 0.45210068E+03</pdfrwt>
<pdfrwt beam="2">  1       21 0.41736263E-01 0.45210068E+03</pdfrwt>
<totfact> 0.69480036E+04</totfact>
</mgrwt>
</event>
<event>
 7    0  0.4748297E-002  0.4467567E+03  0.7546771E-02  0.1028694E+00
         21   -1    0    0  502  501  0.00000000000E+00  0.00000000000E+00  0.96933952234E+03  0.96933952234E+03  0.00000000000E+00 0. -1.
         21   -1    0    0  501  502 -0.00000000000E+00 -0.00000000000E+00 -0.51476167057E+02  0.51476167057E+02  0.00000000000E+00 0. -1.
      99926    2    1    2    0    0  0.00000000000E+00  0.00000000000E+00  0.91786335528E+03  0.10208156894E+04  0.44675668182E+03 0.  0.
      99925    2    3    3    0    0 -0.82535080100E+02 -0.56999319760E+02  0.51006974185E+03  0.58263296364E+03  0.26311417078E+03 0.  0.
         25    1    4    4    0    0 -0.80970028760E+02 -0.35685146701E+02  0.30824668522E+03  0.34422827063E+03  0.12509000000E+03 0.  0.
         25    1    4    4    0    0 -0.15650513406E+01 -0.21314173059E+02  0.20182305663E+03  0.23840469301E+03  0.12509000000E+03 0.  0.
         25    1    3    3    0    0  0.82535080100E+02  0.56999319760E+02  0.40779361343E+03  0.43818272576E+03  0.12509000000E+03 0.  0.
<mgrwt>
<rscale>  2 0.44675668E+03</rscale>
<asrwt>0</asrwt>
<pdfrwt beam="1">  1       21 0.14254992E+00 0.44675668E+03</pdfrwt>
<pdfrwt beam="2">  1       21 0.75700252E-02 0.44675668E+03</pdfrwt>
<totfact> 0.40938880E+04</totfact>
</mgrwt>
</event>
<event>
 7    0  0.4748297E-002  0.4696838E+03  0.7546771E-02  0.1022010E+00
         21   -1    0    0  502  501  0.00000000000E+00  0.00000000000E+00  0.55594137995E+02  0.55594137995E+02  0.00000000000E+00 0.  1.
         21   -1    0    0  501  502 -0.00000000000E+00 -0.00000000000E+00 -0.99202384962E+03  0.99202384962E+03  0.00000000000E+00 0.  1.
      99926    2    1    2    0    0  0.35527136788E-14  0.00000000000E+00 -0.93642971163E+03  0.10476179876E+04  0.46968376932E+03 0.  0.
      99925    2    3    3    0    0 -0.17515763474E+02 -0.81011290901E+02 -0.36880232630E+03  0.46049109512E+03  0.26299669499E+03 0.  0.
         25    1    4    4    0    0 -0.38839195860E+02 -0.12625281600E+02 -0.17392471589E+03  0.21809446524E+03  0.12509000000E+03 0.  0.
         25    1    4    4    0    0  0.21323432386E+02 -0.68386009301E+02 -0.19487761041E+03  0.24239662988E+03  0.12509000000E+03 0.  0.
         25    1    3    3    0    0  0.17515763474E+02  0.81011290901E+02 -0.56762738532E+03  0.58712689250E+03  0.12509000000E+03 0.  0.
<mgrwt>
<rscale>  2 0.46968377E+03</rscale>
<asrwt>0</asrwt>
<pdfrwt beam="1">  1       21 0.81756086E-02 0.46968377E+03</pdfrwt>
<pdfrwt beam="2">  1       21 0.14588586E+00 0.46968377E+03</pdfrwt>
<totfact> 0.33372617E+04</totfact>
</mgrwt>
</event>
<event>
 7    0  0.4748297E-002  0.4498739E+03  0.7546771E-02  0.1027760E+00
         21   -1    0    0  502  501  0.00000000000E+00  0.00000000000E+00  0.33150990235E+02  0.33150990235E+02  0.00000000000E+00 0. -1.
         21   -1    0    0  501  502 -0.00000000000E+00 -0.00000000000E+00 -0.15262480406E+04  0.15262480406E+04  0.00000000000E+00 0. -1.
      99926    2    1    2    0    0  0.00000000000E+00  0.71054273576E-14 -0.14930970504E+04  0.15593990308E+04  0.44987391073E+03 0.  0.
      99925    2    3    3    0    0  0.99826284516E+02 -0.40985284656E+02 -0.91477708061E+03  0.95794531178E+03  0.26305328838E+03 0.  0.
         25    1    4    4    0    0  0.37722267148E+02 -0.58464181929E+02 -0.43454581240E+03  0.45751349836E+03  0.12509000000E+03 0.  0.
         25    1    4    4    0    0  0.62104017368E+02  0.17478897273E+02 -0.48023126820E+03  0.50043181342E+03  0.12509000000E+03 0.  0.
         25    1    3    3    0    0 -0.99826284516E+02  0.40985284656E+02 -0.57831996976E+03  0.60145371905E+03  0.12509000000E+03 0.  0.
<mgrwt>
<rscale>  2 0.44987391E+03</rscale>
<asrwt>0</asrwt>
<pdfrwt beam="1">  1       21 0.48751455E-02 0.44987391E+03</pdfrwt>
<pdfrwt beam="2">  1       21 0.22444825E+00 0.44987391E+03</pdfrwt>
<totfact> 0.23273019E+04</totfact>
</mgrwt>
</event>
<event>
 7    0  0.4748297E-002  0.4583201E+03  0.7546771E-02  0.1025270E+00
         21   -1    0    0  502  501  0.00000000000E+00  0.00000000000E+00  0.81818492464E+02  0.81818492464E+02  0.00000000000E+00 0. -1.
         21   -1    0    0  501  502 -0.00000000000E+00 -0.00000000000E+00 -0.64183946764E+03  0.64183946764E+03  0.00000000000E+00 0. -1.
      99926    2    1    2    0    0  0.00000000000E+00  0.00000000000E+00 -0.56002097517E+03  0.72365796010E+03  0.45832013984E+03 0.  0.
      99925    2    3    3    0    0  0.95323212561E+02  0.26037329334E+02 -0.44788334664E+03  0.52875589955E+03  0.26309475812E+03 0.  0.
         25    1    4    4    0    0  0.79819576532E+02  0.13827415605E+02 -0.29272868819E+03  0.32848128593E+03  0.12509000000E+03 0.  0.
         25    1    3    3    0    0 -0.95323212561E+02 -0.26037329334E+02 -0.11213762854E+03  0.19490206055E+03  0.12509000000E+03 0.  0.
         25    1    4    4    0    0  0.15503636029E+02  0.12209913729E+02 -0.15515465845E+03  0.20027461362E+03  0.12509000000E+03 0.  0.
<mgrwt>
<rscale>  2 0.45832014E+03</rscale>
<asrwt>0</asrwt>
<pdfrwt beam="1">  1       21 0.12032131E-01 0.45832014E+03</pdfrwt>
<pdfrwt beam="2">  1       21 0.94388156E-01 0.45832014E+03</pdfrwt>
<totfact> 0.50310616E+04</totfact>
</mgrwt>
</event>
<event>
 7    0  0.4748297E-002  0.4638142E+03  0.7546771E-02  0.1023681E+00
         21   -1    0    0  502  501  0.00000000000E+00  0.00000000000E+00  0.45032130109E+03  0.45032130109E+03  0.00000000000E+00 0. -1.
         21   -1    0    0  501  502 -0.00000000000E+00 -0.00000000000E+00 -0.11942785653E+03  0.11942785653E+03  0.00000000000E+00 0. -1.
      99926    2    1    2    0    0  0.00000000000E+00  0.00000000000E+00  0.33089344456E+03  0.56974915762E+03  0.46381422030E+03 0.  0.
      99925    2    3    3    0    0 -0.10949510082E+03  0.32798267810E+02  0.25612582094E+03  0.38453952203E+03  0.26306901067E+03 0.  0.
         25    1    3    3    0    0  0.10949510082E+03 -0.32798267810E+02  0.74767623625E+02  0.18520963559E+03  0.12509000000E+03 0.  0.
         25    1    4    4    0    0 -0.11925418160E+02  0.95187795299E+01  0.12368050378E+03  0.17657065973E+03  0.12509000000E+03 0.  0.
         25    1    4    4    0    0 -0.97569682657E+02  0.23279488280E+02  0.13244531716E+03  0.20796886230E+03  0.12509000000E+03 0.  0.
<mgrwt>
<rscale>  2 0.46381422E+03</rscale>
<asrwt>0</asrwt>
<pdfrwt beam="1">  1       21 0.66223720E-01 0.46381422E+03</pdfrwt>
<pdfrwt beam="2">  1       21 0.17562920E-01 0.46381422E+03</pdfrwt>
<totfact> 0.56535064E+04</totfact>
</mgrwt>
</event>
<event>
 7    0  0.4748297E-002  0.4508705E+03  0.7546771E-02  0.1027463E+00
         21   -1    0    0  502  501  0.00000000000E+00  0.00000000000E+00  0.40281693244E+03  0.40281693244E+03  0.00000000000E+00 0. -1.
         21   -1    0    0  501  502 -0.00000000000E+00 -0.00000000000E+00 -0.12616416357E+03  0.12616416357E+03  0.00000000000E+00 0. -1.
      99926    2    1    2    0    0  0.00000000000E+00  0.71054273576E-14  0.27665276887E+03  0.52898109602E+03  0.45087054175E+03 0.  0.
      99925    2    3    3    0    0 -0.61385301504E+01  0.55779618719E+02  0.28470805058E+03  0.39164412692E+03  0.26301597037E+03 0.  0.
         25    1    4    4    0    0  0.12823622597E+01  0.22484116653E+01  0.90572500178E+02  0.15445900976E+03  0.12509000000E+03 0.  0.
         25    1    3    3    0    0  0.61385301504E+01 -0.55779618719E+02 -0.80552817075E+01  0.13733696910E+03  0.12509000000E+03 0.  0.
         25    1    4    4    0    0 -0.74208924101E+01  0.53531207054E+02  0.19413555040E+03  0.23718511716E+03  0.12509000000E+03 0.  0.
<mgrwt>
<rscale>  2 0.45087054E+03</rscale>
<asrwt>0</asrwt>
<pdfrwt beam="1">  1       21 0.59237784E-01 0.45087054E+03</pdfrwt>
<pdfrwt beam="2">  1       21 0.18553554E-01 0.45087054E+03</pdfrwt>
<totfact> 0.65388616E+04</totfact>
</mgrwt>
</event>
<event>
 7    0  0.4748297E-002  0.4090759E+03  0.7546771E-02  0.1040682E+00
         21   -1    0    0  502  501  0.00000000000E+00  0.00000000000E+00  0.11533406257E+03  0.11533406257E+03  0.00000000000E+00 0.  1.
         21   -1    0    0  501  502 -0.00000000000E+00 -0.00000000000E+00 -0.36273555148E+03  0.36273555148E+03  0.00000000000E+00 0.  1.
      99926    2    1    2    0    0  0.00000000000E+00  0.17763568394E-14 -0.24740148891E+03  0.47806961406E+03  0.40907585992E+03 0.  0.
      99925    2    3    3    0    0  0.46586560126E+02  0.39983721279E+01 -0.11648786214E+03  0.29106111067E+03  0.26260398618E+03 0.  0.
         25    1    4    4    0    0  0.21106938740E+02 -0.19432624854E+02 -0.21270228371E+02  0.13008866394E+03  0.12509000000E+03 0.  0.
         25    1    3    3    0    0 -0.46586560126E+02 -0.39983721279E+01 -0.13091362677E+03  0.18700850338E+03  0.12509000000E+03 0.  0.
         25    1    4    4    0    0  0.25479621386E+02  0.23430996981E+02 -0.95217633770E+02  0.16097244673E+03  0.12509000000E+03 0.  0.
<mgrwt>
<rscale>  2 0.40907586E+03</rscale>
<asrwt>0</asrwt>
<pdfrwt beam="1">  1       21 0.16960892E-01 0.40907586E+03</pdfrwt>
<pdfrwt beam="2">  1       21 0.53343463E-01 0.40907586E+03</pdfrwt>
<totfact> 0.97955006E+04</totfact>
</mgrwt>
</event>
<event>
 7    0  0.4748297E-002  0.4559108E+03  0.7546771E-02  0.1025974E+00
         21   -1    0    0  502  501  0.00000000000E+00  0.00000000000E+00  0.10970799486E+04  0.10970799486E+04  0.00000000000E+00 0.  1.
         21   -1    0    0  501  502 -0.00000000000E+00 -0.00000000000E+00 -0.47365431021E+02  0.47365431021E+02  0.00000000000E+00 0.  1.
      99926    2    1    2    0    0 -0.14210854715E-13 -0.71054273576E-14  0.10497145176E+04  0.11444453796E+04  0.45591080106E+03 0.  0.
      99925    2    3    3    0    0  0.10507598164E+03  0.32586261795E+02  0.58201741988E+03  0.64796687085E+03  0.26270508617E+03 0.  0.
         25    1    4    4    0    0  0.40139612982E+02 -0.56654086601E+01  0.34919835675E+03  0.37313574721E+03  0.12509000000E+03 0.  0.
         25    1    3    3    0    0 -0.10507598164E+03 -0.32586261795E+02  0.46769709770E+03  0.49647850877E+03  0.12509000000E+03 0.  0.
         25    1    4    4    0    0  0.64936368659E+02  0.38251670455E+02  0.23281906313E+03  0.27483112364E+03  0.12509000000E+03 0.  0.
<mgrwt>
<rscale>  2 0.45591080E+03</rscale>
<asrwt>0</asrwt>
<pdfrwt beam="1">  1       21 0.16133527E+00 0.45591080E+03</pdfrwt>
<pdfrwt beam="2">  1       21 0.69655052E-02 0.45591080E+03</pdfrwt>
<totfact> 0.33728298E+04</totfact>
</mgrwt>
</event>
<event>
 7    0  0.4748297E-002  0.4416852E+03  0.7546771E-02  0.1030231E+00
         21   -1    0    0  502  501  0.00000000000E+00  0.00000000000E+00  0.65806042485E+02  0.65806042485E+02  0.00000000000E+00 0.  1.
         21   -1    0    0  501  502 -0.00000000000E+00 -0.00000000000E+00 -0.74113957374E+03  0.74113957374E+03  0.00000000000E+00 0.  1.
      99926    2    1    2    0    0  0.00000000000E+00  0.00000000000E+00 -0.67533353125E+03  0.80694561622E+03  0.44168523759E+03 0.  0.
      99925    2    3    3    0    0  0.36083925235E+02  0.88591939377E+02 -0.37544650088E+03  0.46822697122E+03  0.26291793430E+03 0.  0.
         25    1    4    4    0    0 -0.15493477838E+02  0.66402527257E+02 -0.20013373159E+03  0.24566310692E+03  0.12509000000E+03 0.  0.
         25    1    3    3    0    0 -0.36083925235E+02 -0.88591939377E+02 -0.29988703037E+03  0.33871864500E+03  0.12509000000E+03 0.  0.
         25    1    4    4    0    0  0.51577403073E+02  0.22189412120E+02 -0.17531276928E+03  0.22256386430E+03  0.12509000000E+03 0.  0.
<mgrwt>
<rscale>  2 0.44168524E+03</rscale>
<asrwt>0</asrwt>
<pdfrwt beam="1">  1       21 0.96773596E-02 0.44168524E+03</pdfrwt>
<pdfrwt beam="2">  1       21 0.10899111E+00 0.44168524E+03</pdfrwt>
<totfact> 0.52727968E+04</totfact>
</mgrwt>
</event>
<event>
 7    0  0.4748297E-002  0.4395361E+03  0.7546771E-02  0.1030889E+00
         21   -1    0    0  502  501  0.00000000000E+00  0.00000000000E+00  0.95499597253E+03  0.95499597253E+03  0.00000000000E+00 0.  1.
         21   -1    0    0  501  502 -0.00000000000E+00 -0.00000000000E+00 -0.50574033890E+02  0.50574033890E+02  0.00000000000E+00 0.  1.
      99926    2    1    2    0    0 -0.22204460493E-14  0.00000000000E+00  0.90442193864E+03  0.10055700064E+04  0.43953611310E+03 0.  0.
      99925    2    3    3    0    0 -0.35512317135E+01 -0.70232192402E+02  0.73390000897E+03  0.78270141578E+03  0.26280622328E+03 0.  0.
         25    1    3    3    0    0  0.35512317135E+01  0.70232192402E+02  0.17052192966E+03  0.22286859063E+03  0.12509000000E+03 0.  0.
         25    1    4    4    0    0 -0.34991645807E+02 -0.58061946697E+02  0.39982277236E+03  0.42438350855E+03  0.12509000000E+03 0.  0.
         25    1    4    4    0    0  0.31440414093E+02 -0.12170245706E+02  0.33407723661E+03  0.35831790723E+03  0.12509000000E+03 0.  0.
<mgrwt>
<rscale>  2 0.43953611E+03</rscale>
<asrwt>0</asrwt>
<pdfrwt beam="1">  1       21 0.14044057E+00 0.43953611E+03</pdfrwt>
<pdfrwt beam="2">  1       21 0.74373585E-02 0.43953611E+03</pdfrwt>
<totfact> 0.44032687E+04</totfact>
</mgrwt>
</event>
<event>
 7    0  0.4748297E-002  0.4534322E+03  0.7546771E-02  0.1026703E+00
         21   -1    0    0  502  501  0.00000000000E+00  0.00000000000E+00  0.13074336362E+03  0.13074336362E+03  0.00000000000E+00 0.  1.
         21   -1    0    0  501  502 -0.00000000000E+00 -0.00000000000E+00 -0.39313805600E+03  0.39313805600E+03  0.00000000000E+00 0.  1.
      99926    2    1    2    0    0  0.35527136788E-14  0.00000000000E+00 -0.26239469238E+03  0.52388141962E+03  0.45343220798E+03 0.  0.
      99925    2    3    3    0    0 -0.28990095681E+02  0.36025256251E+02 -0.28280931888E+03  0.38896474233E+03  0.26300991463E+03 0.  0.
         25    1    3    3    0    0  0.28990095681E+02 -0.36025256251E+02  0.20414626503E+02  0.13491667729E+03  0.12509000000E+03 0.  0.
         25    1    4    4    0    0 -0.36457348747E+02  0.48806233032E+02 -0.17173422767E+03  0.22102339178E+03  0.12509000000E+03 0.  0.
         25    1    4    4    0    0  0.74672530659E+01 -0.12780976782E+02 -0.11107509121E+03  0.16794135055E+03  0.12509000000E+03 0.  0.
<mgrwt>
<rscale>  2 0.45343221E+03</rscale>
<asrwt>0</asrwt>
<pdfrwt beam="1">  1       21 0.19226965E-01 0.45343221E+03</pdfrwt>
<pdfrwt beam="2">  1       21 0.57814421E-01 0.45343221E+03</pdfrwt>
<totfact> 0.64419517E+04</totfact>
</mgrwt>
</event>
<event>
 7    0  0.4748297E-002  0.4581266E+03  0.7546771E-02  0.1025326E+00
         21   -1    0    0  502  501  0.00000000000E+00  0.00000000000E+00  0.30474378920E+02  0.30474378920E+02  0.00000000000E+00 0. -1.
         21   -1    0    0  501  502 -0.00000000000E+00 -0.00000000000E+00 -0.17217741899E+04  0.17217741899E+04  0.00000000000E+00 0. -1.
      99926    2    1    2    0    0  0.00000000000E+00  0.71054273576E-14 -0.16912998110E+04  0.17522485688E+04  0.45812661603E+03 0.  0.
      99925    2    3    3    0    0  0.94099233955E+02 -0.58231006505E+02 -0.11953768962E+04  0.12289584375E+04  0.26299696079E+03 0.  0.
         25    1    3    3    0    0 -0.94099233955E+02  0.58231006505E+02 -0.49592291483E+03  0.52329013128E+03  0.12509000000E+03 0.  0.
         25    1    4    4    0    0  0.30314314424E+02  0.10211833432E+02 -0.53641291364E+03  0.55173323375E+03  0.12509000000E+03 0.  0.
         25    1    4    4    0    0  0.63784919531E+02 -0.68442839937E+02 -0.65896398252E+03  0.67722520379E+03  0.12509000000E+03 0.  0.
<mgrwt>
<rscale>  2 0.45812662E+03</rscale>
<asrwt>0</asrwt>
<pdfrwt beam="1">  1       21 0.44815255E-02 0.45812662E+03</pdfrwt>
<pdfrwt beam="2">  1       21 0.25320213E+00 0.45812662E+03</pdfrwt>
<totfact> 0.17760269E+04</totfact>
</mgrwt>
</event>
<event>
 7    0  0.4748297E-002  0.4521415E+03  0.7546771E-02  0.1027085E+00
         21   -1    0    0  502  501  0.00000000000E+00  0.00000000000E+00  0.62828177657E+02  0.62828177657E+02  0.00000000000E+00 0. -1.
         21   -1    0    0  501  502 -0.00000000000E+00 -0.00000000000E+00 -0.81345631091E+03  0.81345631091E+03  0.00000000000E+00 0. -1.
      99926    2    1    2    0    0  0.00000000000E+00 -0.35527136788E-14 -0.75062813326E+03  0.87628448857E+03  0.45214147175E+03 0.  0.
      99925    2    3    3    0    0  0.10583048727E+03 -0.31251243024E+02 -0.46036344796E+03  0.54150422055E+03  0.26289842987E+03 0.  0.
         25    1    4    4    0    0  0.52586679262E+02  0.14752523990E+02 -0.17363410147E+03  0.22086037466E+03  0.12509000000E+03 0.  0.
         25    1    3    3    0    0 -0.10583048727E+03  0.31251243024E+02 -0.29026468530E+03  0.33478026802E+03  0.12509000000E+03 0.  0.
         25    1    4    4    0    0  0.53243808009E+02 -0.46003767013E+02 -0.28672934649E+03  0.32064384589E+03  0.12509000000E+03 0.  0.
<mgrwt>
<rscale>  2 0.45214147E+03</rscale>
<asrwt>0</asrwt>
<pdfrwt beam="1">  1       21 0.92394383E-02 0.45214147E+03</pdfrwt>
<pdfrwt beam="2">  1       21 0.11962592E+00 0.45214147E+03</pdfrwt>
<totfact> 0.45280286E+04</totfact>
</mgrwt>
</event>
<event>
 7    0  0.4748297E-002  0.4538000E+03  0.7546771E-02  0.1026595E+00
         21   -1    0    0  502  501  0.00000000000E+00  0.00000000000E+00  0.13926986379E+03  0.13926986379E+03  0.00000000000E+00 0. -1.
         21   -1    0    0  501  502 -0.00000000000E+00 -0.00000000000E+00 -0.36966798833E+03  0.36966798833E+03  0.00000000000E+00 0. -1.
      99926    2    1    2    0    0  0.00000000000E+00  0.00000000000E+00 -0.23039812454E+03  0.50893785211E+03  0.45380000168E+03 0.  0.
      99925    2    3    3    0    0  0.39794114638E+02 -0.82739446266E+02 -0.21715680625E+03  0.35320658313E+03  0.26299890559E+03 0.  0.
         25    1    4    4    0    0  0.46621985485E+02 -0.32365437838E+02 -0.14644980224E+03  0.20078890351E+03  0.12509000000E+03 0.  0.
         25    1    3    3    0    0 -0.39794114638E+02  0.82739446266E+02 -0.13241318291E+02  0.15573126898E+03  0.12509000000E+03 0.  0.
         25    1    4    4    0    0 -0.68278708469E+01 -0.50374008428E+02 -0.70707004006E+02  0.15241767962E+03  0.12509000000E+03 0.  0.
<mgrwt>
<rscale>  2 0.45380000E+03</rscale>
<asrwt>0</asrwt>
<pdfrwt beam="1">  1       21 0.20480862E-01 0.45380000E+03</pdfrwt>
<pdfrwt beam="2">  1       21 0.54362940E-01 0.45380000E+03</pdfrwt>
<totfact> 0.65266564E+04</totfact>
</mgrwt>
</event>
<event>
 7    0  0.4748297E-002  0.4547777E+03  0.7546771E-02  0.1026307E+00
         21   -1    0    0  502  501  0.00000000000E+00  0.00000000000E+00  0.27383371894E+03  0.27383371894E+03  0.00000000000E+00 0.  1.
         21   -1    0    0  501  502 -0.00000000000E+00 -0.00000000000E+00 -0.18882151765E+03  0.18882151765E+03  0.00000000000E+00 0.  1.
      99926    2    1    2    0    0  0.00000000000E+00  0.14210854715E-13  0.85012201284E+02  0.46265523659E+03  0.45477774085E+03 0.  0.
      99925    2    3    3    0    0 -0.12620849731E+02 -0.11219660025E+03  0.51758432487E+02  0.29089760446E+03  0.26304964929E+03 0.  0.
         25    1    4    4    0    0  0.32536292649E+02 -0.45208910357E+02  0.32629586508E+02  0.14076453364E+03  0.12509000000E+03 0.  0.
         25    1    3    3    0    0  0.12620849731E+02  0.11219660025E+03  0.33253768797E+02  0.17175763213E+03  0.12509000000E+03 0.  0.
         25    1    4    4    0    0 -0.45157142380E+02 -0.66987689892E+02  0.19128845979E+02  0.15013307082E+03  0.12509000000E+03 0.  0.
<mgrwt>
<rscale>  2 0.45477774E+03</rscale>
<asrwt>0</asrwt>
<pdfrwt beam="1">  1       21 0.40269665E-01 0.45477774E+03</pdfrwt>
<pdfrwt beam="2">  1       21 0.27767870E-01 0.45477774E+03</pdfrwt>
<totfact> 0.68104814E+04</totfact>
</mgrwt>
</event>
<event>
 7    0  0.4748297E-002  0.4531386E+03  0.7546771E-02  0.1026790E+00
         21   -1    0    0  502  501  0.00000000000E+00  0.00000000000E+00  0.31779613796E+02  0.31779613796E+02  0.00000000000E+00 0.  1.
         21   -1    0    0  501  502 -0.00000000000E+00 -0.00000000000E+00 -0.16153013976E+04  0.16153013976E+04  0.00000000000E+00 0.  1.
      99926    2    1    2    0    0 -0.14210854715E-13  0.00000000000E+00 -0.15835217838E+04  0.16470810114E+04  0.45313863035E+03 0.  0.
      99925    2    3    3    0    0  0.10044166319E+03  0.42063448269E+02 -0.10839570754E+04  0.11207063659E+04  0.26298660800E+03 0.  0.
         25    1    4    4    0    0  0.17110741665E+02  0.38503510835E+01 -0.57168923383E+03  0.58547731882E+03  0.12509000000E+03 0.  0.
         25    1    3    3    0    0 -0.10044166319E+03 -0.42063448269E+02 -0.49956470842E+03  0.52637464546E+03  0.12509000000E+03 0.  0.
         25    1    4    4    0    0  0.83330921523E+02  0.38213097185E+02 -0.51226784154E+03  0.53522904710E+03  0.12509000000E+03 0.  0.
<mgrwt>
<rscale>  2 0.45313863E+03</rscale>
<asrwt>0</asrwt>
<pdfrwt beam="1">  1       21 0.46734723E-02 0.45313863E+03</pdfrwt>
<pdfrwt beam="2">  1       21 0.23754434E+00 0.45313863E+03</pdfrwt>
<totfact> 0.20683787E+04</totfact>
</mgrwt>
</event>
<event>
 7    0  0.4748297E-002  0.4494993E+03  0.7546771E-02  0.1027871E+00
         21   -1    0    0  502  501  0.00000000000E+00  0.00000000000E+00  0.46048435251E+03  0.46048435251E+03  0.00000000000E+00 0. -1.
         21   -1    0    0  501  502 -0.00000000000E+00 -0.00000000000E+00 -0.10969409240E+03  0.10969409240E+03  0.00000000000E+00 0. -1.
      99926    2    1    2    0    0  0.17763568394E-14  0.00000000000E+00  0.35079026011E+03  0.57017844491E+03  0.44949933533E+03 0.  0.
      99925    2    3    3    0    0 -0.88315904560E+01  0.10385892970E+03  0.18649715271E+03  0.33886824733E+03  0.26303198819E+03 0.  0.
         25    1    3    3    0    0  0.88315904560E+01 -0.10385892970E+03  0.16429310740E+03  0.23131019758E+03  0.12509000000E+03 0.  0.
         25    1    4    4    0    0  0.13960680622E+02  0.15608154529E+02  0.67773615726E+02  0.14380294218E+03  0.12509000000E+03 0.  0.
         25    1    4    4    0    0 -0.22792271078E+02  0.88250775170E+02  0.11872353698E+03  0.19506530515E+03  0.12509000000E+03 0.  0.
<mgrwt>
<rscale>  2 0.44949934E+03</rscale>
<asrwt>0</asrwt>
<pdfrwt beam="1">  1       21 0.67718286E-01 0.44949934E+03</pdfrwt>
<pdfrwt beam="2">  1       21 0.16131484E-01 0.44949934E+03</pdfrwt>
<totfact> 0.63259519E+04</totfact>
</mgrwt>
</event>
<event>
 7    0  0.4748297E-002  0.4530490E+03  0.7546771E-02  0.1026817E+00
         21   -1    0    0  502  501  0.00000000000E+00  0.00000000000E+00  0.78609915297E+02  0.78609915297E+02  0.00000000000E+00 0.  1.
         21   -1    0    0  501  502 -0.00000000000E+00 -0.00000000000E+00 -0.65275920141E+03  0.65275920141E+03  0.00000000000E+00 0.  1.
      99926    2    1    2    0    0  0.00000000000E+00 -0.71054273576E-14 -0.57414928611E+03  0.73136911670E+03  0.45304898425E+03 0.  0.
      99925    2    3    3    0    0 -0.53109812856E+02  0.39674561015E+02 -0.21751669911E+03  0.34766476017E+03  0.26298773367E+03 0.  0.
         25    1    4    4    0    0 -0.12023144248E+01  0.48635574139E+02 -0.12494744774E+03  0.18337458229E+03  0.12509000000E+03 0.  0.
         25    1    3    3    0    0  0.53109812856E+02 -0.39674561015E+02 -0.35663258700E+03  0.38370435653E+03  0.12509000000E+03 0.  0.
         25    1    4    4    0    0 -0.51907498431E+02 -0.89610131236E+01 -0.92569251367E+02  0.16429017788E+03  0.12509000000E+03 0.  0.
<mgrwt>
<rscale>  2 0.45304898E+03</rscale>
<asrwt>0</asrwt>
<pdfrwt beam="1">  1       21 0.11560282E-01 0.45304898E+03</pdfrwt>
<pdfrwt beam="2">  1       21 0.95993998E-01 0.45304898E+03</pdfrwt>
<totfact> 0.52026289E+04</totfact>
</mgrwt>
</event>
<event>
 7    0  0.4748297E-002  0.4525160E+03  0.7546771E-02  0.1026974E+00
         21   -1    0    0  502  501  0.00000000000E+00  0.00000000000E+00  0.28718138408E+03  0.28718138408E+03  0.00000000000E+00 0. -1.
         21   -1    0    0  501  502 -0.00000000000E+00 -0.00000000000E+00 -0.17825905089E+03  0.17825905089E+03  0.00000000000E+00 0. -1.
      99926    2    1    2    0    0  0.71054273576E-14  0.00000000000E+00  0.10892233319E+03  0.46544043496E+03  0.45251599290E+03 0.  0.
      99925    2    3    3    0    0 -0.41729469757E+02  0.71783917349E+02 -0.65916034567E+01  0.27600639078E+03  0.26313836489E+03 0.  0.
         25    1    4    4    0    0 -0.37463424042E+02  0.77864997160E+01  0.21737104115E+02  0.13260523185E+03  0.12509000000E+03 0.  0.
         25    1    3    3    0    0  0.41729469757E+02 -0.71783917349E+02  0.11551393665E+03  0.18943404418E+03  0.12509000000E+03 0.  0.
         25    1    4    4    0    0 -0.42660457151E+01  0.63997417633E+02 -0.28328707572E+02  0.14340115893E+03  0.12509000000E+03 0.  0.
<mgrwt>
<rscale>  2 0.45251599E+03</rscale>
<asrwt>0</asrwt>
<pdfrwt beam="1">  1       21 0.42232556E-01 0.45251599E+03</pdfrwt>
<pdfrwt beam="2">  1       21 0.26214566E-01 0.45251599E+03</pdfrwt>
<totfact> 0.69128593E+04</totfact>
</mgrwt>
</event>
<event>
 7    0  0.4748297E-002  0.4441916E+03  0.7546771E-02  0.1029468E+00
         21   -1    0    0  502  501  0.00000000000E+00  0.00000000000E+00  0.13863643052E+04  0.13863643052E+04  0.00000000000E+00 0. -1.
         21   -1    0    0  501  502 -0.00000000000E+00 -0.00000000000E+00 -0.35579789756E+02  0.35579789756E+02  0.00000000000E+00 0. -1.
      99926    2    1    2    0    0 -0.17763568394E-14 -0.17763568394E-14  0.13507845155E+04  0.14219440950E+04  0.44419162759E+03 0.  0.
      99925    2    3    3    0    0  0.15847819240E+02  0.13183324711E+02  0.11800004615E+04  0.12092479394E+04  0.26354228559E+03 0.  0.
         25    1    4    4    0    0  0.12527673685E+02  0.33074028299E+02  0.74150736168E+03  0.75281572080E+03  0.12509000000E+03 0.  0.
         25    1    3    3    0    0 -0.15847819240E+02 -0.13183324711E+02  0.17078405398E+03  0.21269615563E+03  0.12509000000E+03 0.  0.
         25    1    4    4    0    0  0.33201455554E+01 -0.19890703588E+02  0.43849309983E+03  0.45643221858E+03  0.12509000000E+03 0.  0.
<mgrwt>
<rscale>  2 0.44419163E+03</rscale>
<asrwt>0</asrwt>
<pdfrwt beam="1">  1       21 0.20387707E+00 0.44419163E+03</pdfrwt>
<pdfrwt beam="2">  1       21 0.52323229E-02 0.44419163E+03</pdfrwt>
<totfact> 0.28034750E+04</totfact>
</mgrwt>
</event>
<event>
 7    0  0.4748297E-002  0.4574723E+03  0.7546771E-02  0.1025517E+00
         21   -1    0    0  502  501  0.00000000000E+00  0.00000000000E+00  0.10116390976E+04  0.10116390976E+04  0.00000000000E+00 0. -1.
         21   -1    0    0  501  502 -0.00000000000E+00 -0.00000000000E+00 -0.51718266808E+02  0.51718266808E+02  0.00000000000E+00 0. -1.
      99926    2    1    2    0    0  0.00000000000E+00 -0.17763568394E-14  0.95992083082E+03  0.10633573644E+04  0.45747227573E+03 0.  0.
      99925    2    3    3    0    0  0.16710231028E+02 -0.10486163302E+02  0.86709802889E+03  0.90634535184E+03  0.26308499321E+03 0.  0.
         25    1    4    4    0    0 -0.49163112886E+01 -0.29800861389E+02  0.53571552196E+03  0.55095452628E+03  0.12509000000E+03 0.  0.
         25    1    3    3    0    0 -0.16710231028E+02  0.10486163302E+02  0.92822801933E+02  0.15701201260E+03  0.12509000000E+03 0.  0.
         25    1    4    4    0    0  0.21626542316E+02  0.19314698087E+02  0.33138250693E+03  0.35539082556E+03  0.12509000000E+03 0.  0.
<mgrwt>
<rscale>  2 0.45747228E+03</rscale>
<asrwt>0</asrwt>
<pdfrwt beam="1">  1       21 0.14877044E+00 0.45747228E+03</pdfrwt>
<pdfrwt beam="2">  1       21 0.76056281E-02 0.45747228E+03</pdfrwt>
<totfact> 0.36089697E+04</totfact>
</mgrwt>
</event>
<event>
 7    0  0.4748297E-002  0.4636281E+03  0.7546771E-02  0.1023734E+00
         21   -1    0    0  502  501  0.00000000000E+00  0.00000000000E+00  0.36577218716E+03  0.36577218716E+03  0.00000000000E+00 0.  1.
         21   -1    0    0  501  502 -0.00000000000E+00 -0.00000000000E+00 -0.14691590723E+03  0.14691590723E+03  0.00000000000E+00 0.  1.
      99926    2    1    2    0    0  0.00000000000E+00  0.00000000000E+00  0.21885627993E+03  0.51268809440E+03  0.46362809543E+03 0.  0.
      99925    2    3    3    0    0 -0.54873646094E+02  0.10116290603E+03  0.17718993712E+03  0.33767768666E+03  0.26341012824E+03 0.  0.
         25    1    4    4    0    0 -0.54729516528E+02  0.81290597465E+02  0.79261339365E+02  0.17757631946E+03  0.12509000000E+03 0.  0.
         25    1    4    4    0    0 -0.14412956661E+00  0.19872308563E+02  0.97928597759E+02  0.16010136720E+03  0.12509000000E+03 0.  0.
         25    1    3    3    0    0  0.54873646094E+02 -0.10116290603E+03  0.41666342809E+02  0.17501040773E+03  0.12509000000E+03 0.  0.
<mgrwt>
<rscale>  2 0.46362810E+03</rscale>
<asrwt>0</asrwt>
<pdfrwt beam="1">  1       21 0.53790027E-01 0.46362810E+03</pdfrwt>
<pdfrwt beam="2">  1       21 0.21605281E-01 0.46362810E+03</pdfrwt>
<totfact> 0.60161593E+04</totfact>
</mgrwt>
</event>
<event>
 7    0  0.4748297E-002  0.4488473E+03  0.7546771E-02  0.1028066E+00
         21   -1    0    0  502  501  0.00000000000E+00  0.00000000000E+00  0.15300064270E+04  0.15300064270E+04  0.00000000000E+00 0.  1.
         21   -1    0    0  501  502 -0.00000000000E+00 -0.00000000000E+00 -0.32918805476E+02  0.32918805476E+02  0.00000000000E+00 0.  1.
      99926    2    1    2    0    0  0.00000000000E+00  0.00000000000E+00  0.14970876216E+04  0.15629252325E+04  0.44884734130E+03 0.  0.
      99925    2    3    3    0    0 -0.48858547641E+02 -0.90884410698E+02  0.10489061157E+04  0.10863108139E+04  0.26309696110E+03 0.  0.
         25    1    4    4    0    0  0.84123138777E+01 -0.54356171825E+02  0.42743658634E+03  0.44874815195E+03  0.12509000000E+03 0.  0.
         25    1    4    4    0    0 -0.57270861519E+02 -0.36528238873E+02  0.62146952937E+03  0.63756266190E+03  0.12509000000E+03 0.  0.
         25    1    3    3    0    0  0.48858547641E+02  0.90884410698E+02  0.44818150585E+03  0.47661441866E+03  0.12509000000E+03 0.  0.
<mgrwt>
<rscale>  2 0.44884734E+03</rscale>
<asrwt>0</asrwt>
<pdfrwt beam="1">  1       21 0.22500090E+00 0.44884734E+03</pdfrwt>
<pdfrwt beam="2">  1       21 0.48410018E-02 0.44884734E+03</pdfrwt>
<totfact> 0.23375396E+04</totfact>
</mgrwt>
</event>
<event>
 7    0  0.4748297E-002  0.4566721E+03  0.7546771E-02  0.1025751E+00
         21   -1    0    0  502  501  0.00000000000E+00  0.00000000000E+00  0.27047509861E+03  0.27047509861E+03  0.00000000000E+00 0.  1.
         21   -1    0    0  501  502 -0.00000000000E+00 -0.00000000000E+00 -0.19276209092E+03  0.19276209092E+03  0.00000000000E+00 0.  1.
      99926    2    1    2    0    0  0.00000000000E+00 -0.71054273576E-14  0.77713007697E+02  0.46323718953E+03  0.45667207293E+03 0.  0.
      99925    2    3    3    0    0  0.15190555192E+02  0.62841875092E+02 -0.47482223421E+02  0.27481954644E+03  0.26285236794E+03 0.  0.
         25    1    3    3    0    0 -0.15190555192E+02 -0.62841875092E+02  0.12519523112E+03  0.18841764309E+03  0.12509000000E+03 0.  0.
         25    1    4    4    0    0 -0.24974059008E+02  0.53661266020E+02 -0.33467314591E+02  0.14237557494E+03  0.12509000000E+03 0.  0.
         25    1    4    4    0    0  0.40164614200E+02  0.91806090726E+01 -0.14014908830E+02  0.13244397150E+03  0.12509000000E+03 0.  0.
<mgrwt>
<rscale>  2 0.45667207E+03</rscale>
<asrwt>0</asrwt>
<pdfrwt beam="1">  1       21 0.39775750E-01 0.45667207E+03</pdfrwt>
<pdfrwt beam="2">  1       21 0.28347366E-01 0.45667207E+03</pdfrwt>
<totfact> 0.67045542E+04</totfact>
</mgrwt>
</event>
<event>
 7    0  0.4748297E-002  0.4569168E+03  0.7546771E-02  0.1025679E+00
         21   -1    0    0  502  501  0.00000000000E+00  0.00000000000E+00  0.26623935365E+03  0.26623935365E+03  0.00000000000E+00 0. -1.
         21   -1    0    0  501  502 -0.00000000000E+00 -0.00000000000E+00 -0.19603877342E+03  0.19603877342E+03  0.00000000000E+00 0. -1.
      99926    2    1    2    0    0  0.00000000000E+00  0.00000000000E+00  0.70200580236E+02  0.46227812707E+03  0.45691678159E+03 0.  0.
      99925    2    3    3    0    0  0.11172997761E+03 -0.16136928301E+02  0.21954937007E+02  0.28700936618E+03  0.26296077400E+03 0.  0.
         25    1    4    4    0    0  0.58322676918E+02  0.99281697774E+01  0.47268914487E+02  0.14622572132E+03  0.12509000000E+03 0.  0.
         25    1    3    3    0    0 -0.11172997761E+03  0.16136928301E+02  0.48245643229E+02  0.17526876089E+03  0.12509000000E+03 0.  0.
         25    1    4    4    0    0  0.53407300697E+02 -0.26065098078E+02 -0.25313977481E+02  0.14078364486E+03  0.12509000000E+03 0.  0.
<mgrwt>
<rscale>  2 0.45691678E+03</rscale>
<asrwt>0</asrwt>
<pdfrwt beam="1">  1       21 0.39152846E-01 0.45691678E+03</pdfrwt>
<pdfrwt beam="2">  1       21 0.28829231E-01 0.45691678E+03</pdfrwt>
<totfact> 0.66985074E+04</totfact>
</mgrwt>
</event>
<event>
 7    0  0.4748297E-002  0.4493987E+03  0.7546771E-02  0.1027902E+00
         21   -1    0    0  502  501  0.00000000000E+00  0.00000000000E+00  0.30204714806E+02  0.30204714806E+02  0.00000000000E+00 0.  1.
         21   -1    0    0  501  502 -0.00000000000E+00 -0.00000000000E+00 -0.16715863901E+04  0.16715863901E+04  0.00000000000E+00 0.  1.
      99926    2    1    2    0    0  0.14210854715E-13 -0.35527136788E-14 -0.16413816753E+04  0.17017911049E+04  0.44939866572E+03 0.  0.
      99925    2    3    3    0    0  0.81171114838E+02 -0.26065838560E+02 -0.12880619439E+04  0.13174078086E+04  0.26304293355E+03 0.  0.
         25    1    4    4    0    0  0.60858358961E+02  0.84481339350E+01 -0.79651759693E+03  0.80861789564E+03  0.12509000000E+03 0.  0.
         25    1    3    3    0    0 -0.81171114838E+02  0.26065838560E+02 -0.35331973141E+03  0.38438329637E+03  0.12509000000E+03 0.  0.
         25    1    4    4    0    0  0.20312755877E+02 -0.34513972495E+02 -0.49154434697E+03  0.50878991292E+03  0.12509000000E+03 0.  0.
<mgrwt>
<rscale>  2 0.44939867E+03</rscale>
<asrwt>0</asrwt>
<pdfrwt beam="1">  1       21 0.44418694E-02 0.44939867E+03</pdfrwt>
<pdfrwt beam="2">  1       21 0.24582155E+00 0.44939867E+03</pdfrwt>
<totfact> 0.20083770E+04</totfact>
</mgrwt>
</event>
<event>
 7    0  0.4748297E-002  0.4525317E+03  0.7546771E-02  0.1026970E+00
         21   -1    0    0  502  501  0.00000000000E+00  0.00000000000E+00  0.54222320608E+02  0.54222320608E+02  0.00000000000E+00 0. -1.
         21   -1    0    0  501  502 -0.00000000000E+00 -0.00000000000E+00 -0.94419128175E+03  0.94419128175E+03  0.00000000000E+00 0. -1.
      99926    2    1    2    0    0  0.00000000000E+00  0.00000000000E+00 -0.88996896114E+03  0.99841360236E+03  0.45253173323E+03 0.  0.
      99925    2    3    3    0    0 -0.80691004932E+02 -0.75819096922E+02 -0.54702444992E+03  0.61694536041E+03  0.26291872355E+03 0.  0.
         25    1    3    3    0    0  0.80691004932E+02  0.75819096922E+02 -0.34294451123E+03  0.38146824195E+03  0.12509000000E+03 0.  0.
         25    1    4    4    0    0 -0.28844270694E+02 -0.41026069782E+02 -0.18516371157E+03  0.22901580412E+03  0.12509000000E+03 0.  0.
         25    1    4    4    0    0 -0.51846734238E+02 -0.34793027140E+02 -0.36186073835E+03  0.38792955630E+03  0.12509000000E+03 0.  0.
<mgrwt>
<rscale>  2 0.45253173E+03</rscale>
<asrwt>0</asrwt>
<pdfrwt beam="1">  1       21 0.79738702E-02 0.45253173E+03</pdfrwt>
<pdfrwt beam="2">  1       21 0.13885167E+00 0.45253173E+03</pdfrwt>
<totfact> 0.39993972E+04</totfact>
</mgrwt>
</event>
<event>
 7    0  0.4748297E-002  0.4554729E+03  0.7546771E-02  0.1026102E+00
         21   -1    0    0  502  501  0.00000000000E+00  0.00000000000E+00  0.21400942190E+03  0.21400942190E+03  0.00000000000E+00 0.  1.
         21   -1    0    0  501  502 -0.00000000000E+00 -0.00000000000E+00 -0.24234396658E+03  0.24234396658E+03  0.00000000000E+00 0.  1.
      99926    2    1    2    0    0  0.14210854715E-13  0.00000000000E+00 -0.28334544675E+02  0.45635338848E+03  0.45547290672E+03 0.  0.
      99925    2    3    3    0    0 -0.90442312345E+02 -0.64009359528E+02  0.71891431751E+01  0.28551296449E+03  0.26303794240E+03 0.  0.
         25    1    4    4    0    0 -0.65078754055E+02 -0.67428880389E+02  0.18213013598E+02  0.15735666527E+03  0.12509000000E+03 0.  0.
         25    1    4    4    0    0 -0.25363558290E+02  0.34195208612E+01 -0.11023870423E+02  0.12815629923E+03  0.12509000000E+03 0.  0.
         25    1    3    3    0    0  0.90442312345E+02  0.64009359528E+02 -0.35523687850E+02  0.17084042399E+03  0.12509000000E+03 0.  0.
<mgrwt>
<rscale>  2 0.45547291E+03</rscale>
<asrwt>0</asrwt>
<pdfrwt beam="1">  1       21 0.31471974E-01 0.45547291E+03</pdfrwt>
<pdfrwt beam="2">  1       21 0.35638818E-01 0.45547291E+03</pdfrwt>
<totfact> 0.68189136E+04</totfact>
</mgrwt>
</event>
<event>
 7    0  0.4748297E-002  0.4522096E+03  0.7546771E-02  0.1027065E+00
         21   -1    0    0  502  501  0.00000000000E+00  0.00000000000E+00  0.26176011050E+03  0.26176011050E+03  0.00000000000E+00 0. -1.
         21   -1    0    0  501  502 -0.00000000000E+00 -0.00000000000E+00 -0.19530627151E+03  0.19530627151E+03  0.00000000000E+00 0. -1.
      99926    2    1    2    0    0  0.00000000000E+00 -0.35527136788E-14  0.66453838985E+02  0.45706638201E+03  0.45220964701E+03 0.  0.
      99925    2    3    3    0    0 -0.95435230879E+02  0.23719886923E+02 -0.93424800117E+01  0.28081909436E+03  0.26287176626E+03 0.  0.
         25    1    4    4    0    0 -0.49527777526E+02  0.34652525478E+02 -0.38114464031E+02  0.14406255147E+03  0.12509000000E+03 0.  0.
         25    1    4    4    0    0 -0.45907453353E+02 -0.10932638555E+02  0.28771984019E+02  0.13675654289E+03  0.12509000000E+03 0.  0.
         25    1    3    3    0    0  0.95435230879E+02 -0.23719886923E+02  0.75796318997E+02  0.17624728764E+03  0.12509000000E+03 0.  0.
<mgrwt>
<rscale>  2 0.45220965E+03</rscale>
<asrwt>0</asrwt>
<pdfrwt beam="1">  1       21 0.38494134E-01 0.45220965E+03</pdfrwt>
<pdfrwt beam="2">  1       21 0.28721511E-01 0.45220965E+03</pdfrwt>
<totfact> 0.69938267E+04</totfact>
</mgrwt>
</event>
<event>
 7    0  0.4748297E-002  0.4559122E+03  0.7546771E-02  0.1025973E+00
         21   -1    0    0  502  501  0.00000000000E+00  0.00000000000E+00  0.42901132066E+03  0.42901132066E+03  0.00000000000E+00 0.  1.
         21   -1    0    0  501  502 -0.00000000000E+00 -0.00000000000E+00 -0.12112496496E+03  0.12112496496E+03  0.00000000000E+00 0.  1.
      99926    2    1    2    0    0  0.00000000000E+00  0.35527136788E-14  0.30788635570E+03  0.55013628563E+03  0.45591218972E+03 0.  0.
      99925    2    3    3    0    0 -0.69195773894E+01 -0.25264050576E+02  0.59626317453E+02  0.27091109426E+03  0.26296648162E+03 0.  0.
         25    1    3    3    0    0  0.69195773894E+01  0.25264050576E+02  0.24826003825E+03  0.27922519137E+03  0.12509000000E+03 0.  0.
         25    1    4    4    0    0  0.40764875274E+01 -0.46333713423E+02  0.52407733661E+02  0.14337890151E+03  0.12509000000E+03 0.  0.
         25    1    4    4    0    0 -0.10996064917E+02  0.21069662847E+02  0.72185837923E+01  0.12753219275E+03  0.12509000000E+03 0.  0.
<mgrwt>
<rscale>  2 0.45591219E+03</rscale>
<asrwt>0</asrwt>
<pdfrwt beam="1">  1       21 0.63089900E-01 0.45591219E+03</pdfrwt>
<pdfrwt beam="2">  1       21 0.17812495E-01 0.45591219E+03</pdfrwt>
<totfact> 0.61413078E+04</totfact>
</mgrwt>
</event>
<event>
 7    0  0.4748297E-002  0.4567437E+03  0.7546771E-02  0.1025730E+00
         21   -1    0    0  502  501  0.00000000000E+00  0.00000000000E+00  0.34869203621E+02  0.34869203621E+02  0.00000000000E+00 0. -1.
         21   -1    0    0  501  502 -0.00000000000E+00 -0.00000000000E+00 -0.14956949998E+04  0.14956949998E+04  0.00000000000E+00 0. -1.
      99926    2    1    2    0    0  0.00000000000E+00  0.00000000000E+00 -0.14608257962E+04  0.15305642034E+04  0.45674366335E+03 0.  0.
      99925    2    3    3    0    0  0.63755276795E+02  0.89863334508E+02 -0.10259570033E+04  0.10648405415E+04  0.26297804445E+03 0.  0.
         25    1    3    3    0    0 -0.63755276795E+02 -0.89863334508E+02 -0.43486879281E+03  0.46572366192E+03  0.12509000000E+03 0.  0.
         25    1    4    4    0    0  0.10117888477E+02  0.61894283100E+02 -0.62554886180E+03  0.64100870552E+03  0.12509000000E+03 0.  0.
         25    1    4    4    0    0  0.53637388318E+02  0.27969051407E+02 -0.40040814154E+03  0.42383183596E+03  0.12509000000E+03 0.  0.
<mgrwt>
<rscale>  2 0.45674366E+03</rscale>
<asrwt>0</asrwt>
<pdfrwt beam="1">  1       21 0.51278248E-02 0.45674366E+03</pdfrwt>
<pdfrwt beam="2">  1       21 0.21995512E+00 0.45674366E+03</pdfrwt>
<totfact> 0.22730506E+04</totfact>
</mgrwt>
</event>
<event>
 7    0  0.4748297E-002  0.4402694E+03  0.7546771E-02  0.1030664E+00
         21   -1    0    0  502  501  0.00000000000E+00  0.00000000000E+00  0.12974956157E+03  0.12974956157E+03  0.00000000000E+00 0.  1.
         21   -1    0    0  501  502 -0.00000000000E+00 -0.00000000000E+00 -0.37348330948E+03  0.37348330948E+03  0.00000000000E+00 0.  1.
      99926    2    1    2    0    0  0.71054273576E-14  0.00000000000E+00 -0.24373374791E+03  0.50323287104E+03  0.44026944321E+03 0.  0.
      99925    2    3    3    0    0 -0.38927894923E+02  0.86161544752E+02 -0.12353292628E+03  0.30566025548E+03  0.26311331230E+03 0.  0.
         25    1    4    4    0    0 -0.44332245896E+01  0.44919874238E+02 -0.19711479954E+02  0.13443771466E+03  0.12509000000E+03 0.  0.
         25    1    3    3    0    0  0.38927894923E+02 -0.86161544752E+02 -0.12020082163E+03  0.19757261556E+03  0.12509000000E+03 0.  0.
         25    1    4    4    0    0 -0.34494670333E+02  0.41241670514E+02 -0.10382144633E+03  0.17122254082E+03  0.12509000000E+03 0.  0.
<mgrwt>
<rscale>  2 0.44026944E+03</rscale>
<asrwt>0</asrwt>
<pdfrwt beam="1">  1       21 0.19080818E-01 0.44026944E+03</pdfrwt>
<pdfrwt beam="2">  1       21 0.54924016E-01 0.44026944E+03</pdfrwt>
<totfact> 0.73238402E+04</totfact>
</mgrwt>
</event>
<event>
 7    0  0.4748297E-002  0.4486727E+03  0.7546771E-02  0.1028119E+00
         21   -1    0    0  502  501  0.00000000000E+00  0.00000000000E+00  0.17148288824E+02  0.17148288824E+02  0.00000000000E+00 0.  1.
         21   -1    0    0  501  502 -0.00000000000E+00 -0.00000000000E+00 -0.29348001840E+04  0.29348001840E+04  0.00000000000E+00 0.  1.
      99926    2    1    2    0    0  0.14210854715E-13  0.14210854715E-13 -0.29176518952E+04  0.29519484728E+04  0.44867271456E+03 0.  0.
      99925    2    3    3    0    0 -0.66207985611E+02 -0.84226259036E+02 -0.18413924605E+04  0.18631604132E+04  0.26298853864E+03 0.  0.
         25    1    3    3    0    0  0.66207985611E+02  0.84226259036E+02 -0.10762594347E+04  0.10887880597E+04  0.12509000000E+03 0.  0.
         25    1    4    4    0    0 -0.49543532462E+02 -0.61465453850E+02 -0.11993940386E+04  0.12084809190E+04  0.12509000000E+03 0.  0.
         25    1    4    4    0    0 -0.16664453149E+02 -0.22760805186E+02 -0.64199842197E+03  0.65467949423E+03  0.12509000000E+03 0.  0.
<mgrwt>
<rscale>  2 0.44867271E+03</rscale>
<asrwt>0</asrwt>
<pdfrwt beam="1">  1       21 0.25218060E-02 0.44867271E+03</pdfrwt>
<pdfrwt beam="2">  1       21 0.43158847E+00 0.44867271E+03</pdfrwt>
<totfact> 0.37027316E+03</totfact>
</mgrwt>
</event>
<event>
 7    0  0.4748297E-002  0.4589648E+03  0.7546771E-02  0.1025082E+00
         21   -1    0    0  502  501  0.00000000000E+00  0.00000000000E+00  0.51412073213E+03  0.51412073213E+03  0.00000000000E+00 0.  1.
         21   -1    0    0  501  502 -0.00000000000E+00 -0.00000000000E+00 -0.10243152716E+03  0.10243152716E+03  0.00000000000E+00 0.  1.
      99926    2    1    2    0    0 -0.71054273576E-14  0.00000000000E+00  0.41168920498E+03  0.61655225929E+03  0.45896479924E+03 0.  0.
      99925    2    3    3    0    0  0.48119299584E+02 -0.71578617932E+02  0.36411712230E+03  0.45733675537E+03  0.26293851663E+03 0.  0.
         25    1    4    4    0    0  0.46616690047E+02 -0.22189046255E+02  0.23334300199E+03  0.26974420150E+03  0.12509000000E+03 0.  0.
         25    1    3    3    0    0 -0.48119299584E+02  0.71578617932E+02  0.47572082679E+02  0.15921550392E+03  0.12509000000E+03 0.  0.
         25    1    4    4    0    0  0.15026095366E+01 -0.49389571678E+02  0.13077412031E+03  0.18759255387E+03  0.12509000000E+03 0.  0.
<mgrwt>
<rscale>  2 0.45896480E+03</rscale>
<asrwt>0</asrwt>
<pdfrwt beam="1">  1       21 0.75605989E-01 0.45896480E+03</pdfrwt>
<pdfrwt beam="2">  1       21 0.15063460E-01 0.45896480E+03</pdfrwt>
<totfact> 0.55899812E+04</totfact>
</mgrwt>
</event>
<event>
 7    0  0.4748297E-002  0.4554238E+03  0.7546771E-02  0.1026117E+00
         21   -1    0    0  502  501  0.00000000000E+00  0.00000000000E+00  0.14770708519E+04  0.14770708519E+04  0.00000000000E+00 0.  1.
         21   -1    0    0  501  502 -0.00000000000E+00 -0.00000000000E+00 -0.35105097868E+02  0.35105097868E+02  0.00000000000E+00 0.  1.
      99926    2    1    2    0    0  0.00000000000E+00  0.00000000000E+00  0.14419657540E+04  0.15121759497E+04  0.45542383254E+03 0.  0.
      99925    2    3    3    0    0  0.81197671139E+02  0.77437485910E+02  0.96490226375E+03  0.10063828024E+04  0.26302155887E+03 0.  0.
         25    1    3    3    0    0 -0.81197671139E+02 -0.77437485910E+02  0.47706349023E+03  0.50579314728E+03  0.12509000000E+03 0.  0.
         25    1    4    4    0    0  0.44192756828E+02  0.42437769645E+02  0.34742480321E+03  0.37430664706E+03  0.12509000000E+03 0.  0.
         25    1    4    4    0    0  0.37004914311E+02  0.34999716265E+02  0.61747746054E+03  0.63207615538E+03  0.12509000000E+03 0.  0.
<mgrwt>
<rscale>  2 0.45542383E+03</rscale>
<asrwt>0</asrwt>
<pdfrwt beam="1">  1       21 0.21721626E+00 0.45542383E+03</pdfrwt>
<pdfrwt beam="2">  1       21 0.51625154E-02 0.45542383E+03</pdfrwt>
<totfact> 0.23405138E+04</totfact>
</mgrwt>
</event>
<event>
 7    0  0.4748297E-002  0.4520390E+03  0.7546771E-02  0.1027116E+00
         21   -1    0    0  502  501  0.00000000000E+00  0.00000000000E+00  0.82729150515E+03  0.82729150515E+03  0.00000000000E+00 0. -1.
         21   -1    0    0  501  502 -0.00000000000E+00 -0.00000000000E+00 -0.61749480908E+02  0.61749480908E+02  0.00000000000E+00 0. -1.
      99926    2    1    2    0    0  0.00000000000E+00  0.00000000000E+00  0.76554202424E+03  0.88904098606E+03  0.45203902930E+03 0.  0.
      99925    2    3    3    0    0  0.84799663479E+02  0.70456878166E+02  0.47234175774E+03  0.55174429325E+03  0.26298265041E+03 0.  0.
         25    1    4    4    0    0  0.53720150780E+02  0.22006939698E+02  0.16552082878E+03  0.21544097302E+03  0.12509000000E+03 0.  0.
         25    1    4    4    0    0  0.31079512699E+02  0.48449938468E+02  0.30682092896E+03  0.33630332023E+03  0.12509000000E+03 0.  0.
         25    1    3    3    0    0 -0.84799663479E+02 -0.70456878166E+02  0.29320026650E+03  0.33729669281E+03  0.12509000000E+03 0.  0.
<mgrwt>
<rscale>  2 0.45203903E+03</rscale>
<asrwt>0</asrwt>
<pdfrwt beam="1">  1       21 0.12166051E+00 0.45203903E+03</pdfrwt>
<pdfrwt beam="2">  1       21 0.90808065E-02 0.45203903E+03</pdfrwt>
<totfact> 0.44739280E+04</totfact>
</mgrwt>
</event>
<event>
 7    0  0.4748297E-002  0.4521688E+03  0.7546771E-02  0.1027077E+00
         21   -1    0    0  502  501  0.00000000000E+00  0.00000000000E+00  0.20471561479E+03  0.20471561479E+03  0.00000000000E+00 0. -1.
         21   -1    0    0  501  502 -0.00000000000E+00 -0.00000000000E+00 -0.24968371545E+03  0.24968371545E+03  0.00000000000E+00 0. -1.
      99926    2    1    2    0    0  0.00000000000E+00  0.00000000000E+00 -0.44968100658E+02  0.45439933024E+03  0.45216879730E+03 0.  0.
      99925    2    3    3    0    0  0.50690102819E+02 -0.97860007653E+02 -0.18982456076E+02  0.28567224455E+03  0.26287303028E+03 0.  0.
         25    1    4    4    0    0 -0.44177165820E+01 -0.69407103688E+02 -0.27700551991E+02  0.14577959714E+03  0.12509000000E+03 0.  0.
         25    1    4    4    0    0  0.55107819401E+02 -0.28452903964E+02  0.87180959155E+01  0.13989264741E+03  0.12509000000E+03 0.  0.
         25    1    3    3    0    0 -0.50690102819E+02  0.97860007653E+02 -0.25985644582E+02  0.16872708569E+03  0.12509000000E+03 0.  0.
<mgrwt>
<rscale>  2 0.45216880E+03</rscale>
<asrwt>0</asrwt>
<pdfrwt beam="1">  1       21 0.30105237E-01 0.45216880E+03</pdfrwt>
<pdfrwt beam="2">  1       21 0.36718194E-01 0.45216880E+03</pdfrwt>
<totfact> 0.70161337E+04</totfact>
</mgrwt>
</event>
<event>
 7    0  0.4748297E-002  0.4528669E+03  0.7546771E-02  0.1026871E+00
         21   -1    0    0  502  501  0.00000000000E+00  0.00000000000E+00  0.53020142957E+02  0.53020142957E+02  0.00000000000E+00 0. -1.
         21   -1    0    0  501  502 -0.00000000000E+00 -0.00000000000E+00 -0.96703070304E+03  0.96703070304E+03  0.00000000000E+00 0. -1.
      99926    2    1    2    0    0  0.00000000000E+00 -0.14210854715E-13 -0.91401056008E+03  0.10200508460E+04  0.45286689488E+03 0.  0.
      99925    2    3    3    0    0  0.25754794631E+02 -0.91379714426E+02 -0.44423083920E+03  0.52471857781E+03  0.26263089260E+03 0.  0.
         25    1    4    4    0    0  0.13387624382E+02 -0.12223052389E+02 -0.15894444934E+03  0.20307505404E+03  0.12509000000E+03 0.  0.
         25    1    3    3    0    0 -0.25754794631E+02  0.91379714426E+02 -0.46977972088E+03  0.49533226818E+03  0.12509000000E+03 0.  0.
         25    1    4    4    0    0  0.12367170248E+02 -0.79156662037E+02 -0.28528638986E+03  0.32164352378E+03  0.12509000000E+03 0.  0.
<mgrwt>
<rscale>  2 0.45286689E+03</rscale>
<asrwt>0</asrwt>
<pdfrwt beam="1">  1       21 0.77970801E-02 0.45286689E+03</pdfrwt>
<pdfrwt beam="2">  1       21 0.14221039E+00 0.45286689E+03</pdfrwt>
<totfact> 0.39042043E+04</totfact>
</mgrwt>
</event>
<event>
 7    0  0.4748297E-002  0.4481422E+03  0.7546771E-02  0.1028278E+00
         21   -1    0    0  502  501  0.00000000000E+00  0.00000000000E+00  0.34690078946E+02  0.34690078946E+02  0.00000000000E+00 0.  1.
         21   -1    0    0  501  502 -0.00000000000E+00 -0.00000000000E+00 -0.14473262509E+04  0.14473262509E+04  0.00000000000E+00 0.  1.
      99926    2    1    2    0    0 -0.14210854715E-13  0.14210854715E-13 -0.14126361719E+04  0.14820163298E+04  0.44814221807E+03 0.  0.
      99925    2    3    3    0    0  0.65376911053E+02 -0.80541315475E+02 -0.81283615862E+03  0.86059166981E+03  0.26297216088E+03 0.  0.
         25    1    4    4    0    0  0.19188511103E+02 -0.70850828358E+02 -0.35077837888E+03  0.37958005483E+03  0.12509000000E+03 0.  0.
         25    1    4    4    0    0  0.46188399950E+02 -0.96904871168E+01 -0.46205777974E+03  0.48101161498E+03  0.12509000000E+03 0.  0.
         25    1    3    3    0    0 -0.65376911053E+02  0.80541315475E+02 -0.59980001332E+03  0.62142466001E+03  0.12509000000E+03 0.  0.
<mgrwt>
<rscale>  2 0.44814222E+03</rscale>
<asrwt>0</asrwt>
<pdfrwt beam="1">  1       21 0.51014831E-02 0.44814222E+03</pdfrwt>
<pdfrwt beam="2">  1       21 0.21284206E+00 0.44814222E+03</pdfrwt>
<totfact> 0.25557957E+04</totfact>
</mgrwt>
</event>
<event>
 7    0  0.4748297E-002  0.4341836E+03  0.7546771E-02  0.1032546E+00
         21   -1    0    0  502  501  0.00000000000E+00  0.00000000000E+00  0.80567873656E+02  0.80567873656E+02  0.00000000000E+00 0.  1.
         21   -1    0    0  501  502 -0.00000000000E+00 -0.00000000000E+00 -0.58495846222E+03  0.58495846222E+03  0.00000000000E+00 0.  1.
      99926    2    1    2    0    0  0.00000000000E+00  0.00000000000E+00 -0.50439058857E+03  0.66552633588E+03  0.43418364538E+03 0.  0.
      99925    2    3    3    0    0 -0.39137289068E+02  0.75856939004E+02 -0.26965986575E+03  0.38618421066E+03  0.26293687222E+03 0.  0.
         25    1    3    3    0    0  0.39137289068E+02 -0.75856939004E+02 -0.23473072282E+03  0.27934212522E+03  0.12509000000E+03 0.  0.
         25    1    4    4    0    0 -0.47890155049E+02  0.68155081564E+02 -0.13497240619E+03  0.20199911046E+03  0.12509000000E+03 0.  0.
         25    1    4    4    0    0  0.87528659803E+01  0.77018574395E+01 -0.13468745956E+03  0.18418510020E+03  0.12509000000E+03 0.  0.
<mgrwt>
<rscale>  2 0.43418365E+03</rscale>
<asrwt>0</asrwt>
<pdfrwt beam="1">  1       21 0.11848217E-01 0.43418365E+03</pdfrwt>
<pdfrwt beam="2">  1       21 0.86023302E-01 0.43418365E+03</pdfrwt>
<totfact> 0.64806846E+04</totfact>
</mgrwt>
</event>
<event>
 7    0  0.4748297E-002  0.4726605E+03  0.7546771E-02  0.1021172E+00
         21   -1    0    0  502  501  0.00000000000E+00  0.00000000000E+00  0.28480125909E+03  0.28480125909E+03  0.00000000000E+00 0. -1.
         21   -1    0    0  501  502 -0.00000000000E+00 -0.00000000000E+00 -0.19610859826E+03  0.19610859826E+03  0.00000000000E+00 0. -1.
      99926    2    1    2    0    0 -0.71054273576E-14  0.00000000000E+00  0.88692660827E+02  0.48090985735E+03  0.47266045192E+03 0.  0.
      99925    2    3    3    0    0 -0.62195366746E+02  0.10385319352E+03  0.95221875102E+01  0.28967905074E+03  0.26300100938E+03 0.  0.
         25    1    4    4    0    0 -0.59436580348E+02  0.86223782701E+02  0.34440709060E+01  0.16317664512E+03  0.12509000000E+03 0.  0.
         25    1    4    4    0    0 -0.27587863978E+01  0.17629410817E+02  0.60781166042E+01  0.12650240563E+03  0.12509000000E+03 0.  0.
         25    1    3    3    0    0  0.62195366746E+02 -0.10385319352E+03  0.79170473317E+02  0.19123080660E+03  0.12509000000E+03 0.  0.
<mgrwt>
<rscale>  2 0.47266045E+03</rscale>
<asrwt>0</asrwt>
<pdfrwt beam="1">  1       21 0.41882538E-01 0.47266045E+03</pdfrwt>
<pdfrwt beam="2">  1       21 0.28839500E-01 0.47266045E+03</pdfrwt>
<totfact> 0.58056611E+04</totfact>
</mgrwt>
</event>
<event>
 7    0  0.4748297E-002  0.4574799E+03  0.7546771E-02  0.1025515E+00
         21   -1    0    0  502  501  0.00000000000E+00  0.00000000000E+00  0.25041488980E+03  0.25041488980E+03  0.00000000000E+00 0.  1.
         21   -1    0    0  501  502 -0.00000000000E+00 -0.00000000000E+00 -0.20894108024E+03  0.20894108024E+03  0.00000000000E+00 0.  1.
      99926    2    1    2    0    0 -0.88817841970E-15  0.00000000000E+00  0.41473809555E+02  0.45935597004E+03  0.45747986877E+03 0.  0.
      99925    2    3    3    0    0  0.45214190695E+01  0.11108968982E+03  0.57280291849E+02  0.29125268215E+03  0.26303180533E+03 0.  0.
         25    1    3    3    0    0 -0.45214190695E+01 -0.11108968982E+03 -0.15806482295E+02  0.16810328789E+03  0.12509000000E+03 0.  0.
         25    1    4    4    0    0  0.47775994374E+01  0.19312155691E+02  0.49242010772E+02  0.13589727201E+03  0.12509000000E+03 0.  0.
         25    1    4    4    0    0 -0.25618036786E+00  0.91777534132E+02  0.80382810767E+01  0.15535541015E+03  0.12509000000E+03 0.  0.
<mgrwt>
<rscale>  2 0.45747987E+03</rscale>
<asrwt>0</asrwt>
<pdfrwt beam="1">  1       21 0.36825719E-01 0.45747987E+03</pdfrwt>
<pdfrwt beam="2">  1       21 0.30726629E-01 0.45747987E+03</pdfrwt>
<totfact> 0.66894464E+04</totfact>
</mgrwt>
</event>
<event>
 7    0  0.4748297E-002  0.4508478E+03  0.7546771E-02  0.1027470E+00
         21   -1    0    0  502  501  0.00000000000E+00  0.00000000000E+00  0.58265406575E+03  0.58265406575E+03  0.00000000000E+00 0. -1.
         21   -1    0    0  501  502 -0.00000000000E+00 -0.00000000000E+00 -0.87214576308E+02  0.87214576308E+02  0.00000000000E+00 0. -1.
      99926    2    1    2    0    0  0.14210854715E-13 -0.14210854715E-13  0.49543948944E+03  0.66986864206E+03  0.45084776800E+03 0.  0.
      99925    2    3    3    0    0  0.64870924835E+02 -0.85867572428E+02  0.28462598703E+03  0.40215364848E+03  0.26293369433E+03 0.  0.
         25    1    4    4    0    0  0.73632132557E+02 -0.43468634416E+02  0.14412974719E+03  0.20912222562E+03  0.12509000000E+03 0.  0.
         25    1    3    3    0    0 -0.64870924835E+02  0.85867572428E+02  0.21081350241E+03  0.26771499357E+03  0.12509000000E+03 0.  0.
         25    1    4    4    0    0 -0.87612077215E+01 -0.42398938012E+02  0.14049623983E+03  0.19303142286E+03  0.12509000000E+03 0.  0.
<mgrwt>
<rscale>  2 0.45084777E+03</rscale>
<asrwt>0</asrwt>
<pdfrwt beam="1">  1       21 0.85684420E-01 0.45084777E+03</pdfrwt>
<pdfrwt beam="2">  1       21 0.12825673E-01 0.45084777E+03</pdfrwt>
<totfact> 0.56392464E+04</totfact>
</mgrwt>
</event>
<event>
 7    0  0.4748297E-002  0.4616858E+03  0.7546771E-02  0.1024293E+00
         21   -1    0    0  502  501  0.00000000000E+00  0.00000000000E+00  0.60045249700E+03  0.60045249700E+03  0.00000000000E+00 0. -1.
         21   -1    0    0  501  502 -0.00000000000E+00 -0.00000000000E+00 -0.88747128722E+02  0.88747128722E+02  0.00000000000E+00 0. -1.
      99926    2    1    2    0    0  0.00000000000E+00  0.00000000000E+00  0.51170536828E+03  0.68919962573E+03  0.46168575912E+03 0.  0.
      99925    2    3    3    0    0  0.10149240131E+03 -0.44421761785E+02  0.38615230893E+03  0.48018986697E+03  0.26304885897E+03 0.  0.
         25    1    4    4    0    0  0.65346291204E+02  0.81469688628E+01  0.15546889569E+03  0.21012995146E+03  0.12509000000E+03 0.  0.
         25    1    3    3    0    0 -0.10149240131E+03  0.44421761785E+02  0.12555305935E+03  0.20900975876E+03  0.12509000000E+03 0.  0.
         25    1    4    4    0    0  0.36146110103E+02 -0.52568730648E+02  0.23068341324E+03  0.27005991550E+03  0.12509000000E+03 0.  0.
<mgrwt>
<rscale>  2 0.46168576E+03</rscale>
<asrwt>0</asrwt>
<pdfrwt beam="1">  1       21 0.88301836E-01 0.46168576E+03</pdfrwt>
<pdfrwt beam="2">  1       21 0.13051049E-01 0.46168576E+03</pdfrwt>
<totfact> 0.50767441E+04</totfact>
</mgrwt>
</event>
<event>
 7    0  0.4748297E-002  0.4554987E+03  0.7546771E-02  0.1026095E+00
         21   -1    0    0  502  501  0.00000000000E+00  0.00000000000E+00  0.19554553726E+03  0.19554553726E+03  0.00000000000E+00 0.  1.
         21   -1    0    0  501  502 -0.00000000000E+00 -0.00000000000E+00 -0.26525673477E+03  0.26525673477E+03  0.00000000000E+00 0.  1.
      99926    2    1    2    0    0  0.00000000000E+00  0.71054273576E-14 -0.69711197510E+02  0.46080227203E+03  0.45549871883E+03 0.  0.
      99925    2    3    3    0    0  0.98002399456E+02 -0.56013610299E+02 -0.57212787463E+02  0.29184750533E+03  0.26298225887E+03 0.  0.
         25    1    4    4    0    0  0.20727769575E+02 -0.22910651747E+02 -0.57589172919E+02  0.14113312628E+03  0.12509000000E+03 0.  0.
         25    1    3    3    0    0 -0.98002399456E+02  0.56013610299E+02 -0.12498410047E+02  0.16895476670E+03  0.12509000000E+03 0.  0.
         25    1    4    4    0    0  0.77274629881E+02 -0.33102958552E+02  0.37638545576E+00  0.15071437906E+03  0.12509000000E+03 0.  0.
<mgrwt>
<rscale>  2 0.45549872E+03</rscale>
<asrwt>0</asrwt>
<pdfrwt beam="1">  1       21 0.28756697E-01 0.45549872E+03</pdfrwt>
<pdfrwt beam="2">  1       21 0.39008343E-01 0.45549872E+03</pdfrwt>
<totfact> 0.67851878E+04</totfact>
</mgrwt>
</event>
<event>
 7    0  0.4748297E-002  0.4538245E+03  0.7546771E-02  0.1026588E+00
         21   -1    0    0  502  501  0.00000000000E+00  0.00000000000E+00  0.10259171691E+03  0.10259171691E+03  0.00000000000E+00 0.  1.
         21   -1    0    0  501  502 -0.00000000000E+00 -0.00000000000E+00 -0.50188420740E+03  0.50188420740E+03  0.00000000000E+00 0.  1.
      99926    2    1    2    0    0  0.00000000000E+00  0.00000000000E+00 -0.39929249049E+03  0.60447592430E+03  0.45382447058E+03 0.  0.
      99925    2    3    3    0    0 -0.43656027738E+02 -0.89798587557E+02 -0.18377835009E+03  0.33602949036E+03  0.26300513559E+03 0.  0.
         25    1    3    3    0    0  0.43656027738E+02  0.89798587557E+02 -0.21551414039E+03  0.26844643394E+03  0.12509000000E+03 0.  0.
         25    1    4    4    0    0 -0.44263651377E+02 -0.32279809198E+02 -0.54080029524E+02  0.14687891138E+03  0.12509000000E+03 0.  0.
         25    1    4    4    0    0  0.60762363853E+00 -0.57518778359E+02 -0.12969832057E+03  0.18915057898E+03  0.12509000000E+03 0.  0.
<mgrwt>
<rscale>  2 0.45382447E+03</rscale>
<asrwt>0</asrwt>
<pdfrwt beam="1">  1       21 0.15087017E-01 0.45382447E+03</pdfrwt>
<pdfrwt beam="2">  1       21 0.73806501E-01 0.45382447E+03</pdfrwt>
<totfact> 0.58949156E+04</totfact>
</mgrwt>
</event>
<event>
 7    0  0.4748297E-002  0.4641577E+03  0.7546771E-02  0.1023582E+00
         21   -1    0    0  502  501  0.00000000000E+00  0.00000000000E+00  0.18642101681E+04  0.18642101681E+04  0.00000000000E+00 0.  1.
         21   -1    0    0  501  502 -0.00000000000E+00 -0.00000000000E+00 -0.28891915137E+02  0.28891915137E+02  0.00000000000E+00 0.  1.
      99926    2    1    2    0    0 -0.14210854715E-13  0.00000000000E+00  0.18353182530E+04  0.18931020832E+04  0.46415774032E+03 0.  0.
      99925    2    3    3    0    0  0.10707921877E+03  0.47986930958E+01  0.91149711052E+03  0.95470877663E+03  0.26296935022E+03 0.  0.
         25    1    4    4    0    0  0.96329402925E+02  0.10963130400E+02  0.51202441844E+03  0.53592542137E+03  0.12509000000E+03 0.  0.
         25    1    3    3    0    0 -0.10707921877E+03 -0.47986930958E+01  0.92382114245E+03  0.93839330660E+03  0.12509000000E+03 0.  0.
         25    1    4    4    0    0  0.10749815841E+02 -0.61644373038E+01  0.39947269208E+03  0.41878335526E+03  0.12509000000E+03 0.  0.
<mgrwt>
<rscale>  2 0.46415774E+03</rscale>
<asrwt>0</asrwt>
<pdfrwt beam="1">  1       21 0.27414847E+00 0.46415774E+03</pdfrwt>
<pdfrwt beam="2">  1       21 0.42488123E-02 0.46415774E+03</pdfrwt>
<totfact> 0.14477969E+04</totfact>
</mgrwt>
</event>
<event>
 7    0  0.4748297E-002  0.4541244E+03  0.7546771E-02  0.1026499E+00
         21   -1    0    0  502  501  0.00000000000E+00  0.00000000000E+00  0.29444120209E+03  0.29444120209E+03  0.00000000000E+00 0. -1.
         21   -1    0    0  501  502 -0.00000000000E+00 -0.00000000000E+00 -0.17510202130E+03  0.17510202130E+03  0.00000000000E+00 0. -1.
      99926    2    1    2    0    0  0.00000000000E+00  0.00000000000E+00  0.11933918079E+03  0.46954322339E+03  0.45412443070E+03 0.  0.
      99925    2    3    3    0    0 -0.57848889327E+02  0.95807358208E+02  0.84167012616E+02  0.29804939435E+03  0.26310418389E+03 0.  0.
         25    1    4    4    0    0 -0.61832135271E+02  0.47504191407E+02  0.18091091422E+02  0.14850810362E+03  0.12509000000E+03 0.  0.
         25    1    3    3    0    0  0.57848889327E+02 -0.95807358208E+02  0.35172168178E+02  0.17149382904E+03  0.12509000000E+03 0.  0.
         25    1    4    4    0    0  0.39832459439E+01  0.48303166801E+02  0.66075921194E+02  0.14954129073E+03  0.12509000000E+03 0.  0.
<mgrwt>
<rscale>  2 0.45412443E+03</rscale>
<asrwt>0</asrwt>
<pdfrwt beam="1">  1       21 0.43300177E-01 0.45412443E+03</pdfrwt>
<pdfrwt beam="2">  1       21 0.25750297E-01 0.45412443E+03</pdfrwt>
<totfact> 0.67940385E+04</totfact>
</mgrwt>
</event>
<event>
 7    0  0.4748297E-002  0.4447631E+03  0.7546771E-02  0.1029295E+00
         21   -1    0    0  502  501  0.00000000000E+00  0.00000000000E+00  0.12193256190E+03  0.12193256190E+03  0.00000000000E+00 0.  1.
         21   -1    0    0  501  502 -0.00000000000E+00 -0.00000000000E+00 -0.40558118898E+03  0.40558118898E+03  0.00000000000E+00 0.  1.
      99926    2    1    2    0    0 -0.35527136788E-14  0.00000000000E+00 -0.28364862707E+03  0.52751375088E+03  0.44476309843E+03 0.  0.
      99925    2    3    3    0    0 -0.21984791872E+02  0.82439522738E+02 -0.24921407217E+03  0.37223061382E+03  0.26299880250E+03 0.  0.
         25    1    4    4    0    0 -0.25856858351E+02  0.74446020325E+01 -0.90985406060E+02  0.15700271157E+03  0.12509000000E+03 0.  0.
         25    1    3    3    0    0  0.21984791872E+02 -0.82439522738E+02 -0.34434554904E+02  0.15528313706E+03  0.12509000000E+03 0.  0.
         25    1    4    4    0    0  0.38720664790E+01  0.74994920705E+02 -0.15822866611E+03  0.21522790226E+03  0.12509000000E+03 0.  0.
<mgrwt>
<rscale>  2 0.44476310E+03</rscale>
<asrwt>0</asrwt>
<pdfrwt beam="1">  1       21 0.17931259E-01 0.44476310E+03</pdfrwt>
<pdfrwt beam="2">  1       21 0.59644291E-01 0.44476310E+03</pdfrwt>
<totfact> 0.68784320E+04</totfact>
</mgrwt>
</event>
<event>
 7    0  0.4748297E-002  0.4549330E+03  0.7546771E-02  0.1026261E+00
         21   -1    0    0  502  501  0.00000000000E+00  0.00000000000E+00  0.10075112085E+04  0.10075112085E+04  0.00000000000E+00 0.  1.
         21   -1    0    0  501  502 -0.00000000000E+00 -0.00000000000E+00 -0.51355274173E+02  0.51355274173E+02  0.00000000000E+00 0.  1.
      99926    2    1    2    0    0 -0.88817841970E-15  0.00000000000E+00  0.95615593428E+03  0.10588664826E+04  0.45493302515E+03 0.  0.
      99925    2    3    3    0    0 -0.65718358968E+01  0.59111964955E+02  0.82562177327E+03  0.86854021350E+03  0.26300832029E+03 0.  0.
         25    1    4    4    0    0 -0.24590057763E+02  0.56394629804E+02  0.35948575161E+03  0.38556781365E+03  0.12509000000E+03 0.  0.
         25    1    4    4    0    0  0.18018221866E+02  0.27173351512E+01  0.46613602166E+03  0.48297239985E+03  0.12509000000E+03 0.  0.
         25    1    3    3    0    0  0.65718358968E+01 -0.59111964955E+02  0.13053416101E+03  0.19032626912E+03  0.12509000000E+03 0.  0.
<mgrwt>
<rscale>  2 0.45493303E+03</rscale>
<asrwt>0</asrwt>
<pdfrwt beam="1">  1       21 0.14816340E+00 0.45493303E+03</pdfrwt>
<pdfrwt beam="2">  1       21 0.75522468E-02 0.45493303E+03</pdfrwt>
<totfact> 0.36973048E+04</totfact>
</mgrwt>
</event>
<event>
 7    0  0.4748297E-002  0.4568025E+03  0.7546771E-02  0.1025713E+00
         21   -1    0    0  502  501  0.00000000000E+00  0.00000000000E+00  0.17383133608E+04  0.17383133608E+04  0.00000000000E+00 0. -1.
         21   -1    0    0  501  502 -0.00000000000E+00 -0.00000000000E+00 -0.30010198727E+02  0.30010198727E+02  0.00000000000E+00 0. -1.
      99926    2    1    2    0    0 -0.17763568394E-14  0.00000000000E+00  0.17083031620E+04  0.17683235595E+04  0.45680249301E+03 0.  0.
      99925    2    3    3    0    0 -0.14340817965E+02 -0.60288220182E+02  0.69021233984E+03  0.74070653019E+03  0.26155833241E+03 0.  0.
         25    1    3    3    0    0  0.14340817965E+02  0.60288220182E+02  0.10180908222E+04  0.10276170293E+04  0.12509000000E+03 0.  0.
         25    1    4    4    0    0  0.28501112311E+02 -0.16059859671E+02  0.34103000109E+03  0.36471797631E+03  0.12509000000E+03 0.  0.
         25    1    4    4    0    0 -0.42841930276E+02 -0.44228360511E+02  0.34918233874E+03  0.37598855389E+03  0.12509000000E+03 0.  0.
<mgrwt>
<rscale>  2 0.45680249E+03</rscale>
<asrwt>0</asrwt>
<pdfrwt beam="1">  1       21 0.25563425E+00 0.45680249E+03</pdfrwt>
<pdfrwt beam="2">  1       21 0.44132657E-02 0.45680249E+03</pdfrwt>
<totfact> 0.17628153E+04</totfact>
</mgrwt>
</event>
<event>
 6    0  0.4748297E-002  0.4548404E+03  0.7546771E-02  0.1026288E+00
         21   -1    0    0  502  501  0.00000000000E+00  0.00000000000E+00  0.30437974356E+03  0.30437974356E+03  0.00000000000E+00 0. -1.
         21   -1    0    0  501  502 -0.00000000000E+00 -0.00000000000E+00 -0.16991914982E+03  0.16991914982E+03  0.00000000000E+00 0. -1.
      99926    2    1    2    0    0 -0.71054273576E-14  0.00000000000E+00  0.13446059374E+03  0.47429889338E+03  0.45484039947E+03 0.  0.
         25    1    3    3    0    0 -0.49716563273E+02 -0.73311399262E+02  0.11664279139E+03  0.19261190723E+03  0.12509000000E+03 0.  0.
         25    1    3    3    0    0  0.19861580023E+02  0.83325365775E+02  0.10744334906E+01  0.15161220746E+03  0.12509000000E+03 0.  0.
         25    1    3    3    0    0  0.29854983251E+02 -0.10013966513E+02  0.16743368865E+02  0.13007477869E+03  0.12509000000E+03 0.  0.
<mgrwt>
<rscale>  2 0.45484040E+03</rscale>
<asrwt>0</asrwt>
<pdfrwt beam="1">  1       21 0.44761727E-01 0.45484040E+03</pdfrwt>
<pdfrwt beam="2">  1       21 0.24988110E-01 0.45484040E+03</pdfrwt>
<totfact> 0.67202585E+04</totfact>
</mgrwt>
</event>
<event>
 7    0  0.4748297E-002  0.4040268E+03  0.7546771E-02  0.1042394E+00
         21   -1    0    0  502  501  0.00000000000E+00  0.00000000000E+00  0.27994083658E+03  0.27994083658E+03  0.00000000000E+00 0. -1.
         21   -1    0    0  501  502 -0.00000000000E+00 -0.00000000000E+00 -0.14577873502E+03  0.14577873502E+03  0.00000000000E+00 0. -1.
      99926    2    1    2    0    0  0.17763568394E-14 -0.17763568394E-14  0.13416210156E+03  0.42571957159E+03  0.40402683592E+03 0.  0.
      99925    2    3    3    0    0 -0.12817490240E+02  0.39800909987E+01  0.14289864498E+03  0.29960865029E+03  0.26299275924E+03 0.  0.
         25    1    3    3    0    0  0.12817490240E+02 -0.39800909987E+01 -0.87365434146E+01  0.12611092130E+03  0.12509000000E+03 0.  0.
         25    1    4    4    0    0  0.54355594911E+01 -0.19190062452E+02  0.33995453151E+02  0.13115259334E+03  0.12509000000E+03 0.  0.
         25    1    4    4    0    0 -0.18253049731E+02  0.23170153451E+02  0.10890319183E+03  0.16845605696E+03  0.12509000000E+03 0.  0.
<mgrwt>
<rscale>  2 0.40402684E+03</rscale>
<asrwt>0</asrwt>
<pdfrwt beam="1">  1       21 0.41167770E-01 0.40402684E+03</pdfrwt>
<pdfrwt beam="2">  1       21 0.21438049E-01 0.40402684E+03</pdfrwt>
<totfact> 0.10857593E+05</totfact>
</mgrwt>
</event>
<event>
 7    0  0.4748297E-002  0.4627088E+03  0.7546771E-02  0.1023999E+00
         21   -1    0    0  502  501  0.00000000000E+00  0.00000000000E+00  0.38297321975E+02  0.38297321975E+02  0.00000000000E+00 0. -1.
         21   -1    0    0  501  502 -0.00000000000E+00 -0.00000000000E+00 -0.13976135053E+04  0.13976135053E+04  0.00000000000E+00 0. -1.
      99926    2    1    2    0    0 -0.35527136788E-14  0.00000000000E+00 -0.13593161833E+04  0.14359108272E+04  0.46270878274E+03 0.  0.
      99925    2    3    3    0    0 -0.29694417476E+02 -0.52461591961E+02 -0.52684358186E+03  0.59193682450E+03  0.26304194988E+03 0.  0.
         25    1    3    3    0    0  0.29694417476E+02  0.52461591961E+02 -0.83247260142E+03  0.84397400272E+03  0.12509000000E+03 0.  0.
         25    1    4    4    0    0  0.25628072082E+01 -0.98014770584E+01 -0.32630634078E+03  0.34960831379E+03  0.12509000000E+03 0.  0.
         25    1    4    4    0    0 -0.32257224684E+02 -0.42660114902E+02 -0.20053724107E+03  0.24232851071E+03  0.12509000000E+03 0.  0.
<mgrwt>
<rscale>  2 0.46270878E+03</rscale>
<asrwt>0</asrwt>
<pdfrwt beam="1">  1       21 0.56319589E-02 0.46270878E+03</pdfrwt>
<pdfrwt beam="2">  1       21 0.20553141E+00 0.46270878E+03</pdfrwt>
<totfact> 0.23925135E+04</totfact>
</mgrwt>
</event>
<event>
 7    0  0.4748297E-002  0.4495943E+03  0.7546771E-02  0.1027843E+00
         21   -1    0    0  502  501  0.00000000000E+00  0.00000000000E+00  0.26033257637E+03  0.26033257637E+03  0.00000000000E+00 0. -1.
         21   -1    0    0  501  502 -0.00000000000E+00 -0.00000000000E+00 -0.19411233698E+03  0.19411233698E+03  0.00000000000E+00 0. -1.
      99926    2    1    2    0    0  0.00000000000E+00  0.00000000000E+00  0.66220239394E+02  0.45444491335E+03  0.44959432732E+03 0.  0.
      99925    2    3    3    0    0 -0.65214822260E+02 -0.74005713610E+02 -0.26843261734E+01  0.28087888572E+03  0.26297513979E+03 0.  0.
         25    1    4    4    0    0 -0.32059496111E+02 -0.66422272663E+02  0.27461953685E+02  0.14778835068E+03  0.12509000000E+03 0.  0.
         25    1    3    3    0    0  0.65214822260E+02  0.74005713610E+02  0.68904565568E+02  0.17356602762E+03  0.12509000000E+03 0.  0.
         25    1    4    4    0    0 -0.33155326149E+02 -0.75834409471E+01 -0.30146279859E+02  0.13309053504E+03  0.12509000000E+03 0.  0.
<mgrwt>
<rscale>  2 0.44959433E+03</rscale>
<asrwt>0</asrwt>
<pdfrwt beam="1">  1       21 0.38284202E-01 0.44959433E+03</pdfrwt>
<pdfrwt beam="2">  1       21 0.28545932E-01 0.44959433E+03</pdfrwt>
<totfact> 0.71625544E+04</totfact>
</mgrwt>
</event>
<event>
 7    0  0.4748297E-002  0.3920327E+03  0.7546771E-02  0.1046574E+00
         21   -1    0    0  502  501  0.00000000000E+00  0.00000000000E+00  0.50200162646E+03  0.50200162646E+03  0.00000000000E+00 0. -1.
         21   -1    0    0  501  502 -0.00000000000E+00 -0.00000000000E+00 -0.76538416516E+02  0.76538416516E+02  0.00000000000E+00 0. -1.
      99926    2    1    2    0    0 -0.22204460493E-14  0.35527136788E-14  0.42546320994E+03  0.57854004297E+03  0.39203270056E+03 0.  0.
      99925    2    3    3    0    0 -0.27600043559E+01  0.25849506206E+02  0.27638163752E+03  0.38220197247E+03  0.26270843839E+03 0.  0.
         25    1    4    4    0    0 -0.31427114932E+02 -0.12697554697E+02  0.14632393182E+03  0.19546634639E+03  0.12509000000E+03 0.  0.
         25    1    3    3    0    0  0.27600043559E+01 -0.25849506206E+02  0.14908157242E+03  0.19633807051E+03  0.12509000000E+03 0.  0.
         25    1    4    4    0    0  0.28667110576E+02  0.38547060904E+02  0.13005770570E+03  0.18673562608E+03  0.12509000000E+03 0.  0.
<mgrwt>
<rscale>  2 0.39203270E+03</rscale>
<asrwt>0</asrwt>
<pdfrwt beam="1">  1       21 0.73823767E-01 0.39203270E+03</pdfrwt>
<pdfrwt beam="2">  1       21 0.11255650E-01 0.39203270E+03</pdfrwt>
<totfact> 0.10211267E+05</totfact>
</mgrwt>
</event>
<event>
 6    0  0.4748297E-002  0.4403147E+03  0.7546771E-02  0.1030650E+00
         21   -1    0    0  502  501  0.00000000000E+00  0.00000000000E+00  0.16760771467E+03  0.16760771467E+03  0.00000000000E+00 0.  1.
         21   -1    0    0  501  502 -0.00000000000E+00 -0.00000000000E+00 -0.28918278095E+03  0.28918278095E+03  0.00000000000E+00 0.  1.
      99926    2    1    2    0    0  0.00000000000E+00 -0.88817841970E-15 -0.12157506628E+03  0.45679049562E+03  0.44031472852E+03 0.  0.
         25    1    3    3    0    0 -0.88057563461E+01  0.19064362129E+02 -0.15915053546E+02  0.12783500412E+03  0.12509000000E+03 0.  0.
         25    1    3    3    0    0  0.54810484095E+01  0.53763015703E+01 -0.14862561058E+03  0.19441200254E+03  0.12509000000E+03 0.  0.
         25    1    3    3    0    0  0.33247079366E+01 -0.24440663700E+02  0.42965597846E+02  0.13454348897E+03  0.12509000000E+03 0.  0.
<mgrwt>
<rscale>  2 0.44031473E+03</rscale>
<asrwt>0</asrwt>
<pdfrwt beam="1">  1       21 0.24648194E-01 0.44031473E+03</pdfrwt>
<pdfrwt beam="2">  1       21 0.42526878E-01 0.44031473E+03</pdfrwt>
<totfact> 0.77019600E+04</totfact>
</mgrwt>
</event>
<event>
 7    0  0.4748297E-002  0.4579334E+03  0.7546771E-02  0.1025382E+00
         21   -1    0    0  502  501  0.00000000000E+00  0.00000000000E+00  0.11559301840E+03  0.11559301840E+03  0.00000000000E+00 0. -1.
         21   -1    0    0  501  502 -0.00000000000E+00 -0.00000000000E+00 -0.45353742433E+03  0.45353742433E+03  0.00000000000E+00 0. -1.
      99926    2    1    2    0    0  0.00000000000E+00  0.00000000000E+00 -0.33794440592E+03  0.56913044273E+03  0.45793344423E+03 0.  0.
      99925    2    3    3    0    0 -0.31132671374E+02 -0.11146736027E+03 -0.21173008209E+03  0.35706493569E+03  0.26319484229E+03 0.  0.
         25    1    3    3    0    0  0.31132671374E+02  0.11146736027E+03 -0.12621432384E+03  0.21206550704E+03  0.12509000000E+03 0.  0.
         25    1    4    4    0    0 -0.22304204697E+02 -0.67279919130E+02 -0.61300570557E+02  0.15629885833E+03  0.12509000000E+03 0.  0.
         25    1    4    4    0    0 -0.88284666764E+01 -0.44187441141E+02 -0.15042951153E+03  0.20076607736E+03  0.12509000000E+03 0.  0.
<mgrwt>
<rscale>  2 0.45793344E+03</rscale>
<asrwt>0</asrwt>
<pdfrwt beam="1">  1       21 0.16998973E-01 0.45793344E+03</pdfrwt>
<pdfrwt beam="2">  1       21 0.66696681E-01 0.45793344E+03</pdfrwt>
<totfact> 0.59233675E+04</totfact>
</mgrwt>
</event>
<event>
 7    0  0.4748297E-002  0.4544258E+03  0.7546771E-02  0.1026410E+00
         21   -1    0    0  502  501  0.00000000000E+00  0.00000000000E+00  0.68502056498E+03  0.68502056498E+03  0.00000000000E+00 0.  1.
         21   -1    0    0  501  502 -0.00000000000E+00 -0.00000000000E+00 -0.75363720596E+02  0.75363720596E+02  0.00000000000E+00 0.  1.
      99926    2    1    2    0    0  0.00000000000E+00  0.14210854715E-13  0.60965684439E+03  0.76038428558E+03  0.45442578475E+03 0.  0.
      99925    2    3    3    0    0 -0.84179375439E+02 -0.70169205005E+02  0.42718232124E+03  0.51349494948E+03  0.26302555576E+03 0.  0.
         25    1    4    4    0    0 -0.48811045847E+00 -0.34876690646E+02  0.21013182598E+03  0.24702128287E+03  0.12509000000E+03 0.  0.
         25    1    4    4    0    0 -0.83691264981E+02 -0.35292514358E+02  0.21705049526E+03  0.26647366661E+03  0.12509000000E+03 0.  0.
         25    1    3    3    0    0  0.84179375439E+02  0.70169205005E+02  0.18247452314E+03  0.24688933609E+03  0.12509000000E+03 0.  0.
<mgrwt>
<rscale>  2 0.45442578E+03</rscale>
<asrwt>0</asrwt>
<pdfrwt beam="1">  1       21 0.10073832E+00 0.45442578E+03</pdfrwt>
<pdfrwt beam="2">  1       21 0.11082900E-01 0.45442578E+03</pdfrwt>
<totfact> 0.49965111E+04</totfact>
</mgrwt>
</event>
<event>
 7    0  0.4748297E-002  0.4606504E+03  0.7546771E-02  0.1024593E+00
         21   -1    0    0  502  501  0.00000000000E+00  0.00000000000E+00  0.34066323582E+03  0.34066323582E+03  0.00000000000E+00 0. -1.
         21   -1    0    0  501  502 -0.00000000000E+00 -0.00000000000E+00 -0.15572476715E+03  0.15572476715E+03  0.00000000000E+00 0. -1.
      99926    2    1    2    0    0  0.71054273576E-14  0.00000000000E+00  0.18493846867E+03  0.49638800297E+03  0.46065042310E+03 0.  0.
      99925    2    3    3    0    0 -0.63696837626E+02 -0.69370997204E+02  0.19310553545E+03  0.33959568347E+03  0.26299402660E+03 0.  0.
         25    1    4    4    0    0 -0.14570001165E+02 -0.46560407481E+01  0.59560614383E+02  0.13938772735E+03  0.12509000000E+03 0.  0.
         25    1    3    3    0    0  0.63696837626E+02  0.69370997204E+02 -0.81670667852E+01  0.15679231951E+03  0.12509000000E+03 0.  0.
         25    1    4    4    0    0 -0.49126836461E+02 -0.64714956456E+02  0.13354492107E+03  0.20020795612E+03  0.12509000000E+03 0.  0.
<mgrwt>
<rscale>  2 0.46065042E+03</rscale>
<asrwt>0</asrwt>
<pdfrwt beam="1">  1       21 0.50097535E-01 0.46065042E+03</pdfrwt>
<pdfrwt beam="2">  1       21 0.22900701E-01 0.46065042E+03</pdfrwt>
<totfact> 0.62666631E+04</totfact>
</mgrwt>
</event>
<event>
 7    0  0.4748297E-002  0.4515320E+03  0.7546771E-02  0.1027266E+00
         21   -1    0    0  502  501  0.00000000000E+00  0.00000000000E+00  0.25375653821E+02  0.25375653821E+02  0.00000000000E+00 0. -1.
         21   -1    0    0  501  502 -0.00000000000E+00 -0.00000000000E+00 -0.20086294019E+04  0.20086294019E+04  0.00000000000E+00 0. -1.
      99926    2    1    2    0    0 -0.35527136788E-14  0.00000000000E+00 -0.19832537481E+04  0.20340050557E+04  0.45153198938E+03 0.  0.
      99925    2    3    3    0    0  0.20596783227E+02  0.10819261689E+03 -0.12150451354E+04  0.12479250022E+04  0.26239714225E+03 0.  0.
         25    1    4    4    0    0  0.35795595588E+02  0.31700369747E+02 -0.48516215980E+03  0.50330514353E+03  0.12509000000E+03 0.  0.
         25    1    4    4    0    0 -0.15198812362E+02  0.76492247145E+02 -0.72988297563E+03  0.74461985871E+03  0.12509000000E+03 0.  0.
         25    1    3    3    0    0 -0.20596783227E+02 -0.10819261689E+03 -0.76820861267E+03  0.78608005350E+03  0.12509000000E+03 0.  0.
<mgrwt>
<rscale>  2 0.45153199E+03</rscale>
<asrwt>0</asrwt>
<pdfrwt beam="1">  1       21 0.37317134E-02 0.45153199E+03</pdfrwt>
<pdfrwt beam="2">  1       21 0.29538671E+00 0.45153199E+03</pdfrwt>
<totfact> 0.13522820E+04</totfact>
</mgrwt>
</event>
<event>
 7    0  0.4748297E-002  0.4541488E+03  0.7546771E-02  0.1026492E+00
         21   -1    0    0  502  501  0.00000000000E+00  0.00000000000E+00  0.21933740061E+03  0.21933740061E+03  0.00000000000E+00 0. -1.
         21   -1    0    0  501  502 -0.00000000000E+00 -0.00000000000E+00 -0.23508430312E+03  0.23508430312E+03  0.00000000000E+00 0. -1.
      99926    2    1    2    0    0 -0.14210854715E-13 -0.71054273576E-14 -0.15746902510E+02  0.45442170374E+03  0.45414878607E+03 0.  0.
      99925    2    3    3    0    0 -0.10614907686E+03 -0.34322305581E+02  0.59505684484E+00  0.28601679017E+03  0.26336211380E+03 0.  0.
         25    1    3    3    0    0  0.10614907686E+03  0.34322305581E+02 -0.16341959355E+02  0.16840491357E+03  0.12509000000E+03 0.  0.
         25    1    4    4    0    0 -0.25407691158E+02 -0.42286765112E+02  0.18943832359E+02  0.13579432300E+03  0.12509000000E+03 0.  0.
         25    1    4    4    0    0 -0.80741385699E+02  0.79644595312E+01 -0.18348775515E+02  0.15022246717E+03  0.12509000000E+03 0.  0.
<mgrwt>
<rscale>  2 0.45414879E+03</rscale>
<asrwt>0</asrwt>
<pdfrwt beam="1">  1       21 0.32255500E-01 0.45414879E+03</pdfrwt>
<pdfrwt beam="2">  1       21 0.34571221E-01 0.45414879E+03</pdfrwt>
<totfact> 0.69056014E+04</totfact>
</mgrwt>
</event>
<event>
 7    0  0.4748297E-002  0.4607698E+03  0.7546771E-02  0.1024558E+00
         21   -1    0    0  502  501  0.00000000000E+00  0.00000000000E+00  0.17355977902E+03  0.17355977902E+03  0.00000000000E+00 0. -1.
         21   -1    0    0  501  502 -0.00000000000E+00 -0.00000000000E+00 -0.30581513471E+03  0.30581513471E+03  0.00000000000E+00 0. -1.
      99926    2    1    2    0    0  0.00000000000E+00 -0.13322676296E-14 -0.13225535569E+03  0.47937491373E+03  0.46076982193E+03 0.  0.
      99925    2    3    3    0    0 -0.32421679374E+02 -0.85707138773E+00  0.35750466828E+02  0.26741887026E+03  0.26302634170E+03 0.  0.
         25    1    3    3    0    0  0.32421679374E+02  0.85707138773E+00 -0.16800582251E+03  0.21195604347E+03  0.12509000000E+03 0.  0.
         25    1    4    4    0    0 -0.48821305396E+02 -0.18623556372E+02  0.18379578622E+01  0.13557744245E+03  0.12509000000E+03 0.  0.
         25    1    4    4    0    0  0.16399626021E+02  0.17766484985E+02  0.33912508966E+02  0.13184142781E+03  0.12509000000E+03 0.  0.
<mgrwt>
<rscale>  2 0.46076982E+03</rscale>
<asrwt>0</asrwt>
<pdfrwt beam="1">  1       21 0.25523497E-01 0.46076982E+03</pdfrwt>
<pdfrwt beam="2">  1       21 0.44972813E-01 0.46076982E+03</pdfrwt>
<totfact> 0.63774943E+04</totfact>
</mgrwt>
</event>
<event>
 7    0  0.4748297E-002  0.4501565E+03  0.7546771E-02  0.1027675E+00
         21   -1    0    0  502  501  0.00000000000E+00  0.00000000000E+00  0.53872003875E+03  0.53872003875E+03  0.00000000000E+00 0.  1.
         21   -1    0    0  501  502 -0.00000000000E+00 -0.00000000000E+00 -0.94038130159E+02  0.94038130159E+02  0.00000000000E+00 0.  1.
      99926    2    1    2    0    0  0.00000000000E+00  0.00000000000E+00  0.44468190859E+03  0.63275816891E+03  0.45015652888E+03 0.  0.
      99925    2    3    3    0    0 -0.33179558362E+02  0.80765793855E+02  0.37170062123E+03  0.46364940818E+03  0.26303122502E+03 0.  0.
         25    1    3    3    0    0  0.33179558362E+02 -0.80765793855E+02  0.72981287364E+02  0.16910876073E+03  0.12509000000E+03 0.  0.
         25    1    4    4    0    0 -0.12332827661E+02  0.35366982007E+01  0.20420730278E+03  0.23981813418E+03  0.12509000000E+03 0.  0.
         25    1    4    4    0    0 -0.20846730702E+02  0.77229095655E+02  0.16749331845E+03  0.22383127400E+03  0.12509000000E+03 0.  0.
<mgrwt>
<rscale>  2 0.45015653E+03</rscale>
<asrwt>0</asrwt>
<pdfrwt beam="1">  1       21 0.79223534E-01 0.45015653E+03</pdfrwt>
<pdfrwt beam="2">  1       21 0.13829137E-01 0.45015653E+03</pdfrwt>
<totfact> 0.58926542E+04</totfact>
</mgrwt>
</event>
<event>
 7    0  0.4748297E-002  0.4456972E+03  0.7546771E-02  0.1029013E+00
         21   -1    0    0  502  501  0.00000000000E+00  0.00000000000E+00  0.79632500635E+03  0.79632500635E+03  0.00000000000E+00 0. -1.
         21   -1    0    0  501  502 -0.00000000000E+00 -0.00000000000E+00 -0.62363349173E+02  0.62363349173E+02  0.00000000000E+00 0. -1.
      99926    2    1    2    0    0  0.00000000000E+00  0.31086244690E-14  0.73396165717E+03  0.85868835552E+03  0.44569718162E+03 0.  0.
      99925    2    3    3    0    0  0.96809636489E+02  0.30782981207E+01  0.39148537821E+03  0.48143632916E+03  0.26294211540E+03 0.  0.
         25    1    3    3    0    0 -0.96809636489E+02 -0.30782981207E+01  0.34247627896E+03  0.37725202636E+03  0.12509000000E+03 0.  0.
         25    1    4    4    0    0  0.46517999069E+02 -0.29211930834E+02  0.23945550757E+03  0.27568770257E+03  0.12509000000E+03 0.  0.
         25    1    4    4    0    0  0.50291637420E+02  0.32290228954E+02  0.15202987064E+03  0.20574862660E+03  0.12509000000E+03 0.  0.
<mgrwt>
<rscale>  2 0.44569718E+03</rscale>
<asrwt>0</asrwt>
<pdfrwt beam="1">  1       21 0.11710661E+00 0.44569718E+03</pdfrwt>
<pdfrwt beam="2">  1       21 0.91710813E-02 0.44569718E+03</pdfrwt>
<totfact> 0.48496072E+04</totfact>
</mgrwt>
</event>
<event>
 7    0  0.4748297E-002  0.4501890E+03  0.7546771E-02  0.1027666E+00
         21   -1    0    0  502  501  0.00000000000E+00  0.00000000000E+00  0.45149948397E+02  0.45149948397E+02  0.00000000000E+00 0. -1.
         21   -1    0    0  501  502 -0.00000000000E+00 -0.00000000000E+00 -0.11222060343E+04  0.11222060343E+04  0.00000000000E+00 0. -1.
      99926    2    1    2    0    0  0.00000000000E+00  0.00000000000E+00 -0.10770560859E+04  0.11673559827E+04  0.45018904713E+03 0.  0.
      99925    2    3    3    0    0 -0.94811602266E+02  0.52618651531E+02 -0.66639821462E+03  0.72458588687E+03  0.26302122460E+03 0.  0.
         25    1    4    4    0    0 -0.38390236854E+02  0.61104482025E+02 -0.29242261801E+03  0.32613810515E+03  0.12509000000E+03 0.  0.
         25    1    3    3    0    0  0.94811602266E+02 -0.52618651531E+02 -0.41065787128E+03  0.44277009583E+03  0.12509000000E+03 0.  0.
         25    1    4    4    0    0 -0.56421365412E+02 -0.84858304936E+01 -0.37397559661E+03  0.39844778172E+03  0.12509000000E+03 0.  0.
<mgrwt>
<rscale>  2 0.45018905E+03</rscale>
<asrwt>0</asrwt>
<pdfrwt beam="1">  1       21 0.66396988E-02 0.45018905E+03</pdfrwt>
<pdfrwt beam="2">  1       21 0.16503029E+00 0.45018905E+03</pdfrwt>
<totfact> 0.34482834E+04</totfact>
</mgrwt>
</event>
<event>
 7    0  0.4748297E-002  0.4546397E+03  0.7546771E-02  0.1026347E+00
         21   -1    0    0  502  501  0.00000000000E+00  0.00000000000E+00  0.73852848254E+03  0.73852848254E+03  0.00000000000E+00 0.  1.
         21   -1    0    0  501  502 -0.00000000000E+00 -0.00000000000E+00 -0.69969289854E+02  0.69969289854E+02  0.00000000000E+00 0.  1.
      99926    2    1    2    0    0  0.00000000000E+00  0.00000000000E+00  0.66855919269E+03  0.80849777240E+03  0.45463969673E+03 0.  0.
      99925    2    3    3    0    0  0.57228813203E+02  0.84367671077E+02  0.50688822408E+03  0.58007261797E+03  0.26297438930E+03 0.  0.
         25    1    4    4    0    0  0.29153948092E+02  0.79924436436E+02  0.31222311690E+03  0.34694185544E+03  0.12509000000E+03 0.  0.
         25    1    3    3    0    0 -0.57228813203E+02 -0.84367671077E+02  0.16167096861E+03  0.22842515443E+03  0.12509000000E+03 0.  0.
         25    1    4    4    0    0  0.28074865111E+02  0.44432346409E+01  0.19466510717E+03  0.23313076253E+03  0.12509000000E+03 0.  0.
<mgrwt>
<rscale>  2 0.45463970E+03</rscale>
<asrwt>0</asrwt>
<pdfrwt beam="1">  1       21 0.10860713E+00 0.45463970E+03</pdfrwt>
<pdfrwt beam="2">  1       21 0.10289602E-01 0.45463970E+03</pdfrwt>
<totfact> 0.47490661E+04</totfact>
</mgrwt>
</event>
<event>
 7    0  0.4748297E-002  0.4571691E+03  0.7546771E-02  0.1025605E+00
         21   -1    0    0  502  501  0.00000000000E+00  0.00000000000E+00  0.17195734870E+03  0.17195734870E+03  0.00000000000E+00 0. -1.
         21   -1    0    0  501  502 -0.00000000000E+00 -0.00000000000E+00 -0.30385965158E+03  0.30385965158E+03  0.00000000000E+00 0. -1.
      99926    2    1    2    0    0  0.14210854715E-13  0.00000000000E+00 -0.13190230288E+03  0.47581700027E+03  0.45716911559E+03 0.  0.
      99925    2    3    3    0    0  0.92502355020E+02  0.37954316103E+02 -0.14269623631E+03  0.31531393833E+03  0.26279925428E+03 0.  0.
         25    1    4    4    0    0  0.37596176428E+02  0.48834181872E+02 -0.43283332750E+02  0.14601097491E+03  0.12509000000E+03 0.  0.
         25    1    4    4    0    0  0.54906178592E+02 -0.10879865769E+02 -0.99412903562E+02  0.16930296342E+03  0.12509000000E+03 0.  0.
         25    1    3    3    0    0 -0.92502355020E+02 -0.37954316103E+02  0.10793933437E+02  0.16050306195E+03  0.12509000000E+03 0.  0.
<mgrwt>
<rscale>  2 0.45716912E+03</rscale>
<asrwt>0</asrwt>
<pdfrwt beam="1">  1       21 0.25287845E-01 0.45716912E+03</pdfrwt>
<pdfrwt beam="2">  1       21 0.44685243E-01 0.45716912E+03</pdfrwt>
<totfact> 0.65864813E+04</totfact>
</mgrwt>
</event>
<event>
 7    0  0.4748297E-002  0.4560456E+03  0.7546771E-02  0.1025934E+00
         21   -1    0    0  502  501  0.00000000000E+00  0.00000000000E+00  0.19023077256E+03  0.19023077256E+03  0.00000000000E+00 0.  1.
         21   -1    0    0  501  502 -0.00000000000E+00 -0.00000000000E+00 -0.27332280344E+03  0.27332280344E+03  0.00000000000E+00 0.  1.
      99926    2    1    2    0    0  0.35527136788E-14  0.00000000000E+00 -0.83092030874E+02  0.46355357600E+03  0.45604564709E+03 0.  0.
      99925    2    3    3    0    0 -0.30431101095E+02  0.93759144287E+02 -0.11079896668E+03  0.30189958922E+03  0.26296410763E+03 0.  0.
         25    1    3    3    0    0  0.30431101095E+02 -0.93759144287E+02  0.27706935809E+02  0.16165398678E+03  0.12509000000E+03 0.  0.
         25    1    4    4    0    0  0.19998098662E+02  0.46009965851E+02 -0.75708886241E+02  0.15458390752E+03  0.12509000000E+03 0.  0.
         25    1    4    4    0    0 -0.50429199757E+02  0.47749178436E+02 -0.35090080441E+02  0.14731568170E+03  0.12509000000E+03 0.  0.
<mgrwt>
<rscale>  2 0.45604565E+03</rscale>
<asrwt>0</asrwt>
<pdfrwt beam="1">  1       21 0.27975114E-01 0.45604565E+03</pdfrwt>
<pdfrwt beam="2">  1       21 0.40194530E-01 0.45604565E+03</pdfrwt>
<totfact> 0.67356020E+04</totfact>
</mgrwt>
</event>
<event>
 7    0  0.4748297E-002  0.4551569E+03  0.7546771E-02  0.1026195E+00
         21   -1    0    0  502  501  0.00000000000E+00  0.00000000000E+00  0.12990045230E+04  0.12990045230E+04  0.00000000000E+00 0. -1.
         21   -1    0    0  501  502 -0.00000000000E+00 -0.00000000000E+00 -0.39870497240E+02  0.39870497240E+02  0.00000000000E+00 0. -1.
      99926    2    1    2    0    0 -0.35527136788E-14 -0.14210854715E-13  0.12591340258E+04  0.13388750203E+04  0.45515692349E+03 0.  0.
      99925    2    3    3    0    0  0.23177375612E+02  0.10209932274E+03  0.66636699175E+03  0.72407283485E+03  0.26320151982E+03 0.  0.
         25    1    3    3    0    0 -0.23177375612E+02 -0.10209932274E+03  0.59276703405E+03  0.61480218543E+03  0.12509000000E+03 0.  0.
         25    1    4    4    0    0 -0.21584506198E+01  0.25100055069E+02  0.38601159676E+03  0.40655520241E+03  0.12509000000E+03 0.  0.
         25    1    4    4    0    0  0.25335826232E+02  0.76999267675E+02  0.28035539498E+03  0.31751763244E+03  0.12509000000E+03 0.  0.
<mgrwt>
<rscale>  2 0.45515692E+03</rscale>
<asrwt>0</asrwt>
<pdfrwt beam="1">  1       21 0.19103005E+00 0.45515692E+03</pdfrwt>
<pdfrwt beam="2">  1       21 0.58633093E-02 0.45515692E+03</pdfrwt>
<totfact> 0.27972168E+04</totfact>
</mgrwt>
</event>
<event>
 7    0  0.4748297E-002  0.4534673E+03  0.7546771E-02  0.1026693E+00
         21   -1    0    0  502  501  0.00000000000E+00  0.00000000000E+00  0.72892639650E+02  0.72892639650E+02  0.00000000000E+00 0. -1.
         21   -1    0    0  501  502 -0.00000000000E+00 -0.00000000000E+00 -0.70525851660E+03  0.70525851660E+03  0.00000000000E+00 0. -1.
      99926    2    1    2    0    0  0.00000000000E+00  0.71054273576E-14 -0.63236587695E+03  0.77815115625E+03  0.45346733029E+03 0.  0.
      99925    2    3    3    0    0  0.67749094790E+02 -0.36004499061E+02 -0.53804623558E+03  0.60370928443E+03  0.26284003630E+03 0.  0.
         25    1    3    3    0    0 -0.67749094790E+02  0.36004499061E+02 -0.94319641374E+02  0.17444187183E+03  0.12509000000E+03 0.  0.
         25    1    4    4    0    0  0.44484949629E+00 -0.37529311902E+02 -0.28547640272E+03  0.31393141250E+03  0.12509000000E+03 0.  0.
         25    1    4    4    0    0  0.67304245294E+02  0.15248128413E+01 -0.25256983286E+03  0.28977787193E+03  0.12509000000E+03 0.  0.
<mgrwt>
<rscale>  2 0.45346733E+03</rscale>
<asrwt>0</asrwt>
<pdfrwt beam="1">  1       21 0.10719505E-01 0.45346733E+03</pdfrwt>
<pdfrwt beam="2">  1       21 0.10371449E+00 0.45346733E+03</pdfrwt>
<totfact> 0.49431813E+04</totfact>
</mgrwt>
</event>
<event>
 7    0  0.4748297E-002  0.4566323E+03  0.7546771E-02  0.1025763E+00
         21   -1    0    0  502  501  0.00000000000E+00  0.00000000000E+00  0.11486538995E+03  0.11486538995E+03  0.00000000000E+00 0. -1.
         21   -1    0    0  501  502 -0.00000000000E+00 -0.00000000000E+00 -0.45382037541E+03  0.45382037541E+03  0.00000000000E+00 0. -1.
      99926    2    1    2    0    0  0.14210854715E-13 -0.17763568394E-14 -0.33895498546E+03  0.56868576536E+03  0.45663225637E+03 0.  0.
      99925    2    3    3    0    0 -0.11404582234E+03  0.10613078192E+02 -0.21364958120E+03  0.35781130162E+03  0.26317997074E+03 0.  0.
         25    1    4    4    0    0 -0.73755550390E+02  0.22388011589E+02 -0.15451267933E+03  0.21322002826E+03  0.12509000000E+03 0.  0.
         25    1    3    3    0    0  0.11404582234E+03 -0.10613078192E+02 -0.12530540426E+03  0.21087446374E+03  0.12509000000E+03 0.  0.
         25    1    4    4    0    0 -0.40290271950E+02 -0.11774933397E+02 -0.59136901869E+02  0.14459127336E+03  0.12509000000E+03 0.  0.
<mgrwt>
<rscale>  2 0.45663226E+03</rscale>
<asrwt>0</asrwt>
<pdfrwt beam="1">  1       21 0.16891969E-01 0.45663226E+03</pdfrwt>
<pdfrwt beam="2">  1       21 0.66738290E-01 0.45663226E+03</pdfrwt>
<totfact> 0.59871786E+04</totfact>
</mgrwt>
</event>
<event>
 7    0  0.4748297E-002  0.4532571E+03  0.7546771E-02  0.1026755E+00
         21   -1    0    0  502  501  0.00000000000E+00  0.00000000000E+00  0.38089174159E+03  0.38089174159E+03  0.00000000000E+00 0.  1.
         21   -1    0    0  501  502 -0.00000000000E+00 -0.00000000000E+00 -0.13484278313E+03  0.13484278313E+03  0.00000000000E+00 0.  1.
      99926    2    1    2    0    0 -0.14210854715E-13  0.00000000000E+00  0.24604895846E+03  0.51573452472E+03  0.45325711249E+03 0.  0.
      99925    2    3    3    0    0  0.77557097725E+02 -0.17601837967E+02  0.65924279312E+02  0.28245928761E+03  0.26289220310E+03 0.  0.
         25    1    4    4    0    0  0.80324222767E+02 -0.48872888586E+01  0.40432388833E+02  0.15413679808E+03  0.12509000000E+03 0.  0.
         25    1    4    4    0    0 -0.27671250419E+01 -0.12714549109E+02  0.25491890480E+02  0.12832248953E+03  0.12509000000E+03 0.  0.
         25    1    3    3    0    0 -0.77557097725E+02  0.17601837967E+02  0.18012467915E+03  0.23327523711E+03  0.12509000000E+03 0.  0.
<mgrwt>
<rscale>  2 0.45325711E+03</rscale>
<asrwt>0</asrwt>
<pdfrwt beam="1">  1       21 0.56013491E-01 0.45325711E+03</pdfrwt>
<pdfrwt beam="2">  1       21 0.19829821E-01 0.45325711E+03</pdfrwt>
<totfact> 0.65074088E+04</totfact>
</mgrwt>
</event>
<event>
 7    0  0.4748297E-002  0.4693566E+03  0.7546771E-02  0.1022102E+00
         21   -1    0    0  502  501  0.00000000000E+00  0.00000000000E+00  0.25417248980E+03  0.25417248980E+03  0.00000000000E+00 0. -1.
         21   -1    0    0  501  502 -0.00000000000E+00 -0.00000000000E+00 -0.21667925910E+03  0.21667925910E+03  0.00000000000E+00 0. -1.
      99926    2    1    2    0    0  0.00000000000E+00 -0.14210854715E-13  0.37493230696E+02  0.47085174890E+03  0.46935660973E+03 0.  0.
      99925    2    3    3    0    0 -0.98889263052E+02  0.77719621890E+02  0.34039812763E+02  0.29342892013E+03  0.26291138496E+03 0.  0.
         25    1    4    4    0    0 -0.66625718779E+02  0.78309589328E+02  0.11887297012E+02  0.16235822774E+03  0.12509000000E+03 0.  0.
         25    1    3    3    0    0  0.98889263052E+02 -0.77719621890E+02  0.34534179338E+01  0.17742282877E+03  0.12509000000E+03 0.  0.
         25    1    4    4    0    0 -0.32263544273E+02 -0.58996743843E+00  0.22152515750E+02  0.13107069239E+03  0.12509000000E+03 0.  0.
<mgrwt>
<rscale>  2 0.46935661E+03</rscale>
<asrwt>0</asrwt>
<pdfrwt beam="1">  1       21 0.37378307E-01 0.46935661E+03</pdfrwt>
<pdfrwt beam="2">  1       21 0.31864597E-01 0.46935661E+03</pdfrwt>
<totfact> 0.60202533E+04</totfact>
</mgrwt>
</event>
<event>
 7    0  0.4748297E-002  0.4482367E+03  0.7546771E-02  0.1028249E+00
         21   -1    0    0  502  501  0.00000000000E+00  0.00000000000E+00  0.33489225373E+03  0.33489225373E+03  0.00000000000E+00 0.  1.
         21   -1    0    0  501  502 -0.00000000000E+00 -0.00000000000E+00 -0.14998564453E+03  0.14998564453E+03  0.00000000000E+00 0.  1.
      99926    2    1    2    0    0  0.00000000000E+00  0.00000000000E+00  0.18490660920E+03  0.48487789826E+03  0.44823668088E+03 0.  0.
      99925    2    3    3    0    0 -0.32963691087E+02  0.98715068032E+02  0.14207111121E+03  0.31661127181E+03  0.26311067483E+03 0.  0.
         25    1    3    3    0    0  0.32963691087E+02 -0.98715068032E+02  0.42835497993E+02  0.16826662644E+03  0.12509000000E+03 0.  0.
         25    1    4    4    0    0 -0.28432970273E+02  0.36506079810E+02  0.11076246536E+03  0.17336943068E+03  0.12509000000E+03 0.  0.
         25    1    4    4    0    0 -0.45307208140E+01  0.62208988222E+02  0.31308645855E+02  0.14324184114E+03  0.12509000000E+03 0.  0.
<mgrwt>
<rscale>  2 0.44823668E+03</rscale>
<asrwt>0</asrwt>
<pdfrwt beam="1">  1       21 0.49248861E-01 0.44823668E+03</pdfrwt>
<pdfrwt beam="2">  1       21 0.22056712E-01 0.44823668E+03</pdfrwt>
<totfact> 0.70031967E+04</totfact>
</mgrwt>
</event>
<event>
 7    0  0.4748297E-002  0.4128444E+03  0.7546771E-02  0.1039421E+00
         21   -1    0    0  502  501  0.00000000000E+00  0.00000000000E+00  0.39511404695E+03  0.39511404695E+03  0.00000000000E+00 0.  1.
         21   -1    0    0  501  502 -0.00000000000E+00 -0.00000000000E+00 -0.10784257064E+03  0.10784257064E+03  0.00000000000E+00 0.  1.
      99926    2    1    2    0    0  0.00000000000E+00  0.00000000000E+00  0.28727147630E+03  0.50295661759E+03  0.41284435091E+03 0.  0.
      99925    2    3    3    0    0  0.21462130135E+02  0.61936615660E+02  0.20151025108E+03  0.33773173072E+03  0.26298207782E+03 0.  0.
         25    1    3    3    0    0 -0.21462130135E+02 -0.61936615660E+02  0.85761225222E+02  0.16522488687E+03  0.12509000000E+03 0.  0.
         25    1    4    4    0    0  0.23005348353E+02  0.15880839771E+02  0.54502575803E+02  0.13928203759E+03  0.12509000000E+03 0.  0.
         25    1    4    4    0    0 -0.15432182181E+01  0.46055775888E+02  0.14700767528E+03  0.19844969314E+03  0.12509000000E+03 0.  0.
<mgrwt>
<rscale>  2 0.41284435E+03</rscale>
<asrwt>0</asrwt>
<pdfrwt beam="1">  1       21 0.58105006E-01 0.41284435E+03</pdfrwt>
<pdfrwt beam="2">  1       21 0.15859202E-01 0.41284435E+03</pdfrwt>
<totfact> 0.92242088E+04</totfact>
</mgrwt>
</event>
<event>
 7    0  0.4748297E-002  0.4491582E+03  0.7546771E-02  0.1027973E+00
         21   -1    0    0  502  501  0.00000000000E+00  0.00000000000E+00  0.29096641034E+03  0.29096641034E+03  0.00000000000E+00 0.  1.
         21   -1    0    0  501  502 -0.00000000000E+00 -0.00000000000E+00 -0.17333880502E+03  0.17333880502E+03  0.00000000000E+00 0.  1.
      99926    2    1    2    0    0 -0.13322676296E-14 -0.35527136788E-14  0.11762760533E+03  0.46430521536E+03  0.44915818981E+03 0.  0.
      99925    2    3    3    0    0  0.32129394070E+01 -0.26995185430E+02  0.18200925215E+03  0.32101680841E+03  0.26303110158E+03 0.  0.
         25    1    3    3    0    0 -0.32129394070E+01  0.26995185430E+02 -0.64381646825E+02  0.14328840694E+03  0.12509000000E+03 0.  0.
         25    1    4    4    0    0  0.23652472970E+02  0.20646703590E+02  0.85503666921E+02  0.15473884775E+03  0.12509000000E+03 0.  0.
         25    1    4    4    0    0 -0.20439533563E+02 -0.47641889020E+02  0.96505585229E+02  0.16627796066E+03  0.12509000000E+03 0.  0.
<mgrwt>
<rscale>  2 0.44915819E+03</rscale>
<asrwt>0</asrwt>
<pdfrwt beam="1">  1       21 0.42789178E-01 0.44915819E+03</pdfrwt>
<pdfrwt beam="2">  1       21 0.25491001E-01 0.44915819E+03</pdfrwt>
<totfact> 0.71099805E+04</totfact>
</mgrwt>
</event>
<event>
 7    0  0.4748297E-002  0.4498196E+03  0.7546771E-02  0.1027776E+00
         21   -1    0    0  502  501  0.00000000000E+00  0.00000000000E+00  0.43831357946E+02  0.43831357946E+02  0.00000000000E+00 0. -1.
         21   -1    0    0  501  502 -0.00000000000E+00 -0.00000000000E+00 -0.11540693625E+04  0.11540693625E+04  0.00000000000E+00 0. -1.
      99926    2    1    2    0    0  0.00000000000E+00  0.14210854715E-13 -0.11102380046E+04  0.11979007205E+04  0.44981964085E+03 0.  0.
      99925    2    3    3    0    0  0.18527819661E+02  0.10653910181E+03 -0.71277327454E+03  0.76741311317E+03  0.26302715649E+03 0.  0.
         25    1    3    3    0    0 -0.18527819661E+02 -0.10653910181E+03 -0.39746473004E+03  0.43048760730E+03  0.12509000000E+03 0.  0.
         25    1    4    4    0    0  0.17172487069E+02  0.93677349679E+02 -0.35764811874E+03  0.39067892840E+03  0.12509000000E+03 0.  0.
         25    1    4    4    0    0  0.13553325924E+01  0.12861752128E+02 -0.35512515580E+03  0.37673418477E+03  0.12509000000E+03 0.  0.
<mgrwt>
<rscale>  2 0.44981964E+03</rscale>
<asrwt>0</asrwt>
<pdfrwt beam="1">  1       21 0.64457874E-02 0.44981964E+03</pdfrwt>
<pdfrwt beam="2">  1       21 0.16971610E+00 0.44981964E+03</pdfrwt>
<totfact> 0.33556411E+04</totfact>
</mgrwt>
</event>
<event>
 7    0  0.4748297E-002  0.4642520E+03  0.7546771E-02  0.1023555E+00
         21   -1    0    0  502  501  0.00000000000E+00  0.00000000000E+00  0.13603662889E+03  0.13603662889E+03  0.00000000000E+00 0.  1.
         21   -1    0    0  501  502 -0.00000000000E+00 -0.00000000000E+00 -0.39608805587E+03  0.39608805587E+03  0.00000000000E+00 0.  1.
      99926    2    1    2    0    0  0.00000000000E+00  0.00000000000E+00 -0.26005142698E+03  0.53212468476E+03  0.46425201718E+03 0.  0.
      99925    2    3    3    0    0  0.32484487296E+02 -0.79563215076E+02 -0.26103096969E+03  0.38035507413E+03  0.26295868148E+03 0.  0.
         25    1    3    3    0    0 -0.32484487296E+02  0.79563215076E+02  0.97954271072E+00  0.15176961063E+03  0.12509000000E+03 0.  0.
         25    1    4    4    0    0 -0.16730808872E+02 -0.48057787482E+02 -0.15941221677E+03  0.20892399062E+03  0.12509000000E+03 0.  0.
         25    1    4    4    0    0  0.49215296169E+02 -0.31505427594E+02 -0.10161875292E+03  0.17143108350E+03  0.12509000000E+03 0.  0.
<mgrwt>
<rscale>  2 0.46425202E+03</rscale>
<asrwt>0</asrwt>
<pdfrwt beam="1">  1       21 0.20005387E-01 0.46425202E+03</pdfrwt>
<pdfrwt beam="2">  1       21 0.58248242E-01 0.46425202E+03</pdfrwt>
<totfact> 0.58642666E+04</totfact>
</mgrwt>
</event>
<event>
 7    0  0.4748297E-002  0.4549860E+03  0.7546771E-02  0.1026246E+00
         21   -1    0    0  502  501  0.00000000000E+00  0.00000000000E+00  0.59812368967E+03  0.59812368967E+03  0.00000000000E+00 0.  1.
         21   -1    0    0  501  502 -0.00000000000E+00 -0.00000000000E+00 -0.86525673719E+02  0.86525673719E+02  0.00000000000E+00 0.  1.
      99926    2    1    2    0    0  0.00000000000E+00  0.71054273576E-14  0.51159801595E+03  0.68464936339E+03  0.45498595678E+03 0.  0.
      99925    2    3    3    0    0  0.71290206160E+02  0.54559196778E+02  0.21772966814E+03  0.35288873675E+03  0.26280268774E+03 0.  0.
         25    1    3    3    0    0 -0.71290206160E+02 -0.54559196778E+02  0.29386834781E+03  0.33176062665E+03  0.12509000000E+03 0.  0.
         25    1    4    4    0    0  0.24712949926E+02 -0.20662291711E+01  0.13604124024E+03  0.18646642149E+03  0.12509000000E+03 0.  0.
         25    1    4    4    0    0  0.46577256234E+02  0.56625425949E+02  0.81688427906E+02  0.16642231526E+03  0.12509000000E+03 0.  0.
<mgrwt>
<rscale>  2 0.45498596E+03</rscale>
<asrwt>0</asrwt>
<pdfrwt beam="1">  1       21 0.87959364E-01 0.45498596E+03</pdfrwt>
<pdfrwt beam="2">  1       21 0.12724364E-01 0.45498596E+03</pdfrwt>
<totfact> 0.53750534E+04</totfact>
</mgrwt>
</event>
<event>
 7    0  0.4748297E-002  0.4505772E+03  0.7546771E-02  0.1027550E+00
         21   -1    0    0  502  501  0.00000000000E+00  0.00000000000E+00  0.84691441926E+02  0.84691441926E+02  0.00000000000E+00 0. -1.
         21   -1    0    0  501  502 -0.00000000000E+00 -0.00000000000E+00 -0.59929247186E+03  0.59929247186E+03  0.00000000000E+00 0. -1.
      99926    2    1    2    0    0  0.00000000000E+00 -0.33306690739E-15 -0.51460102993E+03  0.68398391378E+03  0.45057715689E+03 0.  0.
      99925    2    3    3    0    0 -0.10580324823E+03  0.94007382547E+00 -0.28533202178E+03  0.40219144179E+03  0.26296079959E+03 0.  0.
         25    1    3    3    0    0  0.10580324823E+03 -0.94007382547E+00 -0.22926900815E+03  0.28179247199E+03  0.12509000000E+03 0.  0.
         25    1    4    4    0    0 -0.36751478117E+02  0.25105054600E+02 -0.96365630178E+02  0.16405723907E+03  0.12509000000E+03 0.  0.
         25    1    4    4    0    0 -0.69051770110E+02 -0.24164980774E+02 -0.18896639161E+03  0.23813420273E+03  0.12509000000E+03 0.  0.
<mgrwt>
<rscale>  2 0.45057716E+03</rscale>
<asrwt>0</asrwt>
<pdfrwt beam="1">  1       21 0.12454624E-01 0.45057716E+03</pdfrwt>
<pdfrwt beam="2">  1       21 0.88131243E-01 0.45057716E+03</pdfrwt>
<totfact> 0.55695682E+04</totfact>
</mgrwt>
</event>
<event>
 7    0  0.4748297E-002  0.4557844E+03  0.7546771E-02  0.1026011E+00
         21   -1    0    0  502  501  0.00000000000E+00  0.00000000000E+00  0.28232811602E+03  0.28232811602E+03  0.00000000000E+00 0. -1.
         21   -1    0    0  501  502 -0.00000000000E+00 -0.00000000000E+00 -0.18395210340E+03  0.18395210340E+03  0.00000000000E+00 0. -1.
      99926    2    1    2    0    0  0.00000000000E+00  0.00000000000E+00  0.98376012619E+02  0.46628021943E+03  0.45578438232E+03 0.  0.
      99925    2    3    3    0    0  0.13152341878E+02 -0.54980500650E+02 -0.39191402738E+02  0.27193994718E+03  0.26309604572E+03 0.  0.
         25    1    4    4    0    0  0.59643706655E+01  0.83270081368E+01  0.23836120916E+01  0.12553128092E+03  0.12509000000E+03 0.  0.
         25    1    4    4    0    0  0.71879712123E+01 -0.63307508787E+02 -0.41575014830E+02  0.14640866626E+03  0.12509000000E+03 0.  0.
         25    1    3    3    0    0 -0.13152341878E+02  0.54980500650E+02  0.13756741536E+03  0.19434027225E+03  0.12509000000E+03 0.  0.
<mgrwt>
<rscale>  2 0.45578438E+03</rscale>
<asrwt>0</asrwt>
<pdfrwt beam="1">  1       21 0.41518841E-01 0.45578438E+03</pdfrwt>
<pdfrwt beam="2">  1       21 0.27051780E-01 0.45578438E+03</pdfrwt>
<totfact> 0.67294270E+04</totfact>
</mgrwt>
</event>
<event>
 7    0  0.4748297E-002  0.4488607E+03  0.7546771E-02  0.1028062E+00
         21   -1    0    0  502  501  0.00000000000E+00  0.00000000000E+00  0.21101700867E+03  0.21101700867E+03  0.00000000000E+00 0.  1.
         21   -1    0    0  501  502 -0.00000000000E+00 -0.00000000000E+00 -0.23869630046E+03  0.23869630046E+03  0.00000000000E+00 0.  1.
      99926    2    1    2    0    0  0.00000000000E+00  0.00000000000E+00 -0.27679291793E+02  0.44971330912E+03  0.44886068797E+03 0.  0.
      99925    2    3    3    0    0  0.47445979025E+02  0.72354400005E+02  0.45946639956E+02  0.28073234555E+03  0.26308416141E+03 0.  0.
         25    1    4    4    0    0 -0.42875764032E+01  0.56027248928E+02  0.45184421678E+02  0.14438343394E+03  0.12509000000E+03 0.  0.
         25    1    3    3    0    0 -0.47445979025E+02 -0.72354400005E+02 -0.73625931749E+02  0.16898096358E+03  0.12509000000E+03 0.  0.
         25    1    4    4    0    0  0.51733555428E+02  0.16327151077E+02  0.76221827811E+00  0.13634891161E+03  0.12509000000E+03 0.  0.
<mgrwt>
<rscale>  2 0.44886069E+03</rscale>
<asrwt>0</asrwt>
<pdfrwt beam="1">  1       21 0.31031913E-01 0.44886069E+03</pdfrwt>
<pdfrwt beam="2">  1       21 0.35102397E-01 0.44886069E+03</pdfrwt>
<totfact> 0.72417729E+04</totfact>
</mgrwt>
</event>
<event>
 7    0  0.4748297E-002  0.4790149E+03  0.7546771E-02  0.1019406E+00
         21   -1    0    0  502  501  0.00000000000E+00  0.00000000000E+00  0.66278230363E+02  0.66278230363E+02  0.00000000000E+00 0. -1.
         21   -1    0    0  501  502 -0.00000000000E+00 -0.00000000000E+00 -0.86550012113E+03  0.86550012113E+03  0.00000000000E+00 0. -1.
      99926    2    1    2    0    0 -0.14210854715E-13  0.00000000000E+00 -0.79922189077E+03  0.93177835149E+03  0.47901489082E+03 0.  0.
      99925    2    3    3    0    0 -0.11345837778E+03 -0.67815429885E+02 -0.44514627243E+03  0.53367184863E+03  0.26301844449E+03 0.  0.
         25    1    4    4    0    0 -0.28680995269E+02 -0.13027547215E+02 -0.15207548918E+03  0.19941609510E+03  0.12509000000E+03 0.  0.
         25    1    3    3    0    0  0.11345837778E+03  0.67815429885E+02 -0.35407561834E+03  0.39810650286E+03  0.12509000000E+03 0.  0.
         25    1    4    4    0    0 -0.84777382513E+02 -0.54787882670E+02 -0.29307078325E+03  0.33425575353E+03  0.12509000000E+03 0.  0.
<mgrwt>
<rscale>  2 0.47901489E+03</rscale>
<asrwt>0</asrwt>
<pdfrwt beam="1">  1       21 0.97467991E-02 0.47901489E+03</pdfrwt>
<pdfrwt beam="2">  1       21 0.12727942E+00 0.47901489E+03</pdfrwt>
<totfact> 0.34859756E+04</totfact>
</mgrwt>
</event>
<event>
 7    0  0.4748297E-002  0.4570883E+03  0.7546771E-02  0.1025629E+00
         21   -1    0    0  502  501  0.00000000000E+00  0.00000000000E+00  0.17354272819E+04  0.17354272819E+04  0.00000000000E+00 0.  1.
         21   -1    0    0  501  502 -0.00000000000E+00 -0.00000000000E+00 -0.30097731949E+02  0.30097731949E+02  0.00000000000E+00 0.  1.
      99926    2    1    2    0    0  0.00000000000E+00  0.00000000000E+00  0.17053295499E+04  0.17655250138E+04  0.45708828533E+03 0.  0.
      99925    2    3    3    0    0  0.21149527350E+02 -0.98608317932E+02  0.12849548191E+04  0.13154879872E+04  0.26311376739E+03 0.  0.
         25    1    4    4    0    0 -0.47962970457E+01 -0.74356273606E+02  0.81360686461E+03  0.82653221239E+03  0.12509000000E+03 0.  0.
         25    1    4    4    0    0  0.25945824396E+02 -0.24252044326E+02  0.47134795447E+03  0.48895577483E+03  0.12509000000E+03 0.  0.
         25    1    3    3    0    0 -0.21149527350E+02  0.98608317932E+02  0.42037473085E+03  0.45003702660E+03  0.12509000000E+03 0.  0.
<mgrwt>
<rscale>  2 0.45708829E+03</rscale>
<asrwt>0</asrwt>
<pdfrwt beam="1">  1       21 0.25520983E+00 0.45708829E+03</pdfrwt>
<pdfrwt beam="2">  1       21 0.44261382E-02 0.45708829E+03</pdfrwt>
<totfact> 0.17643609E+04</totfact>
</mgrwt>
</event>
<event>
 7    0  0.4748297E-002  0.4592233E+03  0.7546771E-02  0.1025007E+00
         21   -1    0    0  502  501  0.00000000000E+00  0.00000000000E+00  0.15644832291E+04  0.15644832291E+04  0.00000000000E+00 0.  1.
         21   -1    0    0  501  502 -0.00000000000E+00 -0.00000000000E+00 -0.33698999612E+02  0.33698999612E+02  0.00000000000E+00 0.  1.
      99926    2    1    2    0    0  0.00000000000E+00  0.00000000000E+00  0.15307842295E+04  0.15981822287E+04  0.45922334319E+03 0.  0.
      99925    2    3    3    0    0 -0.20123298981E+02  0.55335975853E+02  0.13117995419E+04  0.13392057454E+04  0.26303416727E+03 0.  0.
         25    1    3    3    0    0  0.20123298981E+02 -0.55335975853E+02  0.21898468764E+03  0.25897648331E+03  0.12509000000E+03 0.  0.
         25    1    4    4    0    0 -0.10662719230E+02 -0.67379734457E+01  0.50906120001E+03  0.52435666041E+03  0.12509000000E+03 0.  0.
         25    1    4    4    0    0 -0.94605797512E+01  0.62073949298E+02  0.80273834187E+03  0.81484908502E+03  0.12509000000E+03 0.  0.
<mgrwt>
<rscale>  2 0.45922334E+03</rscale>
<asrwt>0</asrwt>
<pdfrwt beam="1">  1       21 0.23007101E+00 0.45922334E+03</pdfrwt>
<pdfrwt beam="2">  1       21 0.49557363E-02 0.45922334E+03</pdfrwt>
<totfact> 0.20781013E+04</totfact>
</mgrwt>
</event>
<event>
 7    0  0.4748297E-002  0.4468870E+03  0.7546771E-02  0.1028654E+00
         21   -1    0    0  502  501  0.00000000000E+00  0.00000000000E+00  0.67925802562E+03  0.67925802562E+03  0.00000000000E+00 0.  1.
         21   -1    0    0  501  502 -0.00000000000E+00 -0.00000000000E+00 -0.73502249842E+02  0.73502249842E+02  0.00000000000E+00 0.  1.
      99926    2    1    2    0    0 -0.35527136788E-14  0.00000000000E+00  0.60575577578E+03  0.75276027547E+03  0.44688697948E+03 0.  0.
      99925    2    3    3    0    0 -0.18075257606E+02  0.72134878195E+02  0.51013700801E+03  0.57863212599E+03  0.26276456134E+03 0.  0.
         25    1    4    4    0    0 -0.41200817850E+02  0.12942960380E+02  0.26410466589E+03  0.29540448585E+03  0.12509000000E+03 0.  0.
         25    1    3    3    0    0  0.18075257606E+02 -0.72134878195E+02  0.95618767776E+02  0.17412814948E+03  0.12509000000E+03 0.  0.
         25    1    4    4    0    0  0.23125560244E+02  0.59191917815E+02  0.24603234212E+03  0.28322764014E+03  0.12509000000E+03 0.  0.
<mgrwt>
<rscale>  2 0.44688698E+03</rscale>
<asrwt>0</asrwt>
<pdfrwt beam="1">  1       21 0.99890883E-01 0.44688698E+03</pdfrwt>
<pdfrwt beam="2">  1       21 0.10809155E-01 0.44688698E+03</pdfrwt>
<totfact> 0.53458049E+04</totfact>
</mgrwt>
</event>
<event>
 7    0  0.4748297E-002  0.4596390E+03  0.7546771E-02  0.1024886E+00
         21   -1    0    0  502  501  0.00000000000E+00  0.00000000000E+00  0.10848614273E+03  0.10848614273E+03  0.00000000000E+00 0. -1.
         21   -1    0    0  501  502 -0.00000000000E+00 -0.00000000000E+00 -0.48685488730E+03  0.48685488730E+03  0.00000000000E+00 0. -1.
      99926    2    1    2    0    0  0.00000000000E+00  0.00000000000E+00 -0.37836874457E+03  0.59534103003E+03  0.45963902702E+03 0.  0.
      99925    2    3    3    0    0  0.10186495252E+03  0.17998040361E+02 -0.30917349298E+03  0.41888738469E+03  0.26301709884E+03 0.  0.
         25    1    4    4    0    0  0.30210587489E+02  0.94140688289E+01 -0.19932222178E+03  0.23744085681E+03  0.12509000000E+03 0.  0.
         25    1    4    4    0    0  0.71654365032E+02  0.85839715319E+01 -0.10985127121E+03  0.18144652788E+03  0.12509000000E+03 0.  0.
         25    1    3    3    0    0 -0.10186495252E+03 -0.17998040361E+02 -0.69195251589E+02  0.17645364533E+03  0.12509000000E+03 0.  0.
<mgrwt>
<rscale>  2 0.45963903E+03</rscale>
<asrwt>0</asrwt>
<pdfrwt beam="1">  1       21 0.15953845E-01 0.45963903E+03</pdfrwt>
<pdfrwt beam="2">  1       21 0.71596306E-01 0.45963903E+03</pdfrwt>
<totfact> 0.56852897E+04</totfact>
</mgrwt>
</event>
<event>
 7    0  0.4748297E-002  0.4526749E+03  0.7546771E-02  0.1026927E+00
         21   -1    0    0  502  501  0.00000000000E+00  0.00000000000E+00  0.22540832268E+03  0.22540832268E+03  0.00000000000E+00 0. -1.
         21   -1    0    0  501  502 -0.00000000000E+00 -0.00000000000E+00 -0.22727040492E+03  0.22727040492E+03  0.00000000000E+00 0. -1.
      99926    2    1    2    0    0  0.00000000000E+00 -0.26645352591E-14 -0.18620822482E+01  0.45267872760E+03  0.45267489777E+03 0.  0.
      99925    2    3    3    0    0 -0.68247514488E+02 -0.76942662395E+01  0.86022973069E+02  0.28508333382E+03  0.26297458121E+03 0.  0.
         25    1    4    4    0    0 -0.15179749059E+02  0.32259169404E+02  0.44854368123E+02  0.13758815804E+03  0.12509000000E+03 0.  0.
         25    1    4    4    0    0 -0.53067765429E+02 -0.39953435644E+02  0.41168604946E+02  0.14749517579E+03  0.12509000000E+03 0.  0.
         25    1    3    3    0    0  0.68247514488E+02  0.76942662395E+01 -0.87885055317E+02  0.16759539378E+03  0.12509000000E+03 0.  0.
<mgrwt>
<rscale>  2 0.45267490E+03</rscale>
<asrwt>0</asrwt>
<pdfrwt beam="1">  1       21 0.33148283E-01 0.45267490E+03</pdfrwt>
<pdfrwt beam="2">  1       21 0.33422118E-01 0.45267490E+03</pdfrwt>
<totfact> 0.70005936E+04</totfact>
</mgrwt>
</event>
<event>
 7    0  0.4748297E-002  0.4456225E+03  0.7546771E-02  0.1029036E+00
         21   -1    0    0  502  501  0.00000000000E+00  0.00000000000E+00  0.63598012485E+02  0.63598012485E+02  0.00000000000E+00 0. -1.
         21   -1    0    0  501  502 -0.00000000000E+00 -0.00000000000E+00 -0.78060389682E+03  0.78060389682E+03  0.00000000000E+00 0. -1.
      99926    2    1    2    0    0  0.00000000000E+00  0.14210854715E-13 -0.71700588434E+03  0.84420190931E+03  0.44562251458E+03 0.  0.
      99925    2    3    3    0    0  0.30999745870E+02  0.72332166601E+02 -0.32632394854E+03  0.42650248433E+03  0.26310477605E+03 0.  0.
         25    1    4    4    0    0  0.38584942240E+02  0.18192233037E+02 -0.20475383924E+03  0.24370350406E+03  0.12509000000E+03 0.  0.
         25    1    4    4    0    0 -0.75851963705E+01  0.54139933564E+02 -0.12157010931E+03  0.18279898027E+03  0.12509000000E+03 0.  0.
         25    1    3    3    0    0 -0.30999745870E+02 -0.72332166601E+02 -0.39068193579E+03  0.41769942497E+03  0.12509000000E+03 0.  0.
<mgrwt>
<rscale>  2 0.44562251E+03</rscale>
<asrwt>0</asrwt>
<pdfrwt beam="1">  1       21 0.93526493E-02 0.44562251E+03</pdfrwt>
<pdfrwt beam="2">  1       21 0.11479469E+00 0.44562251E+03</pdfrwt>
<totfact> 0.49222240E+04</totfact>
</mgrwt>
</event>
<event>
 7    0  0.4748297E-002  0.4566118E+03  0.7546771E-02  0.1025768E+00
         21   -1    0    0  502  501  0.00000000000E+00  0.00000000000E+00  0.37165236044E+02  0.37165236044E+02  0.00000000000E+00 0. -1.
         21   -1    0    0  501  502 -0.00000000000E+00 -0.00000000000E+00 -0.14024822857E+04  0.14024822857E+04  0.00000000000E+00 0. -1.
      99926    2    1    2    0    0  0.00000000000E+00 -0.35527136788E-14 -0.13653170497E+04  0.14396475218E+04  0.45661180535E+03 0.  0.
      99925    2    3    3    0    0 -0.98119950685E+02  0.23832106739E+02 -0.68671109692E+03  0.74226022531E+03  0.26302588735E+03 0.  0.
         25    1    4    4    0    0 -0.47920860289E+02 -0.96722830390E+01 -0.24721841250E+03  0.28134394163E+03  0.12509000000E+03 0.  0.
         25    1    4    4    0    0 -0.50199090396E+02  0.33504389778E+02 -0.43949268441E+03  0.46091628368E+03  0.12509000000E+03 0.  0.
         25    1    3    3    0    0  0.98119950685E+02 -0.23832106739E+02 -0.67860595277E+03  0.69738729646E+03  0.12509000000E+03 0.  0.
<mgrwt>
<rscale>  2 0.45661181E+03</rscale>
<asrwt>0</asrwt>
<pdfrwt beam="1">  1       21 0.54654743E-02 0.45661181E+03</pdfrwt>
<pdfrwt beam="2">  1       21 0.20624745E+00 0.45661181E+03</pdfrwt>
<totfact> 0.24980055E+04</totfact>
</mgrwt>
</event>
<event>
 7    0  0.4748297E-002  0.4650350E+03  0.7546771E-02  0.1023331E+00
         21   -1    0    0  502  501  0.00000000000E+00  0.00000000000E+00  0.39983874058E+03  0.39983874058E+03  0.00000000000E+00 0. -1.
         21   -1    0    0  501  502 -0.00000000000E+00 -0.00000000000E+00 -0.13521545336E+03  0.13521545336E+03  0.00000000000E+00 0. -1.
      99926    2    1    2    0    0  0.00000000000E+00  0.35527136788E-14  0.26462328722E+03  0.53505419394E+03  0.46503495172E+03 0.  0.
      99925    2    3    3    0    0 -0.87177930079E+02  0.19450277157E+02  0.68915928908E+02  0.28620246505E+03  0.26302878354E+03 0.  0.
         25    1    4    4    0    0 -0.27352964993E+02 -0.26951860267E+02  0.42779549302E+02  0.13766693650E+03  0.12509000000E+03 0.  0.
         25    1    4    4    0    0 -0.59824965086E+02  0.46402137424E+02  0.26136379606E+02  0.14853552856E+03  0.12509000000E+03 0.  0.
         25    1    3    3    0    0  0.87177930079E+02 -0.19450277157E+02  0.19570735831E+03  0.24885172889E+03  0.12509000000E+03 0.  0.
<mgrwt>
<rscale>  2 0.46503495E+03</rscale>
<asrwt>0</asrwt>
<pdfrwt beam="1">  1       21 0.58799815E-01 0.46503495E+03</pdfrwt>
<pdfrwt beam="2">  1       21 0.19884626E-01 0.46503495E+03</pdfrwt>
<totfact> 0.58104687E+04</totfact>
</mgrwt>
</event>
<event>
 7    0  0.4748297E-002  0.4554276E+03  0.7546771E-02  0.1026116E+00
         21   -1    0    0  502  501  0.00000000000E+00  0.00000000000E+00  0.89917490702E+02  0.89917490702E+02  0.00000000000E+00 0.  1.
         21   -1    0    0  501  502 -0.00000000000E+00 -0.00000000000E+00 -0.57667963649E+03  0.57667963649E+03  0.00000000000E+00 0.  1.
      99926    2    1    2    0    0  0.00000000000E+00  0.00000000000E+00 -0.48676214578E+03  0.66659712719E+03  0.45542764893E+03 0.  0.
      99925    2    3    3    0    0 -0.87690061732E+02 -0.56654925562E+02 -0.37148912707E+03  0.46701079384E+03  0.26305053224E+03 0.  0.
         25    1    4    4    0    0 -0.40820846803E+02 -0.67196873368E+02 -0.17269695652E+03  0.22727408171E+03  0.12509000000E+03 0.  0.
         25    1    3    3    0    0  0.87690061732E+02  0.56654925562E+02 -0.11527301872E+03  0.19958633335E+03  0.12509000000E+03 0.  0.
         25    1    4    4    0    0 -0.46869214929E+02  0.10541947806E+02 -0.19879217054E+03  0.23973671213E+03  0.12509000000E+03 0.  0.
<mgrwt>
<rscale>  2 0.45542765E+03</rscale>
<asrwt>0</asrwt>
<pdfrwt beam="1">  1       21 0.13223160E-01 0.45542765E+03</pdfrwt>
<pdfrwt beam="2">  1       21 0.84805829E-01 0.45542765E+03</pdfrwt>
<totfact> 0.54569980E+04</totfact>
</mgrwt>
</event>
<event>
 7    0  0.4748297E-002  0.4567329E+03  0.7546771E-02  0.1025733E+00
         21   -1    0    0  502  501  0.00000000000E+00  0.00000000000E+00  0.10618035169E+03  0.10618035169E+03  0.00000000000E+00 0. -1.
         21   -1    0    0  501  502 -0.00000000000E+00 -0.00000000000E+00 -0.49115712984E+03  0.49115712984E+03  0.00000000000E+00 0. -1.
      99926    2    1    2    0    0  0.14210854715E-13  0.35527136788E-14 -0.38497677815E+03  0.59733748153E+03  0.45673290568E+03 0.  0.
      99925    2    3    3    0    0  0.75855774531E+02  0.29227951540E+02 -0.13581621072E+03  0.30692937534E+03  0.26296620823E+03 0.  0.
         25    1    4    4    0    0  0.73833738976E+02 -0.51596835581E+01 -0.66663762854E+02  0.15990499906E+03  0.12509000000E+03 0.  0.
         25    1    4    4    0    0  0.20220355551E+01  0.34387635098E+02 -0.69152447870E+02  0.14702437628E+03  0.12509000000E+03 0.  0.
         25    1    3    3    0    0 -0.75855774531E+02 -0.29227951540E+02 -0.24916056743E+03  0.29040810619E+03  0.12509000000E+03 0.  0.
<mgrwt>
<rscale>  2 0.45673291E+03</rscale>
<asrwt>0</asrwt>
<pdfrwt beam="1">  1       21 0.15614758E-01 0.45673291E+03</pdfrwt>
<pdfrwt beam="2">  1       21 0.72228989E-01 0.45673291E+03</pdfrwt>
<totfact> 0.58043551E+04</totfact>
</mgrwt>
</event>
<event>
 7    0  0.4748297E-002  0.4682433E+03  0.7546771E-02  0.1022417E+00
         21   -1    0    0  502  501  0.00000000000E+00  0.00000000000E+00  0.53802899251E+03  0.53802899251E+03  0.00000000000E+00 0. -1.
         21   -1    0    0  501  502 -0.00000000000E+00 -0.00000000000E+00 -0.10187730876E+03  0.10187730876E+03  0.00000000000E+00 0. -1.
      99926    2    1    2    0    0  0.00000000000E+00  0.71054273576E-14  0.43615168375E+03  0.63990630127E+03  0.46824329484E+03 0.  0.
      99925    2    3    3    0    0 -0.11837475753E+03 -0.39849606746E+02  0.28247156540E+03  0.40567209955E+03  0.26301918696E+03 0.  0.
         25    1    3    3    0    0  0.11837475753E+03  0.39849606746E+02  0.15368011835E+03  0.23423420172E+03  0.12509000000E+03 0.  0.
         25    1    4    4    0    0 -0.70021648825E+02  0.13520172634E+01  0.18845825764E+03  0.23678868686E+03  0.12509000000E+03 0.  0.
         25    1    4    4    0    0 -0.48353108709E+02 -0.41201624009E+02  0.94013307764E+02  0.16888341268E+03  0.12509000000E+03 0.  0.
<mgrwt>
<rscale>  2 0.46824329E+03</rscale>
<asrwt>0</asrwt>
<pdfrwt beam="1">  1       21 0.79121910E-01 0.46824329E+03</pdfrwt>
<pdfrwt beam="2">  1       21 0.14981957E-01 0.46824329E+03</pdfrwt>
<totfact> 0.50768611E+04</totfact>
</mgrwt>
</event>
<event>
 7    0  0.4748297E-002  0.4754897E+03  0.7546771E-02  0.1020382E+00
         21   -1    0    0  502  501  0.00000000000E+00  0.00000000000E+00  0.39927347636E+03  0.39927347636E+03  0.00000000000E+00 0. -1.
         21   -1    0    0  501  502 -0.00000000000E+00 -0.00000000000E+00 -0.14156366628E+03  0.14156366628E+03  0.00000000000E+00 0. -1.
      99926    2    1    2    0    0  0.00000000000E+00  0.71054273576E-14  0.25770981008E+03  0.54083714264E+03  0.47548971455E+03 0.  0.
      99925    2    3    3    0    0  0.15725673851E+02 -0.35251867023E+02  0.16504067922E+02  0.26639642209E+03  0.26306782110E+03 0.  0.
         25    1    4    4    0    0 -0.14836117382E+02 -0.45703989331E+02  0.27296269041E+02  0.13675364501E+03  0.12509000000E+03 0.  0.
         25    1    3    3    0    0 -0.15725673851E+02  0.35251867023E+02  0.24120574215E+03  0.27444072055E+03  0.12509000000E+03 0.  0.
         25    1    4    4    0    0  0.30561791234E+02  0.10452122308E+02 -0.10792201119E+02  0.12964277708E+03  0.12509000000E+03 0.  0.
<mgrwt>
<rscale>  2 0.47548971E+03</rscale>
<asrwt>0</asrwt>
<pdfrwt beam="1">  1       21 0.58716688E-01 0.47548971E+03</pdfrwt>
<pdfrwt beam="2">  1       21 0.20818186E-01 0.47548971E+03</pdfrwt>
<totfact> 0.53284651E+04</totfact>
</mgrwt>
</event>
<event>
 7    0  0.4748297E-002  0.4329138E+03  0.7546771E-02  0.1032943E+00
         21   -1    0    0  502  501  0.00000000000E+00  0.00000000000E+00  0.15367454306E+03  0.15367454306E+03  0.00000000000E+00 0. -1.
         21   -1    0    0  501  502 -0.00000000000E+00 -0.00000000000E+00 -0.30488846197E+03  0.30488846197E+03  0.00000000000E+00 0. -1.
      99926    2    1    2    0    0  0.00000000000E+00  0.00000000000E+00 -0.15121391891E+03  0.45856300504E+03  0.43291382551E+03 0.  0.
      99925    2    3    3    0    0  0.72516632253E+02 -0.53783138297E+02 -0.10689476475E+03  0.29805448986E+03  0.26317047759E+03 0.  0.
         25    1    4    4    0    0  0.66570550363E+02 -0.55652604489E+02 -0.47782780875E+02  0.15956049890E+03  0.12509000000E+03 0.  0.
         25    1    3    3    0    0 -0.72516632253E+02  0.53783138297E+02 -0.44319154162E+02  0.16050851518E+03  0.12509000000E+03 0.  0.
         25    1    4    4    0    0  0.59460818893E+01  0.18694661919E+01 -0.59111983874E+02  0.13849399096E+03  0.12509000000E+03 0.  0.
<mgrwt>
<rscale>  2 0.43291383E+03</rscale>
<asrwt>0</asrwt>
<pdfrwt beam="1">  1       21 0.22599198E-01 0.43291383E+03</pdfrwt>
<pdfrwt beam="2">  1       21 0.44836538E-01 0.43291383E+03</pdfrwt>
<totfact> 0.81702270E+04</totfact>
</mgrwt>
</event>
<event>
 7    0  0.4748297E-002  0.4555470E+03  0.7546771E-02  0.1026081E+00
         21   -1    0    0  502  501  0.00000000000E+00  0.00000000000E+00  0.33468745609E+02  0.33468745609E+02  0.00000000000E+00 0.  1.
         21   -1    0    0  501  502 -0.00000000000E+00 -0.00000000000E+00 -0.15501256996E+04  0.15501256996E+04  0.00000000000E+00 0.  1.
      99926    2    1    2    0    0 -0.71054273576E-14  0.14210854715E-13 -0.15166569540E+04  0.15835944452E+04  0.45554697980E+03 0.  0.
      99925    2    3    3    0    0  0.48969653877E+02 -0.10106872338E+03 -0.89473228437E+03  0.93935014634E+03  0.26309679375E+03 0.  0.
         25    1    4    4    0    0 -0.52404752223E+01 -0.65499234629E+02 -0.37098003394E+03  0.39697771473E+03  0.12509000000E+03 0.  0.
         25    1    4    4    0    0  0.54210129099E+02 -0.35569488748E+02 -0.52375225044E+03  0.54237243161E+03  0.12509000000E+03 0.  0.
         25    1    3    3    0    0 -0.48969653877E+02  0.10106872338E+03 -0.62192466963E+03  0.64424429888E+03  0.12509000000E+03 0.  0.
<mgrwt>
<rscale>  2 0.45554698E+03</rscale>
<asrwt>0</asrwt>
<pdfrwt beam="1">  1       21 0.49218753E-02 0.45554698E+03</pdfrwt>
<pdfrwt beam="2">  1       21 0.22795962E+00 0.45554698E+03</pdfrwt>
<totfact> 0.21710281E+04</totfact>
</mgrwt>
</event>
<event>
 7    0  0.4748297E-002  0.4649843E+03  0.7546771E-02  0.1023345E+00
         21   -1    0    0  502  501  0.00000000000E+00  0.00000000000E+00  0.55215252889E+02  0.55215252889E+02  0.00000000000E+00 0. -1.
         21   -1    0    0  501  502 -0.00000000000E+00 -0.00000000000E+00 -0.97894316314E+03  0.97894316314E+03  0.00000000000E+00 0. -1.
      99926    2    1    2    0    0  0.35527136788E-14  0.00000000000E+00 -0.92372791025E+03  0.10341584160E+04  0.46498427636E+03 0.  0.
      99925    2    3    3    0    0 -0.19541115683E+02  0.19375975804E+02 -0.31057294420E+03  0.40776891729E+03  0.26279774085E+03 0.  0.
         25    1    3    3    0    0  0.19541115683E+02 -0.19375975804E+02 -0.61315496605E+03  0.62638949874E+03  0.12509000000E+03 0.  0.
         25    1    4    4    0    0 -0.46174300978E+02  0.13665225612E+02 -0.18489192513E+03  0.22836667126E+03  0.12509000000E+03 0.  0.
         25    1    4    4    0    0  0.26633185295E+02  0.57107501919E+01 -0.12568101907E+03  0.17940224603E+03  0.12509000000E+03 0.  0.
<mgrwt>
<rscale>  2 0.46498428E+03</rscale>
<asrwt>0</asrwt>
<pdfrwt beam="1">  1       21 0.81198904E-02 0.46498428E+03</pdfrwt>
<pdfrwt beam="2">  1       21 0.14396222E+00 0.46498428E+03</pdfrwt>
<totfact> 0.35051309E+04</totfact>
</mgrwt>
</event>
<event>
 7    0  0.4748297E-002  0.4425371E+03  0.7546771E-02  0.1029971E+00
         21   -1    0    0  502  501  0.00000000000E+00  0.00000000000E+00  0.11323278653E+03  0.11323278653E+03  0.00000000000E+00 0. -1.
         21   -1    0    0  501  502 -0.00000000000E+00 -0.00000000000E+00 -0.43238166724E+03  0.43238166724E+03  0.00000000000E+00 0. -1.
      99926    2    1    2    0    0  0.00000000000E+00 -0.71054273576E-14 -0.31914888071E+03  0.54561445377E+03  0.44253714432E+03 0.  0.
      99925    2    3    3    0    0  0.79549951079E+02 -0.55094199670E+02 -0.16746209825E+03  0.32647989778E+03  0.26302472080E+03 0.  0.
         25    1    3    3    0    0 -0.79549951079E+02  0.55094199670E+02 -0.15168678247E+03  0.21913455599E+03  0.12509000000E+03 0.  0.
         25    1    4    4    0    0  0.93305432525E+01 -0.50402627530E+02 -0.64132935559E+02  0.14962628587E+03  0.12509000000E+03 0.  0.
         25    1    4    4    0    0  0.70219407826E+02 -0.46915721403E+01 -0.10332916269E+03  0.17685361191E+03  0.12509000000E+03 0.  0.
<mgrwt>
<rscale>  2 0.44253714E+03</rscale>
<asrwt>0</asrwt>
<pdfrwt beam="1">  1       21 0.16651881E-01 0.44253714E+03</pdfrwt>
<pdfrwt beam="2">  1       21 0.63585538E-01 0.44253714E+03</pdfrwt>
<totfact> 0.68683995E+04</totfact>
</mgrwt>
</event>
<event>
 7    0  0.4748297E-002  0.4511198E+03  0.7546771E-02  0.1027389E+00
         21   -1    0    0  502  501  0.00000000000E+00  0.00000000000E+00  0.47340407920E+02  0.47340407920E+02  0.00000000000E+00 0.  1.
         21   -1    0    0  501  502 -0.00000000000E+00 -0.00000000000E+00 -0.10747112809E+04  0.10747112809E+04  0.00000000000E+00 0.  1.
      99926    2    1    2    0    0  0.00000000000E+00  0.00000000000E+00 -0.10273708730E+04  0.11220516888E+04  0.45111980863E+03 0.  0.
      99925    2    3    3    0    0  0.56563567833E+02 -0.72490327999E+02 -0.50136179573E+03  0.57361086037E+03  0.26308075577E+03 0.  0.
         25    1    3    3    0    0 -0.56563567833E+02  0.72490327999E+02 -0.52600907724E+03  0.54844082844E+03  0.12509000000E+03 0.  0.
         25    1    4    4    0    0  0.11254103695E+01 -0.33699676265E+02 -0.17614932961E+03  0.21866190604E+03  0.12509000000E+03 0.  0.
         25    1    4    4    0    0  0.55438157463E+02 -0.38790651734E+02 -0.32521246611E+03  0.35494895433E+03  0.12509000000E+03 0.  0.
<mgrwt>
<rscale>  2 0.45111981E+03</rscale>
<asrwt>0</asrwt>
<pdfrwt beam="1">  1       21 0.69618241E-02 0.45111981E+03</pdfrwt>
<pdfrwt beam="2">  1       21 0.15804579E+00 0.45111981E+03</pdfrwt>
<totfact> 0.35800056E+04</totfact>
</mgrwt>
</event>
<event>
 7    0  0.4748297E-002  0.4640374E+03  0.7546771E-02  0.1023617E+00
         21   -1    0    0  502  501  0.00000000000E+00  0.00000000000E+00  0.45955901192E+02  0.45955901192E+02  0.00000000000E+00 0. -1.
         21   -1    0    0  501  502 -0.00000000000E+00 -0.00000000000E+00 -0.11713987375E+04  0.11713987375E+04  0.00000000000E+00 0. -1.
      99926    2    1    2    0    0  0.14210854715E-13  0.00000000000E+00 -0.11254428363E+04  0.12173546387E+04  0.46403743227E+03 0.  0.
      99925    2    3    3    0    0  0.66955289334E+02  0.98399676349E+02 -0.76628096301E+03  0.81884458059E+03  0.26297229098E+03 0.  0.
         25    1    4    4    0    0  0.41483286220E+02  0.83893334196E+01 -0.37252438777E+03  0.39523812004E+03  0.12509000000E+03 0.  0.
         25    1    3    3    0    0 -0.66955289334E+02 -0.98399676349E+02 -0.35916187331E+03  0.39851005811E+03  0.12509000000E+03 0.  0.
         25    1    4    4    0    0  0.25472003113E+02  0.90010342929E+02 -0.39375657524E+03  0.42360646056E+03  0.12509000000E+03 0.  0.
<mgrwt>
<rscale>  2 0.46403743E+03</rscale>
<asrwt>0</asrwt>
<pdfrwt beam="1">  1       21 0.67582215E-02 0.46403743E+03</pdfrwt>
<pdfrwt beam="2">  1       21 0.17226450E+00 0.46403743E+03</pdfrwt>
<totfact> 0.29480263E+04</totfact>
</mgrwt>
</event>
<event>
 7    0  0.4748297E-002  0.4499878E+03  0.7546771E-02  0.1027726E+00
         21   -1    0    0  502  501  0.00000000000E+00  0.00000000000E+00  0.67091016216E+03  0.67091016216E+03  0.00000000000E+00 0. -1.
         21   -1    0    0  501  502 -0.00000000000E+00 -0.00000000000E+00 -0.75453120598E+02  0.75453120598E+02  0.00000000000E+00 0. -1.
      99926    2    1    2    0    0  0.71054273576E-14  0.14210854715E-13  0.59545704156E+03  0.74636328276E+03  0.44998784595E+03 0.  0.
      99925    2    3    3    0    0  0.53423365365E+02 -0.92848845095E+02  0.38609181980E+03  0.47998710480E+03  0.26428349069E+03 0.  0.
         25    1    4    4    0    0 -0.17536225056E+01 -0.18204046592E+02  0.13896773021E+03  0.18786697592E+03  0.12509000000E+03 0.  0.
         25    1    3    3    0    0 -0.53423365365E+02  0.92848845095E+02  0.20936522175E+03  0.26637617796E+03  0.12509000000E+03 0.  0.
         25    1    4    4    0    0  0.55176987870E+02 -0.74644798504E+02  0.24712408960E+03  0.29212012888E+03  0.12509000000E+03 0.  0.
<mgrwt>
<rscale>  2 0.44998785E+03</rscale>
<asrwt>0</asrwt>
<pdfrwt beam="1">  1       21 0.98663256E-01 0.44998785E+03</pdfrwt>
<pdfrwt beam="2">  1       21 0.11096047E-01 0.44998785E+03</pdfrwt>
<totfact> 0.52494687E+04</totfact>
</mgrwt>
</event>
<event>
 7    0  0.4748297E-002  0.4524124E+03  0.7546771E-02  0.1027005E+00
         21   -1    0    0  502  501  0.00000000000E+00  0.00000000000E+00  0.53122330116E+03  0.53122330116E+03  0.00000000000E+00 0.  1.
         21   -1    0    0  501  502 -0.00000000000E+00 -0.00000000000E+00 -0.96323428363E+02  0.96323428363E+02  0.00000000000E+00 0.  1.
      99926    2    1    2    0    0  0.14210854715E-13  0.00000000000E+00  0.43489987280E+03  0.62754672953E+03  0.45241242067E+03 0.  0.
      99925    2    3    3    0    0 -0.67841268706E+02  0.60368782201E+02  0.36152981944E+03  0.45644003639E+03  0.26341387374E+03 0.  0.
         25    1    4    4    0    0 -0.38110082434E+00  0.43511232883E+01  0.14682358700E+03  0.19293457780E+03  0.12509000000E+03 0.  0.
         25    1    3    3    0    0  0.67841268706E+02 -0.60368782201E+02  0.73370053361E+02  0.17110669313E+03  0.12509000000E+03 0.  0.
         25    1    4    4    0    0 -0.67460167882E+02  0.56017658913E+02  0.21470623244E+03  0.26350545859E+03  0.12509000000E+03 0.  0.
<mgrwt>
<rscale>  2 0.45241242E+03</rscale>
<asrwt>0</asrwt>
<pdfrwt beam="1">  1       21 0.78121072E-01 0.45241242E+03</pdfrwt>
<pdfrwt beam="2">  1       21 0.14165210E-01 0.45241242E+03</pdfrwt>
<totfact> 0.58193622E+04</totfact>
</mgrwt>
</event>
<event>
 7    0  0.4748297E-002  0.4456065E+03  0.7546771E-02  0.1029040E+00
         21   -1    0    0  502  501  0.00000000000E+00  0.00000000000E+00  0.10190863787E+03  0.10190863787E+03  0.00000000000E+00 0. -1.
         21   -1    0    0  501  502 -0.00000000000E+00 -0.00000000000E+00 -0.48711557092E+03  0.48711557092E+03  0.00000000000E+00 0. -1.
      99926    2    1    2    0    0  0.00000000000E+00  0.00000000000E+00 -0.38520693305E+03  0.58902420878E+03  0.44560648252E+03 0.  0.
      99925    2    3    3    0    0 -0.21733293281E+02  0.72870643651E+02 -0.33878472316E+03  0.43545013410E+03  0.26279129343E+03 0.  0.
         25    1    4    4    0    0 -0.48407294019E+02  0.22422469493E+02 -0.17402531616E+03  0.22085821700E+03  0.12509000000E+03 0.  0.
         25    1    4    4    0    0  0.26674000738E+02  0.50448174158E+02 -0.16475940699E+03  0.21459191710E+03  0.12509000000E+03 0.  0.
         25    1    3    3    0    0  0.21733293281E+02 -0.72870643651E+02 -0.46422209891E+02  0.15357407468E+03  0.12509000000E+03 0.  0.
<mgrwt>
<rscale>  2 0.44560648E+03</rscale>
<asrwt>0</asrwt>
<pdfrwt beam="1">  1       21 0.14986564E-01 0.44560648E+03</pdfrwt>
<pdfrwt beam="2">  1       21 0.71634645E-01 0.44560648E+03</pdfrwt>
<totfact> 0.63978140E+04</totfact>
</mgrwt>
</event>
<event>
 7    0  0.4748297E-002  0.4540702E+03  0.7546771E-02  0.1026515E+00
         21   -1    0    0  502  501  0.00000000000E+00  0.00000000000E+00  0.10953532448E+04  0.10953532448E+04  0.00000000000E+00 0. -1.
         21   -1    0    0  501  502 -0.00000000000E+00 -0.00000000000E+00 -0.47057824640E+02  0.47057824640E+02  0.00000000000E+00 0. -1.
      99926    2    1    2    0    0  0.71054273576E-14  0.14210854715E-13  0.10482954201E+04  0.11424110694E+04  0.45407021885E+03 0.  0.
      99925    2    3    3    0    0 -0.62702713204E+02 -0.74921483935E+02  0.52265627307E+03  0.59333103880E+03  0.26330074595E+03 0.  0.
         25    1    4    4    0    0 -0.56900119207E+02 -0.33775252757E+02  0.20197283968E+03  0.24661493737E+03  0.12509000000E+03 0.  0.
         25    1    4    4    0    0 -0.58025939969E+01 -0.41146231179E+02  0.32068343339E+03  0.34671610143E+03  0.12509000000E+03 0.  0.
         25    1    3    3    0    0  0.62702713204E+02  0.74921483935E+02  0.52563914705E+03  0.54908003060E+03  0.12509000000E+03 0.  0.
<mgrwt>
<rscale>  2 0.45407022E+03</rscale>
<asrwt>0</asrwt>
<pdfrwt beam="1">  1       21 0.16108134E+00 0.45407022E+03</pdfrwt>
<pdfrwt beam="2">  1       21 0.69202690E-02 0.45407022E+03</pdfrwt>
<totfact> 0.34284547E+04</totfact>
</mgrwt>
</event>
<event>
 7    0  0.4748297E-002  0.4616083E+03  0.7546771E-02  0.1024316E+00
         21   -1    0    0  502  501  0.00000000000E+00  0.00000000000E+00  0.96060599417E+03  0.96060599417E+03  0.00000000000E+00 0.  1.
         21   -1    0    0  501  502 -0.00000000000E+00 -0.00000000000E+00 -0.55455145030E+02  0.55455145030E+02  0.00000000000E+00 0.  1.
      99926    2    1    2    0    0  0.00000000000E+00  0.00000000000E+00  0.90515084914E+03  0.10160611392E+04  0.46160825263E+03 0.  0.
      99925    2    3    3    0    0 -0.74176510504E+02 -0.60533639487E+02  0.40928189487E+03  0.49577275366E+03  0.26289252097E+03 0.  0.
         25    1    4    4    0    0 -0.51413594211E+02 -0.44358137579E+02  0.15141620533E+03  0.20781091736E+03  0.12509000000E+03 0.  0.
         25    1    4    4    0    0 -0.22762916293E+02 -0.16175501907E+02  0.25786568954E+03  0.28796183630E+03  0.12509000000E+03 0.  0.
         25    1    3    3    0    0  0.74176510504E+02  0.60533639487E+02  0.49586895427E+03  0.52028838554E+03  0.12509000000E+03 0.  0.
<mgrwt>
<rscale>  2 0.46160825E+03</rscale>
<asrwt>0</asrwt>
<pdfrwt beam="1">  1       21 0.14126558E+00 0.46160825E+03</pdfrwt>
<pdfrwt beam="2">  1       21 0.81551689E-02 0.46160825E+03</pdfrwt>
<totfact> 0.36621392E+04</totfact>
</mgrwt>
</event>
<event>
 7    0  0.4748297E-002  0.4617218E+03  0.7546771E-02  0.1024283E+00
         21   -1    0    0  502  501  0.00000000000E+00  0.00000000000E+00  0.66708803555E+02  0.66708803555E+02  0.00000000000E+00 0.  1.
         21   -1    0    0  501  502 -0.00000000000E+00 -0.00000000000E+00 -0.79894638515E+03  0.79894638515E+03  0.00000000000E+00 0.  1.
      99926    2    1    2    0    0  0.00000000000E+00  0.00000000000E+00 -0.73223758160E+03  0.86565518871E+03  0.46172181000E+03 0.  0.
      99925    2    3    3    0    0  0.10105938845E+03  0.63126595200E+02 -0.47570235650E+03  0.55637247527E+03  0.26279199425E+03 0.  0.
         25    1    3    3    0    0 -0.10105938845E+03 -0.63126595200E+02 -0.25653522510E+03  0.30928271344E+03  0.12509000000E+03 0.  0.
         25    1    4    4    0    0  0.50570041004E+02  0.15188481842E+02 -0.16080744214E+03  0.21046272966E+03  0.12509000000E+03 0.  0.
         25    1    4    4    0    0  0.50489347449E+02  0.47938113358E+02 -0.31489491436E+03  0.34590974561E+03  0.12509000000E+03 0.  0.
<mgrwt>
<rscale>  2 0.46172181E+03</rscale>
<asrwt>0</asrwt>
<pdfrwt beam="1">  1       21 0.98101192E-02 0.46172181E+03</pdfrwt>
<pdfrwt beam="2">  1       21 0.11749210E+00 0.46172181E+03</pdfrwt>
<totfact> 0.42463565E+04</totfact>
</mgrwt>
</event>
<event>
 7    0  0.4748297E-002  0.4639549E+03  0.7546771E-02  0.1023640E+00
         21   -1    0    0  502  501  0.00000000000E+00  0.00000000000E+00  0.15277945615E+03  0.15277945615E+03  0.00000000000E+00 0. -1.
         21   -1    0    0  501  502 -0.00000000000E+00 -0.00000000000E+00 -0.35223022140E+03  0.35223022140E+03  0.00000000000E+00 0. -1.
      99926    2    1    2    0    0 -0.14210854715E-13  0.71054273576E-14 -0.19945076525E+03  0.50500967755E+03  0.46395491879E+03 0.  0.
      99925    2    3    3    0    0  0.10856625301E+03 -0.45365428091E+02 -0.15730055005E+03  0.32817980988E+03  0.26289517153E+03 0.  0.
         25    1    3    3    0    0 -0.10856625301E+03  0.45365428091E+02 -0.42150215200E+02  0.17682986767E+03  0.12509000000E+03 0.  0.
         25    1    4    4    0    0  0.44677247382E+02 -0.29246843320E+01 -0.35607621367E+02  0.13755006729E+03  0.12509000000E+03 0.  0.
         25    1    4    4    0    0  0.63889005629E+02 -0.42440743759E+02 -0.12169292868E+03  0.19062974259E+03  0.12509000000E+03 0.  0.
<mgrwt>
<rscale>  2 0.46395492E+03</rscale>
<asrwt>0</asrwt>
<pdfrwt beam="1">  1       21 0.22467567E-01 0.46395492E+03</pdfrwt>
<pdfrwt beam="2">  1       21 0.51798561E-01 0.46395492E+03</pdfrwt>
<totfact> 0.60503530E+04</totfact>
</mgrwt>
</event>
<event>
 7    0  0.4748297E-002  0.4471846E+03  0.7546771E-02  0.1028565E+00
         21   -1    0    0  502  501  0.00000000000E+00  0.00000000000E+00  0.35856466287E+03  0.35856466287E+03  0.00000000000E+00 0. -1.
         21   -1    0    0  501  502 -0.00000000000E+00 -0.00000000000E+00 -0.13942676973E+03  0.13942676973E+03  0.00000000000E+00 0. -1.
      99926    2    1    2    0    0  0.00000000000E+00  0.35527136788E-14  0.21913789313E+03  0.49799143260E+03  0.44718458240E+03 0.  0.
      99925    2    3    3    0    0  0.97604910193E+02 -0.27837782535E+02  0.10599404550E+03  0.30113946033E+03  0.26296116872E+03 0.  0.
         25    1    4    4    0    0  0.59956480705E+02  0.18356511608E+02  0.76510204501E+02  0.15947746107E+03  0.12509000000E+03 0.  0.
         25    1    3    3    0    0 -0.97604910193E+02  0.27837782535E+02  0.11314384763E+03  0.19685197227E+03  0.12509000000E+03 0.  0.
         25    1    4    4    0    0  0.37648429487E+02 -0.46194294143E+02  0.29483841000E+02  0.14166199926E+03  0.12509000000E+03 0.  0.
<mgrwt>
<rscale>  2 0.44718458E+03</rscale>
<asrwt>0</asrwt>
<pdfrwt beam="1">  1       21 0.52730097E-01 0.44718458E+03</pdfrwt>
<pdfrwt beam="2">  1       21 0.20503937E-01 0.44718458E+03</pdfrwt>
<totfact> 0.69632514E+04</totfact>
</mgrwt>
</event>
<event>
 7    0  0.4748297E-002  0.4505711E+03  0.7546771E-02  0.1027552E+00
         21   -1    0    0  502  501  0.00000000000E+00  0.00000000000E+00  0.17347407267E+04  0.17347407267E+04  0.00000000000E+00 0.  1.
         21   -1    0    0  501  502 -0.00000000000E+00 -0.00000000000E+00 -0.29257154753E+02  0.29257154753E+02  0.00000000000E+00 0.  1.
      99926    2    1    2    0    0  0.14210854715E-13  0.35527136788E-14  0.17054835720E+04  0.17639978815E+04  0.45057109493E+03 0.  0.
      99925    2    3    3    0    0 -0.91644060476E+02  0.26252789662E+02  0.86974177585E+03  0.91358639245E+03  0.26287163602E+03 0.  0.
         25    1    4    4    0    0 -0.87065479994E+02  0.44997962764E+01  0.48657647469E+03  0.50990667754E+03  0.12509000000E+03 0.  0.
         25    1    3    3    0    0  0.91644060476E+02 -0.26252789662E+02  0.83574179611E+03  0.85041148901E+03  0.12509000000E+03 0.  0.
         25    1    4    4    0    0 -0.45785804820E+01  0.21752993385E+02  0.38316530116E+03  0.40367971491E+03  0.12509000000E+03 0.  0.
<mgrwt>
<rscale>  2 0.45057109E+03</rscale>
<asrwt>0</asrwt>
<pdfrwt beam="1">  1       21 0.25510886E+00 0.45057109E+03</pdfrwt>
<pdfrwt beam="2">  1       21 0.43025239E-02 0.45057109E+03</pdfrwt>
<totfact> 0.18592724E+04</totfact>
</mgrwt>
</event>
<event>
 7    0  0.4748297E-002  0.4615267E+03  0.7546771E-02  0.1024339E+00
         21   -1    0    0  502  501  0.00000000000E+00  0.00000000000E+00  0.19426797740E+03  0.19426797740E+03  0.00000000000E+00 0. -1.
         21   -1    0    0  501  502 -0.00000000000E+00 -0.00000000000E+00 -0.27411480579E+03  0.27411480579E+03  0.00000000000E+00 0. -1.
      99926    2    1    2    0    0 -0.16653345369E-15  0.00000000000E+00 -0.79846828392E+02  0.46838278318E+03  0.46152672250E+03 0.  0.
      99925    2    3    3    0    0 -0.35139705980E+00  0.11899608366E+02  0.70559972013E+02  0.27239442162E+03  0.26282748548E+03 0.  0.
         25    1    3    3    0    0  0.35139705980E+00 -0.11899608366E+02 -0.15040680041E+03  0.19598836156E+03  0.12509000000E+03 0.  0.
         25    1    4    4    0    0  0.47693080590E+01  0.44868252057E+02  0.26146712917E+02  0.13552514541E+03  0.12509000000E+03 0.  0.
         25    1    4    4    0    0 -0.51207051188E+01 -0.32968643691E+02  0.44413259096E+02  0.13686927621E+03  0.12509000000E+03 0.  0.
<mgrwt>
<rscale>  2 0.46152672E+03</rscale>
<asrwt>0</asrwt>
<pdfrwt beam="1">  1       21 0.28568820E-01 0.46152672E+03</pdfrwt>
<pdfrwt beam="2">  1       21 0.40311001E-01 0.46152672E+03</pdfrwt>
<totfact> 0.64165457E+04</totfact>
</mgrwt>
</event>
<event>
 7    0  0.4748297E-002  0.4556165E+03  0.7546771E-02  0.1026060E+00
         21   -1    0    0  502  501  0.00000000000E+00  0.00000000000E+00  0.37404590842E+02  0.37404590842E+02  0.00000000000E+00 0.  1.
         21   -1    0    0  501  502 -0.00000000000E+00 -0.00000000000E+00 -0.13874389936E+04  0.13874389936E+04  0.00000000000E+00 0.  1.
      99926    2    1    2    0    0  0.00000000000E+00 -0.71054273576E-14 -0.13500344028E+04  0.14248435844E+04  0.45561645218E+03 0.  0.
      99925    2    3    3    0    0  0.10496174629E+03 -0.42796013385E+02 -0.82911531203E+03  0.87725553296E+03  0.26324247855E+03 0.  0.
         25    1    3    3    0    0 -0.10496174629E+03  0.42796013385E+02 -0.52091909073E+03  0.54758805149E+03  0.12509000000E+03 0.  0.
         25    1    4    4    0    0  0.29218618828E+02 -0.57562395097E+01 -0.48036657693E+03  0.49727901455E+03  0.12509000000E+03 0.  0.
         25    1    4    4    0    0  0.75743127462E+02 -0.37039773875E+02 -0.34874873510E+03  0.37997651841E+03  0.12509000000E+03 0.  0.
<mgrwt>
<rscale>  2 0.45561645E+03</rscale>
<asrwt>0</asrwt>
<pdfrwt beam="1">  1       21 0.55006760E-02 0.45561645E+03</pdfrwt>
<pdfrwt beam="2">  1       21 0.20403511E+00 0.45561645E+03</pdfrwt>
<totfact> 0.25554817E+04</totfact>
</mgrwt>
</event>
<event>
 7    0  0.4748297E-002  0.4750513E+03  0.7546771E-02  0.1020504E+00
         21   -1    0    0  502  501  0.00000000000E+00  0.00000000000E+00  0.31794711629E+02  0.31794711629E+02  0.00000000000E+00 0. -1.
         21   -1    0    0  501  502 -0.00000000000E+00 -0.00000000000E+00 -0.17744597403E+04  0.17744597403E+04  0.00000000000E+00 0. -1.
      99926    2    1    2    0    0 -0.14210854715E-13  0.00000000000E+00 -0.17426650287E+04  0.18062544520E+04  0.47505130561E+03 0.  0.
      99925    2    3    3    0    0 -0.64452528906E+02 -0.72909150779E+02 -0.14096813276E+04  0.14374787395E+04  0.26395796746E+03 0.  0.
         25    1    3    3    0    0  0.64452528906E+02  0.72909150779E+02 -0.33298370112E+03  0.36877571240E+03  0.12509000000E+03 0.  0.
         25    1    4    4    0    0 -0.58745796341E+02 -0.72534208543E+02 -0.79221423297E+03  0.80744236885E+03  0.12509000000E+03 0.  0.
         25    1    4    4    0    0 -0.57067325650E+01 -0.37494223613E+00 -0.61746709461E+03  0.63003637070E+03  0.12509000000E+03 0.  0.
<mgrwt>
<rscale>  2 0.47505131E+03</rscale>
<asrwt>0</asrwt>
<pdfrwt beam="1">  1       21 0.46756922E-02 0.47505131E+03</pdfrwt>
<pdfrwt beam="2">  1       21 0.26095000E+00 0.47505131E+03</pdfrwt>
<totfact> 0.14712572E+04</totfact>
</mgrwt>
</event>
<event>
 7    0  0.4748297E-002  0.4420802E+03  0.7546771E-02  0.1030110E+00
         21   -1    0    0  502  501  0.00000000000E+00  0.00000000000E+00  0.33531039338E+02  0.33531039338E+02  0.00000000000E+00 0.  1.
         21   -1    0    0  501  502 -0.00000000000E+00 -0.00000000000E+00 -0.14571196454E+04  0.14571196454E+04  0.00000000000E+00 0.  1.
      99926    2    1    2    0    0  0.00000000000E+00 -0.14210854715E-13 -0.14235886061E+04  0.14906506848E+04  0.44208024679E+03 0.  0.
      99925    2    3    3    0    0  0.46663166391E+02 -0.88149124400E+02 -0.89176755536E+03  0.93528696852E+03  0.26375105962E+03 0.  0.
         25    1    4    4    0    0  0.48877380242E+02 -0.68596427373E+02 -0.40016538086E+03  0.42763805757E+03  0.12509000000E+03 0.  0.
         25    1    3    3    0    0 -0.46663166391E+02  0.88149124400E+02 -0.53182105074E+03  0.55536371626E+03  0.12509000000E+03 0.  0.
         25    1    4    4    0    0 -0.22142138517E+01 -0.19552697027E+02 -0.49160217450E+03  0.50764891094E+03  0.12509000000E+03 0.  0.
<mgrwt>
<rscale>  2 0.44208025E+03</rscale>
<asrwt>0</asrwt>
<pdfrwt beam="1">  1       21 0.49310359E-02 0.44208025E+03</pdfrwt>
<pdfrwt beam="2">  1       21 0.21428227E+00 0.44208025E+03</pdfrwt>
<totfact> 0.26578129E+04</totfact>
</mgrwt>
</event>
<event>
 7    0  0.4748297E-002  0.4526187E+03  0.7546771E-02  0.1026944E+00
         21   -1    0    0  502  501  0.00000000000E+00  0.00000000000E+00  0.55113165637E+02  0.55113165637E+02  0.00000000000E+00 0. -1.
         21   -1    0    0  501  502 -0.00000000000E+00 -0.00000000000E+00 -0.92928635108E+03  0.92928635108E+03  0.00000000000E+00 0. -1.
      99926    2    1    2    0    0 -0.35527136788E-14  0.00000000000E+00 -0.87417318544E+03  0.98439951671E+03  0.45261865888E+03 0.  0.
      99925    2    3    3    0    0 -0.26752670399E+02 -0.10767959337E+03 -0.55839570404E+03  0.62708519282E+03  0.26290583212E+03 0.  0.
         25    1    4    4    0    0 -0.75812943203E+01 -0.61657844221E+02 -0.37024126410E+03  0.39570856387E+03  0.12509000000E+03 0.  0.
         25    1    3    3    0    0  0.26752670399E+02  0.10767959337E+03 -0.31577748140E+03  0.35731432389E+03  0.12509000000E+03 0.  0.
         25    1    4    4    0    0 -0.19171376079E+02 -0.46021749145E+02 -0.18815443995E+03  0.23137662896E+03  0.12509000000E+03 0.  0.
<mgrwt>
<rscale>  2 0.45261866E+03</rscale>
<asrwt>0</asrwt>
<pdfrwt beam="1">  1       21 0.81048774E-02 0.45261866E+03</pdfrwt>
<pdfrwt beam="2">  1       21 0.13665976E+00 0.45261866E+03</pdfrwt>
<totfact> 0.40527213E+04</totfact>
</mgrwt>
</event>
<event>
 7    0  0.4748297E-002  0.4545131E+03  0.7546771E-02  0.1026385E+00
         21   -1    0    0  502  501  0.00000000000E+00  0.00000000000E+00  0.32183925815E+03  0.32183925815E+03  0.00000000000E+00 0. -1.
         21   -1    0    0  501  502 -0.00000000000E+00 -0.00000000000E+00 -0.16046999884E+03  0.16046999884E+03  0.00000000000E+00 0. -1.
      99926    2    1    2    0    0  0.00000000000E+00  0.00000000000E+00  0.16136925931E+03  0.48230925700E+03  0.45451312581E+03 0.  0.
      99925    2    3    3    0    0  0.46814731924E+02  0.37084060371E+02  0.20317841616E+03  0.33752541689E+03  0.26282140627E+03 0.  0.
         25    1    3    3    0    0 -0.46814731924E+02 -0.37084060371E+02 -0.41809156853E+02  0.14478384010E+03  0.12509000000E+03 0.  0.
         25    1    4    4    0    0  0.47904944189E+02  0.22856038885E+02  0.14535814662E+03  0.19898186118E+03  0.12509000000E+03 0.  0.
         25    1    4    4    0    0 -0.10902122651E+01  0.14228021486E+02  0.57820269549E+02  0.13854355571E+03  0.12509000000E+03 0.  0.
<mgrwt>
<rscale>  2 0.45451313E+03</rscale>
<asrwt>0</asrwt>
<pdfrwt beam="1">  1       21 0.47329303E-01 0.45451313E+03</pdfrwt>
<pdfrwt beam="2">  1       21 0.23598529E-01 0.45451313E+03</pdfrwt>
<totfact> 0.66790144E+04</totfact>
</mgrwt>
</event>
<event>
 7    0  0.4748297E-002  0.4513037E+03  0.7546771E-02  0.1027334E+00
         21   -1    0    0  502  501  0.00000000000E+00  0.00000000000E+00  0.54949690252E+03  0.54949690252E+03  0.00000000000E+00 0.  1.
         21   -1    0    0  501  502 -0.00000000000E+00 -0.00000000000E+00 -0.92664307952E+02  0.92664307952E+02  0.00000000000E+00 0.  1.
      99926    2    1    2    0    0 -0.88817841970E-15  0.00000000000E+00  0.45683259457E+03  0.64216121048E+03  0.45130366803E+03 0.  0.
      99925    2    3    3    0    0  0.79094308976E+01  0.10935879005E+03  0.29015233971E+03  0.40667932260E+03  0.26301670505E+03 0.  0.
         25    1    3    3    0    0 -0.79094308976E+01 -0.10935879005E+03  0.16668025487E+03  0.23548188788E+03  0.12509000000E+03 0.  0.
         25    1    4    4    0    0  0.21765889737E+02  0.45910268570E+02  0.19283325510E+03  0.23540110256E+03  0.12509000000E+03 0.  0.
         25    1    4    4    0    0 -0.13856458839E+02  0.63448521475E+02  0.97319084608E+02  0.17127822003E+03  0.12509000000E+03 0.  0.
<mgrwt>
<rscale>  2 0.45130367E+03</rscale>
<asrwt>0</asrwt>
<pdfrwt beam="1">  1       21 0.80808367E-01 0.45130367E+03</pdfrwt>
<pdfrwt beam="2">  1       21 0.13627104E-01 0.45130367E+03</pdfrwt>
<totfact> 0.57823517E+04</totfact>
</mgrwt>
</event>
<event>
 7    0  0.4748297E-002  0.4532772E+03  0.7546771E-02  0.1026749E+00
         21   -1    0    0  502  501  0.00000000000E+00  0.00000000000E+00  0.33947788516E+03  0.33947788516E+03  0.00000000000E+00 0. -1.
         21   -1    0    0  501  502 -0.00000000000E+00 -0.00000000000E+00 -0.15130607149E+03  0.15130607149E+03  0.00000000000E+00 0. -1.
      99926    2    1    2    0    0  0.00000000000E+00  0.00000000000E+00  0.18817181368E+03  0.49078395665E+03  0.45327724479E+03 0.  0.
      99925    2    3    3    0    0  0.29938928645E+02 -0.96169546327E+01  0.23398191123E+03  0.35390847161E+03  0.26365668251E+03 0.  0.
         25    1    4    4    0    0  0.12843116963E+02  0.22076764265E+01  0.61962099027E+02  0.14020210164E+03  0.12509000000E+03 0.  0.
         25    1    4    4    0    0  0.17095811682E+02 -0.11824631059E+02  0.17201981220E+03  0.21370636997E+03  0.12509000000E+03 0.  0.
         25    1    3    3    0    0 -0.29938928645E+02  0.96169546327E+01 -0.45810097556E+02  0.13687548503E+03  0.12509000000E+03 0.  0.
<mgrwt>
<rscale>  2 0.45327724E+03</rscale>
<asrwt>0</asrwt>
<pdfrwt beam="1">  1       21 0.49923218E-01 0.45327724E+03</pdfrwt>
<pdfrwt beam="2">  1       21 0.22250893E-01 0.45327724E+03</pdfrwt>
<totfact> 0.66832448E+04</totfact>
</mgrwt>
</event>
<event>
 7    0  0.4748297E-002  0.4563076E+03  0.7546771E-02  0.1025858E+00
         21   -1    0    0  502  501  0.00000000000E+00  0.00000000000E+00  0.58684036089E+02  0.58684036089E+02  0.00000000000E+00 0.  1.
         21   -1    0    0  501  502 -0.00000000000E+00 -0.00000000000E+00 -0.88702419620E+03  0.88702419620E+03  0.00000000000E+00 0.  1.
      99926    2    1    2    0    0 -0.71054273576E-14  0.00000000000E+00 -0.82834016011E+03  0.94570823229E+03  0.45630761529E+03 0.  0.
      99925    2    3    3    0    0 -0.47316997698E+02 -0.62014748473E+02 -0.34764022320E+03  0.44291138987E+03  0.26311983428E+03 0.  0.
         25    1    3    3    0    0  0.47316997698E+02  0.62014748473E+02 -0.48069993691E+03  0.50279684242E+03  0.12509000000E+03 0.  0.
         25    1    4    4    0    0 -0.49652287785E+02 -0.56839986988E+02 -0.15366032907E+03  0.21202626873E+03  0.12509000000E+03 0.  0.
         25    1    4    4    0    0  0.23352900873E+01 -0.51747614852E+01 -0.19397989414E+03  0.23088512115E+03  0.12509000000E+03 0.  0.
<mgrwt>
<rscale>  2 0.45630762E+03</rscale>
<asrwt>0</asrwt>
<pdfrwt beam="1">  1       21 0.86300053E-02 0.45630762E+03</pdfrwt>
<pdfrwt beam="2">  1       21 0.13044473E+00 0.45630762E+03</pdfrwt>
<totfact> 0.40895285E+04</totfact>
</mgrwt>
</event>
<event>
 7    0  0.4748297E-002  0.4582113E+03  0.7546771E-02  0.1025301E+00
         21   -1    0    0  502  501  0.00000000000E+00  0.00000000000E+00  0.39670790579E+03  0.39670790579E+03  0.00000000000E+00 0.  1.
         21   -1    0    0  501  502 -0.00000000000E+00 -0.00000000000E+00 -0.13231248482E+03  0.13231248482E+03  0.00000000000E+00 0.  1.
      99926    2    1    2    0    0  0.00000000000E+00  0.00000000000E+00  0.26439542097E+03  0.52902039061E+03  0.45821134321E+03 0.  0.
      99925    2    3    3    0    0  0.28272961120E+02  0.85809826779E+01  0.29557586990E+03  0.39676033583E+03  0.26302219607E+03 0.  0.
         25    1    3    3    0    0 -0.28272961120E+02 -0.85809826779E+01 -0.31180448931E+02  0.13226005478E+03  0.12509000000E+03 0.  0.
         25    1    4    4    0    0  0.39341256494E+02  0.25945601421E+01  0.10294094925E+03  0.16672976140E+03  0.12509000000E+03 0.  0.
         25    1    4    4    0    0 -0.11068295375E+02  0.59864225358E+01  0.19263492066E+03  0.23003057443E+03  0.12509000000E+03 0.  0.
<mgrwt>
<rscale>  2 0.45821134E+03</rscale>
<asrwt>0</asrwt>
<pdfrwt beam="1">  1       21 0.58339398E-01 0.45821134E+03</pdfrwt>
<pdfrwt beam="2">  1       21 0.19457718E-01 0.45821134E+03</pdfrwt>
<totfact> 0.61687599E+04</totfact>
</mgrwt>
</event>
<event>
 7    0  0.4748297E-002  0.4523076E+03  0.7546771E-02  0.1027036E+00
         21   -1    0    0  502  501  0.00000000000E+00  0.00000000000E+00  0.48695408836E+03  0.48695408836E+03  0.00000000000E+00 0.  1.
         21   -1    0    0  501  502 -0.00000000000E+00 -0.00000000000E+00 -0.10503156212E+03  0.10503156212E+03  0.00000000000E+00 0.  1.
      99926    2    1    2    0    0  0.00000000000E+00  0.00000000000E+00  0.38192252623E+03  0.59198565048E+03  0.45230763241E+03 0.  0.
      99925    2    3    3    0    0 -0.99715274827E+02 -0.45973595840E+02  0.25877630861E+03  0.38493684811E+03  0.26297241602E+03 0.  0.
         25    1    4    4    0    0 -0.54887579293E+02  0.16770179681E+02  0.11497715401E+03  0.17933527074E+03  0.12509000000E+03 0.  0.
         25    1    4    4    0    0 -0.44827695534E+02 -0.62743775521E+02  0.14379915460E+03  0.20560157737E+03  0.12509000000E+03 0.  0.
         25    1    3    3    0    0  0.99715274827E+02  0.45973595840E+02  0.12314621762E+03  0.20704880237E+03  0.12509000000E+03 0.  0.
<mgrwt>
<rscale>  2 0.45230763E+03</rscale>
<asrwt>0</asrwt>
<pdfrwt beam="1">  1       21 0.71610895E-01 0.45230763E+03</pdfrwt>
<pdfrwt beam="2">  1       21 0.15445818E-01 0.45230763E+03</pdfrwt>
<totfact> 0.60450316E+04</totfact>
</mgrwt>
</event>
<event>
 7    0  0.4748297E-002  0.4552646E+03  0.7546771E-02  0.1026164E+00
         21   -1    0    0  502  501  0.00000000000E+00  0.00000000000E+00  0.23940733610E+03  0.23940733610E+03  0.00000000000E+00 0.  1.
         21   -1    0    0  501  502 -0.00000000000E+00 -0.00000000000E+00 -0.21643637070E+03  0.21643637070E+03  0.00000000000E+00 0.  1.
      99926    2    1    2    0    0  0.14210854715E-13  0.00000000000E+00  0.22970965406E+02  0.45584370680E+03  0.45526456021E+03 0.  0.
      99925    2    3    3    0    0 -0.93591658360E+02 -0.34816603341E+02 -0.39440433131E+02  0.28404648578E+03  0.26297388452E+03 0.  0.
         25    1    4    4    0    0 -0.98428615205E+01 -0.36684829277E+02 -0.19891778131E+02  0.13223407110E+03  0.12509000000E+03 0.  0.
         25    1    4    4    0    0 -0.83748796839E+02  0.18682259360E+01 -0.19548655000E+02  0.15181241469E+03  0.12509000000E+03 0.  0.
         25    1    3    3    0    0  0.93591658360E+02  0.34816603341E+02  0.62411398537E+02  0.17179722102E+03  0.12509000000E+03 0.  0.
<mgrwt>
<rscale>  2 0.45526456E+03</rscale>
<asrwt>0</asrwt>
<pdfrwt beam="1">  1       21 0.35206961E-01 0.45526456E+03</pdfrwt>
<pdfrwt beam="2">  1       21 0.31828878E-01 0.45526456E+03</pdfrwt>
<totfact> 0.68339684E+04</totfact>
</mgrwt>
</event>
<event>
 7    0  0.4748297E-002  0.4594274E+03  0.7546771E-02  0.1024947E+00
         21   -1    0    0  502  501  0.00000000000E+00  0.00000000000E+00  0.88888344775E+02  0.88888344775E+02  0.00000000000E+00 0.  1.
         21   -1    0    0  501  502 -0.00000000000E+00 -0.00000000000E+00 -0.59364790380E+03  0.59364790380E+03  0.00000000000E+00 0.  1.
      99926    2    1    2    0    0 -0.14210854715E-13 -0.14210854715E-13 -0.50475955902E+03  0.68253624857E+03  0.45942738076E+03 0.  0.
      99925    2    3    3    0    0 -0.73062305293E+02 -0.64039785103E+02 -0.21910443521E+03  0.35590870474E+03  0.26310655265E+03 0.  0.
         25    1    4    4    0    0 -0.76877829245E+02 -0.38873244738E+02 -0.10453126149E+03  0.18437901864E+03  0.12509000000E+03 0.  0.
         25    1    3    3    0    0  0.73062305293E+02  0.64039785103E+02 -0.28565512381E+03  0.32662754383E+03  0.12509000000E+03 0.  0.
         25    1    4    4    0    0  0.38155239524E+01 -0.25166540365E+02 -0.11457317372E+03  0.17152968610E+03  0.12509000000E+03 0.  0.
<mgrwt>
<rscale>  2 0.45942738E+03</rscale>
<asrwt>0</asrwt>
<pdfrwt beam="1">  1       21 0.13071815E-01 0.45942738E+03</pdfrwt>
<pdfrwt beam="2">  1       21 0.87301167E-01 0.45942738E+03</pdfrwt>
<totfact> 0.52023519E+04</totfact>
</mgrwt>
</event>
<event>
 7    0  0.4748297E-002  0.4560873E+03  0.7546771E-02  0.1025922E+00
         21   -1    0    0  502  501  0.00000000000E+00  0.00000000000E+00  0.21318753466E+03  0.21318753466E+03  0.00000000000E+00 0.  1.
         21   -1    0    0  501  502 -0.00000000000E+00 -0.00000000000E+00 -0.24393505959E+03  0.24393505959E+03  0.00000000000E+00 0.  1.
      99926    2    1    2    0    0  0.28421709430E-13 -0.17763568394E-14 -0.30747524933E+02  0.45712259426E+03  0.45608733362E+03 0.  0.
      99925    2    3    3    0    0 -0.98390367101E+02 -0.10938166732E+02 -0.76982470128E+02  0.29103380449E+03  0.26262914312E+03 0.  0.
         25    1    4    4    0    0 -0.66520163293E+02  0.27856557596E+02 -0.54757601527E+02  0.15442416570E+03  0.12509000000E+03 0.  0.
         25    1    3    3    0    0  0.98390367101E+02  0.10938166732E+02  0.46234945195E+02  0.16608878977E+03  0.12509000000E+03 0.  0.
         25    1    4    4    0    0 -0.31870203808E+02 -0.38794724328E+02 -0.22224868601E+02  0.13660963879E+03  0.12509000000E+03 0.  0.
<mgrwt>
<rscale>  2 0.45608733E+03</rscale>
<asrwt>0</asrwt>
<pdfrwt beam="1">  1       21 0.31351108E-01 0.45608733E+03</pdfrwt>
<pdfrwt beam="2">  1       21 0.35872803E-01 0.45608733E+03</pdfrwt>
<totfact> 0.67800487E+04</totfact>
</mgrwt>
</event>
<event>
 7    0  0.4748297E-002  0.4417331E+03  0.7546771E-02  0.1030216E+00
         21   -1    0    0  502  501  0.00000000000E+00  0.00000000000E+00  0.37779684257E+02  0.37779684257E+02  0.00000000000E+00 0.  1.
         21   -1    0    0  501  502 -0.00000000000E+00 -0.00000000000E+00 -0.12912241409E+04  0.12912241409E+04  0.00000000000E+00 0.  1.
      99926    2    1    2    0    0  0.00000000000E+00  0.00000000000E+00 -0.12534444566E+04  0.13290038251E+04  0.44173313368E+03 0.  0.
      99925    2    3    3    0    0  0.34787931901E+02  0.90008227062E+02 -0.87765983470E+03  0.92136026599E+03  0.26326084620E+03 0.  0.
         25    1    4    4    0    0  0.26732611007E+02  0.44880046105E+02 -0.31117596884E+03  0.33942133509E+03  0.12509000000E+03 0.  0.
         25    1    4    4    0    0  0.80553208935E+01  0.45128180957E+02 -0.56648386586E+03  0.58193893090E+03  0.12509000000E+03 0.  0.
         25    1    3    3    0    0 -0.34787931901E+02 -0.90008227062E+02 -0.37578462190E+03  0.40764355913E+03  0.12509000000E+03 0.  0.
<mgrwt>
<rscale>  2 0.44173313E+03</rscale>
<asrwt>0</asrwt>
<pdfrwt beam="1">  1       21 0.55558373E-02 0.44173313E+03</pdfrwt>
<pdfrwt beam="2">  1       21 0.18988586E+00 0.44173313E+03</pdfrwt>
<totfact> 0.31400314E+04</totfact>
</mgrwt>
</event>
<event>
 7    0  0.4748297E-002  0.4588532E+03  0.7546771E-02  0.1025114E+00
         21   -1    0    0  502  501  0.00000000000E+00  0.00000000000E+00  0.44969755745E+02  0.44969755745E+02  0.00000000000E+00 0. -1.
         21   -1    0    0  501  502 -0.00000000000E+00 -0.00000000000E+00 -0.11704881265E+04  0.11704881265E+04  0.00000000000E+00 0. -1.
      99926    2    1    2    0    0 -0.14210854715E-13  0.00000000000E+00 -0.11255183708E+04  0.12154578823E+04  0.45885320159E+03 0.  0.
      99925    2    3    3    0    0 -0.10356613018E+03  0.10646644179E+02 -0.84601370193E+03  0.89202371222E+03  0.26292170878E+03 0.  0.
         25    1    4    4    0    0 -0.80974153188E+02  0.29852649691E+02 -0.51378682304E+03  0.53579137900E+03  0.12509000000E+03 0.  0.
         25    1    3    3    0    0  0.10356613018E+03 -0.10646644179E+02 -0.27950466886E+03  0.32343417007E+03  0.12509000000E+03 0.  0.
         25    1    4    4    0    0 -0.22591976989E+02 -0.19206005511E+02 -0.33222687889E+03  0.35623233322E+03  0.12509000000E+03 0.  0.
<mgrwt>
<rscale>  2 0.45885320E+03</rscale>
<asrwt>0</asrwt>
<pdfrwt beam="1">  1       21 0.66131996E-02 0.45885320E+03</pdfrwt>
<pdfrwt beam="2">  1       21 0.17213060E+00 0.45885320E+03</pdfrwt>
<totfact> 0.30736937E+04</totfact>
</mgrwt>
</event>
<event>
 7    0  0.4748297E-002  0.4533082E+03  0.7546771E-02  0.1026740E+00
         21   -1    0    0  502  501  0.00000000000E+00  0.00000000000E+00  0.17649212250E+03  0.17649212250E+03  0.00000000000E+00 0. -1.
         21   -1    0    0  501  502 -0.00000000000E+00 -0.00000000000E+00 -0.29107290689E+03  0.29107290689E+03  0.00000000000E+00 0. -1.
      99926    2    1    2    0    0  0.00000000000E+00  0.00000000000E+00 -0.11458078439E+03  0.46756502939E+03  0.45330817394E+03 0.  0.
      99925    2    3    3    0    0 -0.12128330790E+02 -0.72895232338E+02 -0.15852340998E+03  0.31577809402E+03  0.26291694857E+03 0.  0.
         25    1    3    3    0    0  0.12128330790E+02  0.72895232338E+02  0.43942625589E+02  0.15178693537E+03  0.12509000000E+03 0.  0.
         25    1    4    4    0    0 -0.26810045837E+02 -0.42377008017E+02 -0.12034176692E+03  0.18067716605E+03  0.12509000000E+03 0.  0.
         25    1    4    4    0    0  0.14681715046E+02 -0.30518224321E+02 -0.38181643061E+02  0.13510092797E+03  0.12509000000E+03 0.  0.
<mgrwt>
<rscale>  2 0.45330817E+03</rscale>
<asrwt>0</asrwt>
<pdfrwt beam="1">  1       21 0.25954724E-01 0.45330817E+03</pdfrwt>
<pdfrwt beam="2">  1       21 0.42804839E-01 0.45330817E+03</pdfrwt>
<totfact> 0.68532430E+04</totfact>
</mgrwt>
</event>
<event>
 7    0  0.4748297E-002  0.4330213E+03  0.7546771E-02  0.1032910E+00
         21   -1    0    0  502  501  0.00000000000E+00  0.00000000000E+00  0.22282050468E+03  0.22282050468E+03  0.00000000000E+00 0. -1.
         21   -1    0    0  501  502 -0.00000000000E+00 -0.00000000000E+00 -0.21037947561E+03  0.21037947561E+03  0.00000000000E+00 0. -1.
      99926    2    1    2    0    0  0.35527136788E-14  0.00000000000E+00  0.12441029064E+02  0.43319998029E+03  0.43302129707E+03 0.  0.
      99925    2    3    3    0    0 -0.29027834365E+02 -0.85233919656E+02 -0.46266530712E+01  0.27813144673E+03  0.26311263655E+03 0.  0.
         25    1    4    4    0    0  0.13306014061E+02 -0.72951664548E+02  0.88840619498E-01  0.14541840105E+03  0.12509000000E+03 0.  0.
         25    1    3    3    0    0  0.29027834365E+02  0.85233919656E+02  0.17067682135E+02  0.15506853356E+03  0.12509000000E+03 0.  0.
         25    1    4    4    0    0 -0.42333848426E+02 -0.12282255108E+02 -0.47154936907E+01  0.13271304568E+03  0.12509000000E+03 0.  0.
<mgrwt>
<rscale>  2 0.43302130E+03</rscale>
<asrwt>0</asrwt>
<pdfrwt beam="1">  1       21 0.32767721E-01 0.43302130E+03</pdfrwt>
<pdfrwt beam="2">  1       21 0.30938158E-01 0.43302130E+03</pdfrwt>
<totfact> 0.83958792E+04</totfact>
</mgrwt>
</event>
<event>
 7    0  0.4748297E-002  0.4456748E+03  0.7546771E-02  0.1029020E+00
         21   -1    0    0  502  501  0.00000000000E+00  0.00000000000E+00  0.12518003004E+03  0.12518003004E+03  0.00000000000E+00 0. -1.
         21   -1    0    0  501  502 -0.00000000000E+00 -0.00000000000E+00 -0.39668082479E+03  0.39668082479E+03  0.00000000000E+00 0. -1.
      99926    2    1    2    0    0 -0.31086244690E-14 -0.71054273576E-14 -0.27150079475E+03  0.52186085483E+03  0.44567484812E+03 0.  0.
      99925    2    3    3    0    0 -0.23932727033E+01 -0.57665685493E+02 -0.70532172326E+02  0.27820750612E+03  0.26285655801E+03 0.  0.
         25    1    4    4    0    0 -0.38582955652E+02 -0.13917530406E+02 -0.30664073910E+02  0.13516706569E+03  0.12509000000E+03 0.  0.
         25    1    4    4    0    0  0.36189682948E+02 -0.43748155087E+02 -0.39868098415E+02  0.14304044042E+03  0.12509000000E+03 0.  0.
         25    1    3    3    0    0  0.23932727033E+01  0.57665685493E+02 -0.20096862243E+03  0.24365334871E+03  0.12509000000E+03 0.  0.
<mgrwt>
<rscale>  2 0.44567485E+03</rscale>
<asrwt>0</asrwt>
<pdfrwt beam="1">  1       21 0.18408828E-01 0.44567485E+03</pdfrwt>
<pdfrwt beam="2">  1       21 0.58335416E-01 0.44567485E+03</pdfrwt>
<totfact> 0.68698490E+04</totfact>
</mgrwt>
</event>
<event>
 7    0  0.4748297E-002  0.4555252E+03  0.7546771E-02  0.1026087E+00
         21   -1    0    0  502  501  0.00000000000E+00  0.00000000000E+00  0.26504781261E+03  0.26504781261E+03  0.00000000000E+00 0. -1.
         21   -1    0    0  501  502 -0.00000000000E+00 -0.00000000000E+00 -0.19572240528E+03  0.19572240528E+03  0.00000000000E+00 0. -1.
      99926    2    1    2    0    0  0.00000000000E+00  0.17763568394E-14  0.69325407330E+02  0.46077021789E+03  0.45552517120E+03 0.  0.
      99925    2    3    3    0    0 -0.25831991578E+02  0.11638648569E+02 -0.67725855614E+02  0.27306484582E+03  0.26301115675E+03 0.  0.
         25    1    4    4    0    0 -0.46885524021E+02 -0.16171747286E+02 -0.30575512906E+02  0.13799328919E+03  0.12509000000E+03 0.  0.
         25    1    3    3    0    0  0.25831991578E+02 -0.11638648569E+02  0.13705126294E+03  0.18770537207E+03  0.12509000000E+03 0.  0.
         25    1    4    4    0    0  0.21053532443E+02  0.27810395855E+02 -0.37150342708E+02  0.13507155663E+03  0.12509000000E+03 0.  0.
<mgrwt>
<rscale>  2 0.45552517E+03</rscale>
<asrwt>0</asrwt>
<pdfrwt beam="1">  1       21 0.38977620E-01 0.45552517E+03</pdfrwt>
<pdfrwt beam="2">  1       21 0.28782707E-01 0.45552517E+03</pdfrwt>
<totfact> 0.67839906E+04</totfact>
</mgrwt>
</event>
<event>
 7    0  0.4748297E-002  0.4571120E+03  0.7546771E-02  0.1025622E+00
         21   -1    0    0  502  501  0.00000000000E+00  0.00000000000E+00  0.56684260076E+02  0.56684260076E+02  0.00000000000E+00 0.  1.
         21   -1    0    0  501  502 -0.00000000000E+00 -0.00000000000E+00 -0.92155828396E+03  0.92155828396E+03  0.00000000000E+00 0.  1.
      99926    2    1    2    0    0  0.71054273576E-14  0.00000000000E+00 -0.86487402389E+03  0.97824254404E+03  0.45711201885E+03 0.  0.
      99925    2    3    3    0    0 -0.57103523596E+02 -0.76236762894E+02 -0.68166422871E+03  0.73681720657E+03  0.26298406562E+03 0.  0.
         25    1    4    4    0    0 -0.45860147997E+02 -0.45241711700E+02 -0.25838385859E+03  0.29421028556E+03  0.12509000000E+03 0.  0.
         25    1    3    3    0    0  0.57103523596E+02  0.76236762894E+02 -0.18320979518E+03  0.24142533747E+03  0.12509000000E+03 0.  0.
         25    1    4    4    0    0 -0.11243375599E+02 -0.30995051194E+02 -0.42328037012E+03  0.44260692100E+03  0.12509000000E+03 0.  0.
<mgrwt>
<rscale>  2 0.45711202E+03</rscale>
<asrwt>0</asrwt>
<pdfrwt beam="1">  1       21 0.83359209E-02 0.45711202E+03</pdfrwt>
<pdfrwt beam="2">  1       21 0.13552327E+00 0.45711202E+03</pdfrwt>
<totfact> 0.39363834E+04</totfact>
</mgrwt>
</event>
<event>
 7    0  0.4748297E-002  0.4546969E+03  0.7546771E-02  0.1026331E+00
         21   -1    0    0  502  501  0.00000000000E+00  0.00000000000E+00  0.10964985155E+04  0.10964985155E+04  0.00000000000E+00 0.  1.
         21   -1    0    0  501  502 -0.00000000000E+00 -0.00000000000E+00 -0.47138518312E+02  0.47138518312E+02  0.00000000000E+00 0.  1.
      99926    2    1    2    0    0  0.00000000000E+00  0.14210854715E-13  0.10493599972E+04  0.11436370338E+04  0.45469688960E+03 0.  0.
      99925    2    3    3    0    0 -0.54201893977E+02 -0.93805970235E+02  0.73966682403E+03  0.79250347666E+03  0.26309189380E+03 0.  0.
         25    1    4    4    0    0 -0.46334275905E+02 -0.81141830098E+02  0.45992552262E+03  0.48570552413E+03  0.12509000000E+03 0.  0.
         25    1    3    3    0    0  0.54201893977E+02  0.93805970235E+02  0.30969317320E+03  0.35113355719E+03  0.12509000000E+03 0.  0.
         25    1    4    4    0    0 -0.78676180719E+01 -0.12664140137E+02  0.27974130141E+03  0.30679795252E+03  0.12509000000E+03 0.  0.
<mgrwt>
<rscale>  2 0.45469689E+03</rscale>
<asrwt>0</asrwt>
<pdfrwt beam="1">  1       21 0.16124977E+00 0.45469689E+03</pdfrwt>
<pdfrwt beam="2">  1       21 0.69321358E-02 0.45469689E+03</pdfrwt>
<totfact> 0.34075961E+04</totfact>
</mgrwt>
</event>
<event>
 7    0  0.4748297E-002  0.4511658E+03  0.7546771E-02  0.1027375E+00
         21   -1    0    0  502  501  0.00000000000E+00  0.00000000000E+00  0.97955898105E+02  0.97955898105E+02  0.00000000000E+00 0.  1.
         21   -1    0    0  501  502 -0.00000000000E+00 -0.00000000000E+00 -0.51949536421E+03  0.51949536421E+03  0.00000000000E+00 0.  1.
      99926    2    1    2    0    0  0.00000000000E+00  0.00000000000E+00 -0.42153946611E+03  0.61745126231E+03  0.45116575651E+03 0.  0.
      99925    2    3    3    0    0  0.33865498383E+02  0.37979096464E+02 -0.13344137650E+03  0.29927316582E+03  0.26299913132E+03 0.  0.
         25    1    3    3    0    0 -0.33865498383E+02 -0.37979096464E+02 -0.28809808961E+03  0.31817809649E+03  0.12509000000E+03 0.  0.
         25    1    4    4    0    0  0.44991574711E+02  0.48817351006E+02 -0.64671977328E+02  0.15568348758E+03  0.12509000000E+03 0.  0.
         25    1    4    4    0    0 -0.11126076328E+02 -0.10838254542E+02 -0.68769399167E+02  0.14358967824E+03  0.12509000000E+03 0.  0.
<mgrwt>
<rscale>  2 0.45116576E+03</rscale>
<asrwt>0</asrwt>
<pdfrwt beam="1">  1       21 0.14405279E-01 0.45116576E+03</pdfrwt>
<pdfrwt beam="2">  1       21 0.76396377E-01 0.45116576E+03</pdfrwt>
<totfact> 0.59394835E+04</totfact>
</mgrwt>
</event>
<event>
 7    0  0.4748297E-002  0.4124252E+03  0.7546771E-02  0.1039560E+00
         21   -1    0    0  502  501  0.00000000000E+00  0.00000000000E+00  0.22865259479E+03  0.22865259479E+03  0.00000000000E+00 0.  1.
         21   -1    0    0  501  502 -0.00000000000E+00 -0.00000000000E+00 -0.18597484137E+03  0.18597484137E+03  0.00000000000E+00 0.  1.
      99926    2    1    2    0    0  0.00000000000E+00  0.00000000000E+00  0.42677753420E+02  0.41462743617E+03  0.41242516919E+03 0.  0.
      99925    2    3    3    0    0 -0.19081773416E+02 -0.20917701020E+02 -0.31575190120E+02  0.26642935245E+03  0.26303220891E+03 0.  0.
         25    1    4    4    0    0 -0.45447858234E+02 -0.25654751339E+02 -0.41916514319E+01  0.13560513311E+03  0.12509000000E+03 0.  0.
         25    1    3    3    0    0  0.19081773416E+02  0.20917701020E+02  0.74252943540E+02  0.14819808372E+03  0.12509000000E+03 0.  0.
         25    1    4    4    0    0  0.26366084819E+02  0.47370503190E+01 -0.27383538689E+02  0.13082421934E+03  0.12509000000E+03 0.  0.
<mgrwt>
<rscale>  2 0.41242517E+03</rscale>
<asrwt>0</asrwt>
<pdfrwt beam="1">  1       21 0.33625381E-01 0.41242517E+03</pdfrwt>
<pdfrwt beam="2">  1       21 0.27349242E-01 0.41242517E+03</pdfrwt>
<totfact> 0.10214156E+05</totfact>
</mgrwt>
</event>
<event>
 7    0  0.4748297E-002  0.4557333E+03  0.7546771E-02  0.1026026E+00
         21   -1    0    0  502  501  0.00000000000E+00  0.00000000000E+00  0.14814917734E+04  0.14814917734E+04  0.00000000000E+00 0. -1.
         21   -1    0    0  501  502 -0.00000000000E+00 -0.00000000000E+00 -0.35047919343E+02  0.35047919343E+02  0.00000000000E+00 0. -1.
      99926    2    1    2    0    0  0.00000000000E+00  0.38857805862E-15  0.14464438541E+04  0.15165396927E+04  0.45573327367E+03 0.  0.
      99925    2    3    3    0    0 -0.76251737491E+02  0.47618231091E+00  0.62874088485E+03  0.68581699041E+03  0.26308798877E+03 0.  0.
         25    1    4    4    0    0 -0.56142841516E+02 -0.30099718307E+02  0.37803870414E+03  0.40326019098E+03  0.12509000000E+03 0.  0.
         25    1    3    3    0    0  0.76251737491E+02 -0.47618231091E+00  0.81770296920E+03  0.83072270233E+03  0.12509000000E+03 0.  0.
         25    1    4    4    0    0 -0.20108895975E+02  0.30575900618E+02  0.25070218070E+03  0.28255679943E+03  0.12509000000E+03 0.  0.
<mgrwt>
<rscale>  2 0.45573327E+03</rscale>
<asrwt>0</asrwt>
<pdfrwt beam="1">  1       21 0.21786640E+00 0.45573327E+03</pdfrwt>
<pdfrwt beam="2">  1       21 0.51541068E-02 0.45573327E+03</pdfrwt>
<totfact> 0.23243993E+04</totfact>
</mgrwt>
</event>
<event>
 7    0  0.4748297E-002  0.4548291E+03  0.7546771E-02  0.1026292E+00
         21   -1    0    0  502  501  0.00000000000E+00  0.00000000000E+00  0.75015599854E+03  0.75015599854E+03  0.00000000000E+00 0. -1.
         21   -1    0    0  501  502 -0.00000000000E+00 -0.00000000000E+00 -0.68942149624E+02  0.68942149624E+02  0.00000000000E+00 0. -1.
      99926    2    1    2    0    0  0.00000000000E+00 -0.71054273576E-14  0.68121384891E+03  0.81909814816E+03  0.45482905401E+03 0.  0.
      99925    2    3    3    0    0  0.21872499463E+02 -0.61998885034E+02  0.59418282403E+03  0.65313376834E+03  0.26307455785E+03 0.  0.
         25    1    4    4    0    0  0.40690623800E+02 -0.16352542870E+02  0.35178599067E+03  0.37593087644E+03  0.12509000000E+03 0.  0.
         25    1    3    3    0    0 -0.21872499463E+02  0.61998885034E+02  0.87031024882E+02  0.16596437982E+03  0.12509000000E+03 0.  0.
         25    1    4    4    0    0 -0.18818124337E+02 -0.45646342165E+02  0.24239683336E+03  0.27720289190E+03  0.12509000000E+03 0.  0.
<mgrwt>
<rscale>  2 0.45482905E+03</rscale>
<asrwt>0</asrwt>
<pdfrwt beam="1">  1       21 0.11031705E+00 0.45482905E+03</pdfrwt>
<pdfrwt beam="2">  1       21 0.10138552E-01 0.45482905E+03</pdfrwt>
<totfact> 0.46917799E+04</totfact>
</mgrwt>
</event>
<event>
 7    0  0.4748297E-002  0.4548885E+03  0.7546771E-02  0.1026274E+00
         21   -1    0    0  502  501  0.00000000000E+00  0.00000000000E+00  0.10825866492E+04  0.10825866492E+04  0.00000000000E+00 0.  1.
         21   -1    0    0  501  502 -0.00000000000E+00 -0.00000000000E+00 -0.47784519285E+02  0.47784519285E+02  0.00000000000E+00 0.  1.
      99926    2    1    2    0    0 -0.71054273576E-14  0.17763568394E-14  0.10348021299E+04  0.11303711685E+04  0.45488848136E+03 0.  0.
      99925    2    3    3    0    0 -0.63106067392E+02  0.15265113162E+02  0.88123298707E+03  0.92193319414E+03  0.26300919665E+03 0.  0.
         25    1    4    4    0    0 -0.51629737600E+02 -0.20210846398E+02  0.37637792410E+03  0.40047716285E+03  0.12509000000E+03 0.  0.
         25    1    3    3    0    0  0.63106067392E+02 -0.15265113162E+02  0.15356914288E+03  0.20843797438E+03  0.12509000000E+03 0.  0.
         25    1    4    4    0    0 -0.11476329792E+02  0.35475959559E+02  0.50485506298E+03  0.52145603129E+03  0.12509000000E+03 0.  0.
<mgrwt>
<rscale>  2 0.45488848E+03</rscale>
<asrwt>0</asrwt>
<pdfrwt beam="1">  1       21 0.15920390E+00 0.45488848E+03</pdfrwt>
<pdfrwt beam="2">  1       21 0.70271359E-02 0.45488848E+03</pdfrwt>
<totfact> 0.34474496E+04</totfact>
</mgrwt>
</event>
<event>
 7    0  0.4748297E-002  0.4343771E+03  0.7546771E-02  0.1032486E+00
         21   -1    0    0  502  501  0.00000000000E+00  0.00000000000E+00  0.43563538163E+03  0.43563538163E+03  0.00000000000E+00 0. -1.
         21   -1    0    0  501  502 -0.00000000000E+00 -0.00000000000E+00 -0.10828062862E+03  0.10828062862E+03  0.00000000000E+00 0. -1.
      99926    2    1    2    0    0 -0.35527136788E-14  0.00000000000E+00  0.32735475301E+03  0.54391601025E+03  0.43437713095E+03 0.  0.
      99925    2    3    3    0    0  0.14678078296E+02  0.88466209035E+02  0.18218676196E+03  0.33234339896E+03  0.26309390429E+03 0.  0.
         25    1    4    4    0    0 -0.32742959864E+02  0.38473157149E+02  0.81641075707E+02  0.15768658340E+03  0.12509000000E+03 0.  0.
         25    1    4    4    0    0  0.47421038160E+02  0.49993051886E+02  0.10054568626E+03  0.17465681556E+03  0.12509000000E+03 0.  0.
         25    1    3    3    0    0 -0.14678078296E+02 -0.88466209035E+02  0.14516799104E+03  0.21157261129E+03  0.12509000000E+03 0.  0.
<mgrwt>
<rscale>  2 0.43437713E+03</rscale>
<asrwt>0</asrwt>
<pdfrwt beam="1">  1       21 0.64064026E-01 0.43437713E+03</pdfrwt>
<pdfrwt beam="2">  1       21 0.15923622E-01 0.43437713E+03</pdfrwt>
<totfact> 0.73559348E+04</totfact>
</mgrwt>
</event>
<event>
 7    0  0.4748297E-002  0.4634902E+03  0.7546771E-02  0.1023774E+00
         21   -1    0    0  502  501  0.00000000000E+00  0.00000000000E+00  0.37638902904E+03  0.37638902904E+03  0.00000000000E+00 0.  1.
         21   -1    0    0  501  502 -0.00000000000E+00 -0.00000000000E+00 -0.14268689173E+03  0.14268689173E+03  0.00000000000E+00 0.  1.
      99926    2    1    2    0    0  0.00000000000E+00  0.00000000000E+00  0.23370213731E+03  0.51907592076E+03  0.46349015365E+03 0.  0.
      99925    2    3    3    0    0 -0.10304483911E+03  0.43118631531E+01  0.75200502633E+02  0.29234456579E+03  0.26300836207E+03 0.  0.
         25    1    4    4    0    0 -0.89183726067E+02  0.10917424634E+01  0.62323213365E+02  0.16579089215E+03  0.12509000000E+03 0.  0.
         25    1    4    4    0    0 -0.13861113047E+02  0.32201206897E+01  0.12877289269E+02  0.12655367364E+03  0.12509000000E+03 0.  0.
         25    1    3    3    0    0  0.10304483911E+03 -0.43118631531E+01  0.15850163468E+03  0.22673135497E+03  0.12509000000E+03 0.  0.
<mgrwt>
<rscale>  2 0.46349015E+03</rscale>
<asrwt>0</asrwt>
<pdfrwt beam="1">  1       21 0.55351327E-01 0.46349015E+03</pdfrwt>
<pdfrwt beam="2">  1       21 0.20983367E-01 0.46349015E+03</pdfrwt>
<totfact> 0.59817523E+04</totfact>
</mgrwt>
</event>
<event>
 7    0  0.4748297E-002  0.4425679E+03  0.7546771E-02  0.1029962E+00
         21   -1    0    0  502  501  0.00000000000E+00  0.00000000000E+00  0.83310169265E+02  0.83310169265E+02  0.00000000000E+00 0. -1.
         21   -1    0    0  501  502 -0.00000000000E+00 -0.00000000000E+00 -0.58776254012E+03  0.58776254012E+03  0.00000000000E+00 0. -1.
      99926    2    1    2    0    0  0.00000000000E+00  0.00000000000E+00 -0.50445237086E+03  0.67107270939E+03  0.44256794599E+03 0.  0.
      99925    2    3    3    0    0  0.32139226513E+02 -0.60616835822E+02 -0.20884672856E+03  0.34283874631E+03  0.26308576410E+03 0.  0.
         25    1    4    4    0    0  0.35473726112E+02 -0.50197934814E+02 -0.14802890498E+03  0.20331818097E+03  0.12509000000E+03 0.  0.
         25    1    3    3    0    0 -0.32139226513E+02  0.60616835822E+02 -0.29560564229E+03  0.32823396308E+03  0.12509000000E+03 0.  0.
         25    1    4    4    0    0 -0.33344995991E+01 -0.10418901008E+02 -0.60817823587E+02  0.13952056534E+03  0.12509000000E+03 0.  0.
<mgrwt>
<rscale>  2 0.44256795E+03</rscale>
<asrwt>0</asrwt>
<pdfrwt beam="1">  1       21 0.12251496E-01 0.44256795E+03</pdfrwt>
<pdfrwt beam="2">  1       21 0.86435666E-01 0.44256795E+03</pdfrwt>
<totfact> 0.60182533E+04</totfact>
</mgrwt>
</event>
<event>
 7    0  0.4748297E-002  0.4569794E+03  0.7546771E-02  0.1025661E+00
         21   -1    0    0  502  501  0.00000000000E+00  0.00000000000E+00  0.29876070016E+03  0.29876070016E+03  0.00000000000E+00 0. -1.
         21   -1    0    0  501  502 -0.00000000000E+00 -0.00000000000E+00 -0.17474702344E+03  0.17474702344E+03  0.00000000000E+00 0. -1.
      99926    2    1    2    0    0  0.71054273576E-14  0.00000000000E+00  0.12401367672E+03  0.47350772360E+03  0.45697940029E+03 0.  0.
      99925    2    3    3    0    0  0.58728914392E+02  0.34666776597E+02  0.17405231246E+03  0.32250360461E+03  0.26279934689E+03 0.  0.
         25    1    3    3    0    0 -0.58728914392E+02 -0.34666776597E+02 -0.50038635740E+02  0.15100411899E+03  0.12509000000E+03 0.  0.
         25    1    4    4    0    0  0.15828229849E+00  0.62443334006E+01  0.11354526706E+03  0.16905340140E+03  0.12509000000E+03 0.  0.
         25    1    4    4    0    0  0.58570632094E+02  0.28422443196E+02  0.60507045396E+02  0.15345020321E+03  0.12509000000E+03 0.  0.
<mgrwt>
<rscale>  2 0.45697940E+03</rscale>
<asrwt>0</asrwt>
<pdfrwt beam="1">  1       21 0.43935397E-01 0.45697940E+03</pdfrwt>
<pdfrwt beam="2">  1       21 0.25698092E-01 0.45697940E+03</pdfrwt>
<totfact> 0.66131111E+04</totfact>
</mgrwt>
</event>
<event>
 7    0  0.4748297E-002  0.4506023E+03  0.7546771E-02  0.1027543E+00
         21   -1    0    0  502  501  0.00000000000E+00  0.00000000000E+00  0.26580894042E+03  0.26580894042E+03  0.00000000000E+00 0.  1.
         21   -1    0    0  501  502 -0.00000000000E+00 -0.00000000000E+00 -0.19096653323E+03  0.19096653323E+03  0.00000000000E+00 0.  1.
      99926    2    1    2    0    0  0.00000000000E+00  0.71054273576E-14  0.74842407184E+02  0.45677547365E+03  0.45060231625E+03 0.  0.
      99925    2    3    3    0    0 -0.87379471195E+02  0.63308158674E+02  0.62489384850E+02  0.29111558049E+03  0.26305942873E+03 0.  0.
         25    1    4    4    0    0 -0.33824675340E+02  0.64888778486E+02  0.10013166019E+02  0.14526676781E+03  0.12509000000E+03 0.  0.
         25    1    4    4    0    0 -0.53554795855E+02 -0.15806198116E+01  0.52476218831E+02  0.14584881268E+03  0.12509000000E+03 0.  0.
         25    1    3    3    0    0  0.87379471195E+02 -0.63308158674E+02  0.12353022334E+02  0.16565989316E+03  0.12509000000E+03 0.  0.
<mgrwt>
<rscale>  2 0.45060232E+03</rscale>
<asrwt>0</asrwt>
<pdfrwt beam="1">  1       21 0.39089550E-01 0.45060232E+03</pdfrwt>
<pdfrwt beam="2">  1       21 0.28083313E-01 0.45060232E+03</pdfrwt>
<totfact> 0.70869025E+04</totfact>
</mgrwt>
</event>
<event>
 7    0  0.4748297E-002  0.4309752E+03  0.7546771E-02  0.1033552E+00
         21   -1    0    0  502  501  0.00000000000E+00  0.00000000000E+00  0.16964100515E+04  0.16964100515E+04  0.00000000000E+00 0. -1.
         21   -1    0    0  501  502 -0.00000000000E+00 -0.00000000000E+00 -0.27372448813E+02  0.27372448813E+02  0.00000000000E+00 0. -1.
      99926    2    1    2    0    0 -0.26645352591E-14  0.14210854715E-13  0.16690376027E+04  0.17237825003E+04  0.43097516078E+03 0.  0.
      99925    2    3    3    0    0  0.25333725127E+01 -0.70301460852E+02  0.12916242285E+04  0.13200040010E+04  0.26299943289E+03 0.  0.
         25    1    4    4    0    0  0.24530524697E+02 -0.41300528877E+01  0.53993654454E+03  0.55479526332E+03  0.12509000000E+03 0.  0.
         25    1    3    3    0    0 -0.25333725127E+01  0.70301460852E+02  0.37741337424E+03  0.40377849934E+03  0.12509000000E+03 0.  0.
         25    1    4    4    0    0 -0.21997152184E+02 -0.66171407964E+02  0.75168768394E+03  0.76520873768E+03  0.12509000000E+03 0.  0.
<mgrwt>
<rscale>  2 0.43097516E+03</rscale>
<asrwt>0</asrwt>
<pdfrwt beam="1">  1       21 0.24947200E+00 0.43097516E+03</pdfrwt>
<pdfrwt beam="2">  1       21 0.40253613E-02 0.43097516E+03</pdfrwt>
<totfact> 0.22722179E+04</totfact>
</mgrwt>
</event>
<event>
 7    0  0.4748297E-002  0.4565230E+03  0.7546771E-02  0.1025795E+00
         21   -1    0    0  502  501  0.00000000000E+00  0.00000000000E+00  0.46484577551E+03  0.46484577551E+03  0.00000000000E+00 0. -1.
         21   -1    0    0  501  502 -0.00000000000E+00 -0.00000000000E+00 -0.11208728864E+03  0.11208728864E+03  0.00000000000E+00 0. -1.
      99926    2    1    2    0    0  0.00000000000E+00  0.00000000000E+00  0.35275848687E+03  0.57693306415E+03  0.45652295720E+03 0.  0.
      99925    2    3    3    0    0 -0.11015157705E+03 -0.19170234094E+02  0.25334332948E+03  0.38191575871E+03  0.26301318666E+03 0.  0.
         25    1    4    4    0    0 -0.41267601536E+02 -0.18446103140E+02  0.72485726169E+02  0.15147594613E+03  0.12509000000E+03 0.  0.
         25    1    4    4    0    0 -0.68883975515E+02 -0.72413095371E+00  0.18085760331E+03  0.23043981258E+03  0.12509000000E+03 0.  0.
         25    1    3    3    0    0  0.11015157705E+03  0.19170234094E+02  0.99415157391E+02  0.19501730544E+03  0.12509000000E+03 0.  0.
<mgrwt>
<rscale>  2 0.45652296E+03</rscale>
<asrwt>0</asrwt>
<pdfrwt beam="1">  1       21 0.68359672E-01 0.45652296E+03</pdfrwt>
<pdfrwt beam="2">  1       21 0.16483425E-01 0.45652296E+03</pdfrwt>
<totfact> 0.59402537E+04</totfact>
</mgrwt>
</event>
<event>
 7    0  0.4748297E-002  0.4706654E+03  0.7546771E-02  0.1021733E+00
         21   -1    0    0  502  501  0.00000000000E+00  0.00000000000E+00  0.94903246992E+03  0.94903246992E+03  0.00000000000E+00 0.  1.
         21   -1    0    0  501  502 -0.00000000000E+00 -0.00000000000E+00 -0.58355726355E+02  0.58355726355E+02  0.00000000000E+00 0.  1.
      99926    2    1    2    0    0  0.44408920985E-15  0.00000000000E+00  0.89067674356E+03  0.10073881963E+04  0.47066539756E+03 0.  0.
      99925    2    3    3    0    0  0.37928935530E+01 -0.57802343968E+02  0.31026323328E+03  0.41082902232E+03  0.26298614915E+03 0.  0.
         25    1    4    4    0    0  0.90832300055E+01 -0.10679530736E+01  0.19287154944E+03  0.23006648664E+03  0.12509000000E+03 0.  0.
         25    1    4    4    0    0 -0.52903364524E+01 -0.56734390894E+02  0.11739168384E+03  0.18076253567E+03  0.12509000000E+03 0.  0.
         25    1    3    3    0    0 -0.37928935530E+01  0.57802343968E+02  0.58041351028E+03  0.59655917396E+03  0.12509000000E+03 0.  0.
<mgrwt>
<rscale>  2 0.47066540E+03</rscale>
<asrwt>0</asrwt>
<pdfrwt beam="1">  1       21 0.13956359E+00 0.47066540E+03</pdfrwt>
<pdfrwt beam="2">  1       21 0.85817251E-02 0.47066540E+03</pdfrwt>
<totfact> 0.34467049E+04</totfact>
</mgrwt>
</event>
<event>
 7    0  0.4748297E-002  0.4585428E+03  0.7546771E-02  0.1025205E+00
         21   -1    0    0  502  501  0.00000000000E+00  0.00000000000E+00  0.79381616790E+03  0.79381616790E+03  0.00000000000E+00 0. -1.
         21   -1    0    0  501  502 -0.00000000000E+00 -0.00000000000E+00 -0.66218580268E+02  0.66218580268E+02  0.00000000000E+00 0. -1.
      99926    2    1    2    0    0  0.71054273576E-14 -0.71054273576E-14  0.72759758763E+03  0.86003474816E+03  0.45854282082E+03 0.  0.
      99925    2    3    3    0    0  0.36583082565E+02 -0.22816053850E+02  0.25349377579E+03  0.36781444510E+03  0.26300090764E+03 0.  0.
         25    1    4    4    0    0  0.84745364937E+01 -0.50492944168E+02  0.12176784669E+03  0.18192380759E+03  0.12509000000E+03 0.  0.
         25    1    4    4    0    0  0.28108546071E+02  0.27676890318E+02  0.13172592909E+03  0.18589063751E+03  0.12509000000E+03 0.  0.
         25    1    3    3    0    0 -0.36583082565E+02  0.22816053850E+02  0.47410381184E+03  0.49222030306E+03  0.12509000000E+03 0.  0.
<mgrwt>
<rscale>  2 0.45854282E+03</rscale>
<asrwt>0</asrwt>
<pdfrwt beam="1">  1       21 0.11673767E+00 0.45854282E+03</pdfrwt>
<pdfrwt beam="2">  1       21 0.97380269E-02 0.45854282E+03</pdfrwt>
<totfact> 0.43764844E+04</totfact>
</mgrwt>
</event>
<event>
 7    0  0.4748297E-002  0.4547569E+03  0.7546771E-02  0.1026313E+00
         21   -1    0    0  502  501  0.00000000000E+00  0.00000000000E+00  0.18864976959E+04  0.18864976959E+04  0.00000000000E+00 0.  1.
         21   -1    0    0  501  502 -0.00000000000E+00 -0.00000000000E+00 -0.27405785177E+02  0.27405785177E+02  0.00000000000E+00 0.  1.
      99926    2    1    2    0    0  0.00000000000E+00  0.00000000000E+00  0.18590919107E+04  0.19139034811E+04  0.45475686071E+03 0.  0.
      99925    2    3    3    0    0  0.10141239639E+03 -0.27614431364E+02  0.99596121617E+03  0.10354450956E+04  0.26298435507E+03 0.  0.
         25    1    3    3    0    0 -0.10141239639E+03  0.27614431364E+02  0.86313069454E+03  0.87845838542E+03  0.12509000000E+03 0.  0.
         25    1    4    4    0    0  0.31376318115E+02  0.10420347298E+02  0.36399364577E+03  0.38630549988E+03  0.12509000000E+03 0.  0.
         25    1    4    4    0    0  0.70036078277E+02 -0.38034778663E+02  0.63196757040E+03  0.64913959576E+03  0.12509000000E+03 0.  0.
<mgrwt>
<rscale>  2 0.45475686E+03</rscale>
<asrwt>0</asrwt>
<pdfrwt beam="1">  1       21 0.27742604E+00 0.45475686E+03</pdfrwt>
<pdfrwt beam="2">  1       21 0.40302638E-02 0.45475686E+03</pdfrwt>
<totfact> 0.15195408E+04</totfact>
</mgrwt>
</event>
<event>
 7    0  0.4748297E-002  0.4483731E+03  0.7546771E-02  0.1028208E+00
         21   -1    0    0  502  501  0.00000000000E+00  0.00000000000E+00  0.22894328113E+03  0.22894328113E+03  0.00000000000E+00 0. -1.
         21   -1    0    0  501  502 -0.00000000000E+00 -0.00000000000E+00 -0.21952860847E+03  0.21952860847E+03  0.00000000000E+00 0. -1.
      99926    2    1    2    0    0 -0.35527136788E-14 -0.14210854715E-13  0.94146726621E+01  0.44847188960E+03  0.44837305863E+03 0.  0.
      99925    2    3    3    0    0 -0.21820290057E+02 -0.81336245062E+02  0.71375754068E+02  0.28544307765E+03  0.26323286742E+03 0.  0.
         25    1    4    4    0    0  0.14596212837E+01 -0.34596569697E+01  0.15320874584E+02  0.12608067663E+03  0.12509000000E+03 0.  0.
         25    1    4    4    0    0 -0.23279911341E+02 -0.77876588093E+02  0.56054879485E+02  0.15936240102E+03  0.12509000000E+03 0.  0.
         25    1    3    3    0    0  0.21820290057E+02  0.81336245062E+02 -0.61961081406E+02  0.16302881196E+03  0.12509000000E+03 0.  0.
<mgrwt>
<rscale>  2 0.44837306E+03</rscale>
<asrwt>0</asrwt>
<pdfrwt beam="1">  1       21 0.33668130E-01 0.44837306E+03</pdfrwt>
<pdfrwt beam="2">  1       21 0.32283619E-01 0.44837306E+03</pdfrwt>
<totfact> 0.72800635E+04</totfact>
</mgrwt>
</event>
<event>
 7    0  0.4748297E-002  0.4544279E+03  0.7546771E-02  0.1026410E+00
         21   -1    0    0  502  501  0.00000000000E+00  0.00000000000E+00  0.12474579302E+03  0.12474579302E+03  0.00000000000E+00 0.  1.
         21   -1    0    0  501  502 -0.00000000000E+00 -0.00000000000E+00 -0.41385097396E+03  0.41385097396E+03  0.00000000000E+00 0.  1.
      99926    2    1    2    0    0  0.71054273576E-14  0.22204460493E-15 -0.28910518094E+03  0.53859676698E+03  0.45442785099E+03 0.  0.
      99925    2    3    3    0    0  0.61828119953E+02  0.61804869360E+00 -0.29373985204E+03  0.39898270366E+03  0.26283264397E+03 0.  0.
         25    1    3    3    0    0 -0.61828119953E+02 -0.61804869360E+00  0.46346711048E+01  0.13961406332E+03  0.12509000000E+03 0.  0.
         25    1    4    4    0    0  0.71993708719E+02 -0.35905787909E+01 -0.15283270364E+03  0.21024112289E+03  0.12509000000E+03 0.  0.
         25    1    4    4    0    0 -0.10165588766E+02  0.42086274845E+01 -0.14090714840E+03  0.18874158077E+03  0.12509000000E+03 0.  0.
<mgrwt>
<rscale>  2 0.45442785E+03</rscale>
<asrwt>0</asrwt>
<pdfrwt beam="1">  1       21 0.18344970E-01 0.45442785E+03</pdfrwt>
<pdfrwt beam="2">  1       21 0.60860437E-01 0.45442785E+03</pdfrwt>
<totfact> 0.62910778E+04</totfact>
</mgrwt>
</event>
<event>
 7    0  0.4748297E-002  0.4584968E+03  0.7546771E-02  0.1025218E+00
         21   -1    0    0  502  501  0.00000000000E+00  0.00000000000E+00  0.15084902501E+02  0.15084902501E+02  0.00000000000E+00 0.  1.
         21   -1    0    0  501  502 -0.00000000000E+00 -0.00000000000E+00 -0.34839361637E+04  0.34839361637E+04  0.00000000000E+00 0.  1.
      99926    2    1    2    0    0 -0.62172489379E-14  0.00000000000E+00 -0.34688512612E+04  0.34990210662E+04  0.45849683684E+03 0.  0.
      99925    2    3    3    0    0 -0.78182017948E+01 -0.86012675424E+02 -0.15782834981E+04  0.16023520705E+04  0.26285747577E+03 0.  0.
         25    1    4    4    0    0  0.33175687715E+02 -0.29911271861E+02 -0.70047400930E+03  0.71295627934E+03  0.12509000000E+03 0.  0.
         25    1    3    3    0    0  0.78182017948E+01  0.86012675424E+02 -0.18905677630E+04  0.18966689957E+04  0.12509000000E+03 0.  0.
         25    1    4    4    0    0 -0.40993889509E+02 -0.56101403563E+02 -0.87780948884E+03  0.88939579112E+03  0.12509000000E+03 0.  0.
<mgrwt>
<rscale>  2 0.45849684E+03</rscale>
<asrwt>0</asrwt>
<pdfrwt beam="1">  1       21 0.22183650E-02 0.45849684E+03</pdfrwt>
<pdfrwt beam="2">  1       21 0.51234425E+00 0.45849684E+03</pdfrwt>
<totfact> 0.12562935E+03</totfact>
</mgrwt>
</event>
<event>
 7    0  0.4748297E-002  0.4688464E+03  0.7546771E-02  0.1022246E+00
         21   -1    0    0  502  501  0.00000000000E+00  0.00000000000E+00  0.13245417830E+03  0.13245417830E+03  0.00000000000E+00 0. -1.
         21   -1    0    0  501  502 -0.00000000000E+00 -0.00000000000E+00 -0.41489241606E+03  0.41489241606E+03  0.00000000000E+00 0. -1.
      99926    2    1    2    0    0  0.14210854715E-13  0.00000000000E+00 -0.28243823776E+03  0.54734659436E+03  0.46884638872E+03 0.  0.
      99925    2    3    3    0    0  0.82378224451E+02  0.77122588254E+02 -0.11096317742E+03  0.30696092528E+03  0.26301733293E+03 0.  0.
         25    1    4    4    0    0  0.82744833986E+02  0.46057855735E+02 -0.69169469646E+02  0.17146415735E+03  0.12509000000E+03 0.  0.
         25    1    3    3    0    0 -0.82378224451E+02 -0.77122588254E+02 -0.17147506033E+03  0.24038566908E+03  0.12509000000E+03 0.  0.
         25    1    4    4    0    0 -0.36660953412E+00  0.31064732520E+02 -0.41793707778E+02  0.13549676793E+03  0.12509000000E+03 0.  0.
<mgrwt>
<rscale>  2 0.46884639E+03</rscale>
<asrwt>0</asrwt>
<pdfrwt beam="1">  1       21 0.19478556E-01 0.46884639E+03</pdfrwt>
<pdfrwt beam="2">  1       21 0.61013590E-01 0.46884639E+03</pdfrwt>
<totfact> 0.55682275E+04</totfact>
</mgrwt>
</event>
<event>
 7    0  0.4748297E-002  0.4594029E+03  0.7546771E-02  0.1024955E+00
         21   -1    0    0  502  501  0.00000000000E+00  0.00000000000E+00  0.97873026401E+03  0.97873026401E+03  0.00000000000E+00 0. -1.
         21   -1    0    0  501  502 -0.00000000000E+00 -0.00000000000E+00 -0.53909398262E+02  0.53909398262E+02  0.00000000000E+00 0. -1.
      99926    2    1    2    0    0  0.14210854715E-13  0.88817841970E-15  0.92482086575E+03  0.10326396623E+04  0.45940291507E+03 0.  0.
      99925    2    3    3    0    0  0.11707277661E+03  0.54323669518E+01  0.58899697093E+03  0.65559756639E+03  0.26297374710E+03 0.  0.
         25    1    3    3    0    0 -0.11707277661E+03 -0.54323669518E+01  0.33582389482E+03  0.37704209588E+03  0.12509000000E+03 0.  0.
         25    1    4    4    0    0  0.25058861332E+02  0.92939027689E+01  0.32536891694E+03  0.34960944405E+03  0.12509000000E+03 0.  0.
         25    1    4    4    0    0  0.92013915278E+02 -0.38615358171E+01  0.26362805399E+03  0.30598812234E+03  0.12509000000E+03 0.  0.
<mgrwt>
<rscale>  2 0.45940292E+03</rscale>
<asrwt>0</asrwt>
<pdfrwt beam="1">  1       21 0.14393091E+00 0.45940292E+03</pdfrwt>
<pdfrwt beam="2">  1       21 0.79278533E-02 0.45940292E+03</pdfrwt>
<totfact> 0.36645045E+04</totfact>
</mgrwt>
</event>
<event>
 7    0  0.4748297E-002  0.4590320E+03  0.7546771E-02  0.1025062E+00
         21   -1    0    0  502  501  0.00000000000E+00  0.00000000000E+00  0.27004400041E+03  0.27004400041E+03  0.00000000000E+00 0. -1.
         21   -1    0    0  501  502 -0.00000000000E+00 -0.00000000000E+00 -0.19507037032E+03  0.19507037032E+03  0.00000000000E+00 0. -1.
      99926    2    1    2    0    0  0.00000000000E+00  0.00000000000E+00  0.74973630089E+02  0.46511437073E+03  0.45903195166E+03 0.  0.
      99925    2    3    3    0    0 -0.93111770543E+02  0.70258780382E+02  0.54327194363E+02  0.29283587107E+03  0.26305000533E+03 0.  0.
         25    1    3    3    0    0  0.93111770543E+02 -0.70258780382E+02  0.20646435726E+02  0.17227849965E+03  0.12509000000E+03 0.  0.
         25    1    4    4    0    0 -0.47915048279E+02  0.17624627637E+02 -0.11059000191E+02  0.13555917135E+03  0.12509000000E+03 0.  0.
         25    1    4    4    0    0 -0.45196722264E+02  0.52634152745E+02  0.65386194555E+02  0.15727669973E+03  0.12509000000E+03 0.  0.
<mgrwt>
<rscale>  2 0.45903195E+03</rscale>
<asrwt>0</asrwt>
<pdfrwt beam="1">  1       21 0.39712353E-01 0.45903195E+03</pdfrwt>
<pdfrwt beam="2">  1       21 0.28686819E-01 0.45903195E+03</pdfrwt>
<totfact> 0.65671358E+04</totfact>
</mgrwt>
</event>
<event>
 7    0  0.4748297E-002  0.4563778E+03  0.7546771E-02  0.1025837E+00
         21   -1    0    0  502  501  0.00000000000E+00  0.00000000000E+00  0.14359508034E+03  0.14359508034E+03  0.00000000000E+00 0.  1.
         21   -1    0    0  501  502 -0.00000000000E+00 -0.00000000000E+00 -0.36261803627E+03  0.36261803627E+03  0.00000000000E+00 0.  1.
      99926    2    1    2    0    0 -0.71054273576E-14  0.00000000000E+00 -0.21902295593E+03  0.50621311660E+03  0.45637776479E+03 0.  0.
      99925    2    3    3    0    0 -0.63623692963E+02  0.22639900920E+02 -0.24026932202E+03  0.36247914152E+03  0.26287115003E+03 0.  0.
         25    1    4    4    0    0  0.71184545730E+01  0.89267380095E+00 -0.12486783513E+03  0.17689249168E+03  0.12509000000E+03 0.  0.
         25    1    3    3    0    0  0.63623692963E+02 -0.22639900920E+02  0.21246366085E+02  0.14373397508E+03  0.12509000000E+03 0.  0.
         25    1    4    4    0    0 -0.70742147536E+02  0.21747227119E+02 -0.11540148688E+03  0.18558664984E+03  0.12509000000E+03 0.  0.
<mgrwt>
<rscale>  2 0.45637776E+03</rscale>
<asrwt>0</asrwt>
<pdfrwt beam="1">  1       21 0.21116924E-01 0.45637776E+03</pdfrwt>
<pdfrwt beam="2">  1       21 0.53326181E-01 0.45637776E+03</pdfrwt>
<totfact> 0.64132140E+04</totfact>
</mgrwt>
</event>
<event>
 7    0  0.4748297E-002  0.4470164E+03  0.7546771E-02  0.1028616E+00
         21   -1    0    0  502  501  0.00000000000E+00  0.00000000000E+00  0.39274607257E+02  0.39274607257E+02  0.00000000000E+00 0. -1.
         21   -1    0    0  501  502 -0.00000000000E+00 -0.00000000000E+00 -0.12719646695E+04  0.12719646695E+04  0.00000000000E+00 0. -1.
      99926    2    1    2    0    0  0.00000000000E+00 -0.26645352591E-14 -0.12326900623E+04  0.13112392768E+04  0.44701638825E+03 0.  0.
      99925    2    3    3    0    0  0.62210457387E+02 -0.19363613153E+01 -0.10313576923E+04  0.10661757711E+04  0.26297945735E+03 0.  0.
         25    1    4    4    0    0  0.11919918793E+02 -0.36588100406E+02 -0.51851252751E+03  0.53477427279E+03  0.12509000000E+03 0.  0.
         25    1    4    4    0    0  0.50290538594E+02  0.34651739091E+02 -0.51284516480E+03  0.53140149836E+03  0.12509000000E+03 0.  0.
         25    1    3    3    0    0 -0.62210457387E+02  0.19363613153E+01 -0.20133236997E+03  0.24506350565E+03  0.12509000000E+03 0.  0.
<mgrwt>
<rscale>  2 0.44701639E+03</rscale>
<asrwt>0</asrwt>
<pdfrwt beam="1">  1       21 0.57756781E-02 0.44701639E+03</pdfrwt>
<pdfrwt beam="2">  1       21 0.18705361E+00 0.44701639E+03</pdfrwt>
<totfact> 0.30649135E+04</totfact>
</mgrwt>
</event>
<event>
 7    0  0.4748297E-002  0.4571980E+03  0.7546771E-02  0.1025597E+00
         21   -1    0    0  502  501  0.00000000000E+00  0.00000000000E+00  0.46054902083E+03  0.46054902083E+03  0.00000000000E+00 0. -1.
         21   -1    0    0  501  502 -0.00000000000E+00 -0.00000000000E+00 -0.11346781983E+03  0.11346781983E+03  0.00000000000E+00 0. -1.
      99926    2    1    2    0    0  0.35527136788E-14  0.00000000000E+00  0.34708120100E+03  0.57401684065E+03  0.45719795851E+03 0.  0.
      99925    2    3    3    0    0  0.22912724236E+02  0.12334709476E+02  0.77275193232E+02  0.27548723087E+03  0.26314372669E+03 0.  0.
         25    1    4    4    0    0 -0.28924580410E+02  0.90744438329E+01  0.31413456474E+02  0.13248883059E+03  0.12509000000E+03 0.  0.
         25    1    4    4    0    0  0.51837304646E+02  0.32602656435E+01  0.45861736759E+02  0.14299840028E+03  0.12509000000E+03 0.  0.
         25    1    3    3    0    0 -0.22912724236E+02 -0.12334709476E+02  0.26980600777E+03  0.29852960978E+03  0.12509000000E+03 0.  0.
<mgrwt>
<rscale>  2 0.45719796E+03</rscale>
<asrwt>0</asrwt>
<pdfrwt beam="1">  1       21 0.67727796E-01 0.45719796E+03</pdfrwt>
<pdfrwt beam="2">  1       21 0.16686444E-01 0.45719796E+03</pdfrwt>
<totfact> 0.59269990E+04</totfact>
</mgrwt>
</event>
<event>
 7    0  0.4748297E-002  0.4557207E+03  0.7546771E-02  0.1026030E+00
         21   -1    0    0  502  501  0.00000000000E+00  0.00000000000E+00  0.10543874226E+03  0.10543874226E+03  0.00000000000E+00 0. -1.
         21   -1    0    0  501  502 -0.00000000000E+00 -0.00000000000E+00 -0.49242186486E+03  0.49242186486E+03  0.00000000000E+00 0. -1.
      99926    2    1    2    0    0  0.00000000000E+00  0.00000000000E+00 -0.38698312261E+03  0.59786060712E+03  0.45572071311E+03 0.  0.
      99925    2    3    3    0    0 -0.50098420911E+02  0.29957790579E+02 -0.11503170778E+03  0.29288126172E+03  0.26294451634E+03 0.  0.
         25    1    4    4    0    0 -0.18717662463E+02  0.33804807891E+02 -0.19558187926E+02  0.13237502310E+03  0.12509000000E+03 0.  0.
         25    1    3    3    0    0  0.50098420911E+02 -0.29957790579E+02 -0.27195141483E+03  0.30497934540E+03  0.12509000000E+03 0.  0.
         25    1    4    4    0    0 -0.31380758448E+02 -0.38470173120E+01 -0.95473519853E+02  0.16050623862E+03  0.12509000000E+03 0.  0.
<mgrwt>
<rscale>  2 0.45572071E+03</rscale>
<asrwt>0</asrwt>
<pdfrwt beam="1">  1       21 0.15505697E-01 0.45572071E+03</pdfrwt>
<pdfrwt beam="2">  1       21 0.72414981E-01 0.45572071E+03</pdfrwt>
<totfact> 0.58476415E+04</totfact>
</mgrwt>
</event>
<event>
 7    0  0.4748297E-002  0.4411020E+03  0.7546771E-02  0.1030409E+00
         21   -1    0    0  502  501  0.00000000000E+00  0.00000000000E+00  0.63341010690E+03  0.63341010690E+03  0.00000000000E+00 0.  1.
         21   -1    0    0  501  502 -0.00000000000E+00 -0.00000000000E+00 -0.76795033607E+02  0.76795033607E+02  0.00000000000E+00 0.  1.
      99926    2    1    2    0    0 -0.17763568394E-14  0.00000000000E+00  0.55661507329E+03  0.71020514051E+03  0.44110203104E+03 0.  0.
      99925    2    3    3    0    0  0.22373553360E+01 -0.84187265543E+01  0.51464116204E+03  0.57797353293E+03  0.26291062814E+03 0.  0.
         25    1    3    3    0    0 -0.22373553360E+01  0.84187265543E+01  0.41973911252E+02  0.13223160757E+03  0.12509000000E+03 0.  0.
         25    1    4    4    0    0 -0.14578870678E+02  0.29530019612E+02  0.22022727510E+03  0.25540580715E+03  0.12509000000E+03 0.  0.
         25    1    4    4    0    0  0.16816226014E+02 -0.37948746166E+02  0.29441388694E+03  0.32256772578E+03  0.12509000000E+03 0.  0.
<mgrwt>
<rscale>  2 0.44110203E+03</rscale>
<asrwt>0</asrwt>
<pdfrwt beam="1">  1       21 0.93148542E-01 0.44110203E+03</pdfrwt>
<pdfrwt beam="2">  1       21 0.11293388E-01 0.44110203E+03</pdfrwt>
<totfact> 0.58490246E+04</totfact>
</mgrwt>
</event>
<event>
 7    0  0.4748297E-002  0.4552063E+03  0.7546771E-02  0.1026181E+00
         21   -1    0    0  502  501  0.00000000000E+00  0.00000000000E+00  0.53736270443E+03  0.53736270443E+03  0.00000000000E+00 0. -1.
         21   -1    0    0  501  502 -0.00000000000E+00 -0.00000000000E+00 -0.96402670174E+02  0.96402670174E+02  0.00000000000E+00 0. -1.
      99926    2    1    2    0    0  0.00000000000E+00 -0.71054273576E-14  0.44096003426E+03  0.63376537461E+03  0.45520632491E+03 0.  0.
      99925    2    3    3    0    0  0.91619764349E+02 -0.41178467016E+02  0.35053838656E+03  0.44960938139E+03  0.26302393050E+03 0.  0.
         25    1    3    3    0    0 -0.91619764349E+02  0.41178467016E+02  0.90421647695E+02  0.18415599321E+03  0.12509000000E+03 0.  0.
         25    1    4    4    0    0  0.18006344032E+02 -0.35226068890E+02  0.20917029474E+03  0.24691056003E+03  0.12509000000E+03 0.  0.
         25    1    4    4    0    0  0.73613420317E+02 -0.59523981259E+01  0.14136809182E+03  0.20269882136E+03  0.12509000000E+03 0.  0.
<mgrwt>
<rscale>  2 0.45520632E+03</rscale>
<asrwt>0</asrwt>
<pdfrwt beam="1">  1       21 0.79023925E-01 0.45520632E+03</pdfrwt>
<pdfrwt beam="2">  1       21 0.14176864E-01 0.45520632E+03</pdfrwt>
<totfact> 0.56554438E+04</totfact>
</mgrwt>
</event>
<event>
 7    0  0.4748297E-002  0.4564795E+03  0.7546771E-02  0.1025807E+00
         21   -1    0    0  502  501  0.00000000000E+00  0.00000000000E+00  0.98117295025E+03  0.98117295025E+03  0.00000000000E+00 0. -1.
         21   -1    0    0  501  502 -0.00000000000E+00 -0.00000000000E+00 -0.53092967881E+02  0.53092967881E+02  0.00000000000E+00 0. -1.
      99926    2    1    2    0    0  0.00000000000E+00  0.00000000000E+00  0.92807998237E+03  0.10342659181E+04  0.45647950199E+03 0.  0.
      99925    2    3    3    0    0  0.91003342946E+02 -0.42755523656E+02  0.46101818333E+03  0.54039966553E+03  0.26340916825E+03 0.  0.
         25    1    4    4    0    0  0.13630913348E+02 -0.26520359680E+02  0.16258648953E+03  0.20729449089E+03  0.12509000000E+03 0.  0.
         25    1    3    3    0    0 -0.91003342946E+02  0.42755523656E+02  0.46706179904E+03  0.49386625260E+03  0.12509000000E+03 0.  0.
         25    1    4    4    0    0  0.77372429597E+02 -0.16235163976E+02  0.29843169379E+03  0.33310517464E+03  0.12509000000E+03 0.  0.
<mgrwt>
<rscale>  2 0.45647950E+03</rscale>
<asrwt>0</asrwt>
<pdfrwt beam="1">  1       21 0.14429013E+00 0.45647950E+03</pdfrwt>
<pdfrwt beam="2">  1       21 0.78077900E-02 0.45647950E+03</pdfrwt>
<totfact> 0.37425943E+04</totfact>
</mgrwt>
</event>
<event>
 7    0  0.4748297E-002  0.4536643E+03  0.7546771E-02  0.1026635E+00
         21   -1    0    0  502  501  0.00000000000E+00  0.00000000000E+00  0.36169214835E+02  0.36169214835E+02  0.00000000000E+00 0. -1.
         21   -1    0    0  501  502 -0.00000000000E+00 -0.00000000000E+00 -0.14225581951E+04  0.14225581951E+04  0.00000000000E+00 0. -1.
      99926    2    1    2    0    0  0.14210854715E-13  0.00000000000E+00 -0.13863889802E+04  0.14587274099E+04  0.45366425018E+03 0.  0.
      99925    2    3    3    0    0  0.68231154815E+02  0.35949630393E+02 -0.61274644057E+03  0.67125159841E+03  0.26300692295E+03 0.  0.
         25    1    3    3    0    0 -0.68231154815E+02 -0.35949630393E+02 -0.77364253965E+03  0.78747581148E+03  0.12509000000E+03 0.  0.
         25    1    4    4    0    0  0.22677768624E+02  0.56062523530E+02 -0.29086626473E+03  0.32234760709E+03  0.12509000000E+03 0.  0.
         25    1    4    4    0    0  0.45553386191E+02 -0.20112893137E+02 -0.32188017584E+03  0.34890399132E+03  0.12509000000E+03 0.  0.
<mgrwt>
<rscale>  2 0.45366425E+03</rscale>
<asrwt>0</asrwt>
<pdfrwt beam="1">  1       21 0.53190038E-02 0.45366425E+03</pdfrwt>
<pdfrwt beam="2">  1       21 0.20919967E+00 0.45366425E+03</pdfrwt>
<totfact> 0.25067227E+04</totfact>
</mgrwt>
</event>
<event>
 7    0  0.4748297E-002  0.3896348E+03  0.7546771E-02  0.1047429E+00
         21   -1    0    0  502  501  0.00000000000E+00  0.00000000000E+00  0.80713825479E+02  0.80713825479E+02  0.00000000000E+00 0.  1.
         21   -1    0    0  501  502 -0.00000000000E+00 -0.00000000000E+00 -0.47022698591E+03  0.47022698591E+03  0.00000000000E+00 0.  1.
      99926    2    1    2    0    0  0.00000000000E+00  0.57731597281E-14 -0.38951316043E+03  0.55094081139E+03  0.38963479761E+03 0.  0.
      99925    2    3    3    0    0  0.15298821675E+02  0.21681999151E+01 -0.25589596569E+03  0.36725679503E+03  0.26297538517E+03 0.  0.
         25    1    3    3    0    0 -0.15298821675E+02 -0.21681999151E+01 -0.13361719474E+03  0.18368401636E+03  0.12509000000E+03 0.  0.
         25    1    4    4    0    0  0.83193068528E+01  0.39987174762E+02 -0.14405344577E+03  0.19510788900E+03  0.12509000000E+03 0.  0.
         25    1    4    4    0    0  0.69795148219E+01 -0.37818974847E+02 -0.11184251992E+03  0.17214890603E+03  0.12509000000E+03 0.  0.
<mgrwt>
<rscale>  2 0.38963480E+03</rscale>
<asrwt>0</asrwt>
<pdfrwt beam="1">  1       21 0.11869680E-01 0.38963480E+03</pdfrwt>
<pdfrwt beam="2">  1       21 0.69151029E-01 0.38963480E+03</pdfrwt>
<totfact> 0.10751799E+05</totfact>
</mgrwt>
</event>
<event>
 7    0  0.4748297E-002  0.4584036E+03  0.7546771E-02  0.1025245E+00
         21   -1    0    0  502  501  0.00000000000E+00  0.00000000000E+00  0.47308560824E+03  0.47308560824E+03  0.00000000000E+00 0.  1.
         21   -1    0    0  501  502 -0.00000000000E+00 -0.00000000000E+00 -0.11104431990E+03  0.11104431990E+03  0.00000000000E+00 0.  1.
      99926    2    1    2    0    0 -0.44408920985E-15 -0.14210854715E-13  0.36204128834E+03  0.58412992814E+03  0.45840361963E+03 0.  0.
      99925    2    3    3    0    0 -0.27535171405E+01 -0.51469545031E+02  0.94199185575E+02  0.28405727688E+03  0.26297975980E+03 0.  0.
         25    1    4    4    0    0  0.33579617151E+01  0.15257644523E+02  0.45828514173E+02  0.13413363648E+03  0.12509000000E+03 0.  0.
         25    1    4    4    0    0 -0.61114788557E+01 -0.66727189553E+02  0.48370671402E+02  0.14992364040E+03  0.12509000000E+03 0.  0.
         25    1    3    3    0    0  0.27535171405E+01  0.51469545031E+02  0.26784210276E+03  0.30007265126E+03  0.12509000000E+03 0.  0.
<mgrwt>
<rscale>  2 0.45840362E+03</rscale>
<asrwt>0</asrwt>
<pdfrwt beam="1">  1       21 0.69571413E-01 0.45840362E+03</pdfrwt>
<pdfrwt beam="2">  1       21 0.16330047E-01 0.45840362E+03</pdfrwt>
<totfact> 0.58087199E+04</totfact>
</mgrwt>
</event>
<event>
 7    0  0.4748297E-002  0.4526042E+03  0.7546771E-02  0.1026948E+00
         21   -1    0    0  502  501  0.00000000000E+00  0.00000000000E+00  0.79688384845E+03  0.79688384845E+03  0.00000000000E+00 0.  1.
         21   -1    0    0  501  502 -0.00000000000E+00 -0.00000000000E+00 -0.64266122522E+02  0.64266122522E+02  0.00000000000E+00 0.  1.
      99926    2    1    2    0    0  0.00000000000E+00  0.14210854715E-13  0.73261772593E+03  0.86114997097E+03  0.45260417603E+03 0.  0.
      99925    2    3    3    0    0  0.69276965805E+02 -0.85850315891E+02  0.43683171203E+03  0.52158193825E+03  0.26278546182E+03 0.  0.
         25    1    4    4    0    0  0.26181035175E+02 -0.33350404858E+02  0.14049244494E+03  0.19282979877E+03  0.12509000000E+03 0.  0.
         25    1    4    4    0    0  0.43095930630E+02 -0.52499911033E+02  0.29633926709E+03  0.32875213948E+03  0.12509000000E+03 0.  0.
         25    1    3    3    0    0 -0.69276965805E+02  0.85850315891E+02  0.29578601389E+03  0.33956803272E+03  0.12509000000E+03 0.  0.
<mgrwt>
<rscale>  2 0.45260418E+03</rscale>
<asrwt>0</asrwt>
<pdfrwt beam="1">  1       21 0.11718880E+00 0.45260418E+03</pdfrwt>
<pdfrwt beam="2">  1       21 0.94509008E-02 0.45260418E+03</pdfrwt>
<totfact> 0.45799186E+04</totfact>
</mgrwt>
</event>
<event>
 7    0  0.4748297E-002  0.4573572E+03  0.7546771E-02  0.1025550E+00
         21   -1    0    0  502  501  0.00000000000E+00  0.00000000000E+00  0.16107343279E+03  0.16107343279E+03  0.00000000000E+00 0. -1.
         21   -1    0    0  501  502 -0.00000000000E+00 -0.00000000000E+00 -0.32465878206E+03  0.32465878206E+03  0.00000000000E+00 0. -1.
      99926    2    1    2    0    0 -0.71054273576E-14 -0.14210854715E-13 -0.16358534927E+03  0.48573221485E+03  0.45735721055E+03 0.  0.
      99925    2    3    3    0    0  0.49278593467E+02  0.10214713007E+03 -0.12560262727E+03  0.31266398776E+03  0.26290746150E+03 0.  0.
         25    1    4    4    0    0  0.43965174332E+02  0.88702937053E+02 -0.58004470371E+02  0.16974443814E+03  0.12509000000E+03 0.  0.
         25    1    3    3    0    0 -0.49278593467E+02 -0.10214713007E+03 -0.37982721999E+02  0.17306822708E+03  0.12509000000E+03 0.  0.
         25    1    4    4    0    0  0.53134191354E+01  0.13444193012E+02 -0.67598156902E+02  0.14291954963E+03  0.12509000000E+03 0.  0.
<mgrwt>
<rscale>  2 0.45735721E+03</rscale>
<asrwt>0</asrwt>
<pdfrwt beam="1">  1       21 0.23687270E-01 0.45735721E+03</pdfrwt>
<pdfrwt beam="2">  1       21 0.47743938E-01 0.45735721E+03</pdfrwt>
<totfact> 0.65059200E+04</totfact>
</mgrwt>
</event>
<event>
 7    0  0.4748297E-002  0.4558774E+03  0.7546771E-02  0.1025984E+00
         21   -1    0    0  502  501  0.00000000000E+00  0.00000000000E+00  0.17612168234E+03  0.17612168234E+03  0.00000000000E+00 0.  1.
         21   -1    0    0  501  502 -0.00000000000E+00 -0.00000000000E+00 -0.29500085723E+03  0.29500085723E+03  0.00000000000E+00 0.  1.
      99926    2    1    2    0    0  0.00000000000E+00  0.00000000000E+00 -0.11887917489E+03  0.47112253957E+03  0.45587738381E+03 0.  0.
      99925    2    3    3    0    0  0.29613175506E+01  0.11119813833E+03 -0.99688079047E+02  0.30263039842E+03  0.26319887837E+03 0.  0.
         25    1    3    3    0    0 -0.29613175506E+01 -0.11119813833E+03 -0.19191095846E+02  0.16849214115E+03  0.12509000000E+03 0.  0.
         25    1    4    4    0    0 -0.50892106820E+01  0.12113941341E+02 -0.38571488899E+02  0.13155955114E+03  0.12509000000E+03 0.  0.
         25    1    4    4    0    0  0.80505282325E+01  0.99084196991E+02 -0.61116590149E+02  0.17107084728E+03  0.12509000000E+03 0.  0.
<mgrwt>
<rscale>  2 0.45587738E+03</rscale>
<asrwt>0</asrwt>
<pdfrwt beam="1">  1       21 0.25900248E-01 0.45587738E+03</pdfrwt>
<pdfrwt beam="2">  1       21 0.43382479E-01 0.45587738E+03</pdfrwt>
<totfact> 0.66885547E+04</totfact>
</mgrwt>
</event>
<event>
 7    0  0.4748297E-002  0.4593032E+03  0.7546771E-02  0.1024984E+00
         21   -1    0    0  502  501  0.00000000000E+00  0.00000000000E+00  0.24090662604E+02  0.24090662604E+02  0.00000000000E+00 0. -1.
         21   -1    0    0  501  502 -0.00000000000E+00 -0.00000000000E+00 -0.21892236204E+04  0.21892236204E+04  0.00000000000E+00 0. -1.
      99926    2    1    2    0    0  0.00000000000E+00  0.00000000000E+00 -0.21651329578E+04  0.22133142830E+04  0.45930315743E+03 0.  0.
      99925    2    3    3    0    0 -0.10684657117E+03 -0.39894994356E+02 -0.12319093552E+04  0.12648620697E+04  0.26318737743E+03 0.  0.
         25    1    4    4    0    0 -0.55357065033E+02 -0.27635990486E+02 -0.44671727826E+03  0.46800853348E+03  0.12509000000E+03 0.  0.
         25    1    3    3    0    0  0.10684657117E+03  0.39894994356E+02 -0.93322360263E+03  0.94845221332E+03  0.12509000000E+03 0.  0.
         25    1    4    4    0    0 -0.51489506138E+02 -0.12259003870E+02 -0.78519207695E+03  0.79685353624E+03  0.12509000000E+03 0.  0.
<mgrwt>
<rscale>  2 0.45930316E+03</rscale>
<asrwt>0</asrwt>
<pdfrwt beam="1">  1       21 0.35427433E-02 0.45930316E+03</pdfrwt>
<pdfrwt beam="2">  1       21 0.32194476E+00 0.45930316E+03</pdfrwt>
<totfact> 0.10184735E+04</totfact>
</mgrwt>
</event>
<event>
 7    0  0.4748297E-002  0.4538860E+03  0.7546771E-02  0.1026569E+00
         21   -1    0    0  502  501  0.00000000000E+00  0.00000000000E+00  0.52719557131E+03  0.52719557131E+03  0.00000000000E+00 0. -1.
         21   -1    0    0  501  502 -0.00000000000E+00 -0.00000000000E+00 -0.97692655592E+02  0.97692655592E+02  0.00000000000E+00 0. -1.
      99926    2    1    2    0    0  0.00000000000E+00  0.14210854715E-13  0.42950291572E+03  0.62488822690E+03  0.45388604463E+03 0.  0.
      99925    2    3    3    0    0 -0.61189674577E+02 -0.89095087209E+02  0.22880002392E+03  0.36486655528E+03  0.26286125879E+03 0.  0.
         25    1    4    4    0    0 -0.29865091193E+02 -0.54665241575E+02  0.16708585011E+03  0.21781965410E+03  0.12509000000E+03 0.  0.
         25    1    4    4    0    0 -0.31324583384E+02 -0.34429845633E+02  0.61714173817E+02  0.14704690117E+03  0.12509000000E+03 0.  0.
         25    1    3    3    0    0  0.61189674577E+02  0.89095087209E+02  0.20070289179E+03  0.26002167162E+03  0.12509000000E+03 0.  0.
<mgrwt>
<rscale>  2 0.45388604E+03</rscale>
<asrwt>0</asrwt>
<pdfrwt beam="1">  1       21 0.77528759E-01 0.45388604E+03</pdfrwt>
<pdfrwt beam="2">  1       21 0.14366567E-01 0.45388604E+03</pdfrwt>
<totfact> 0.57677500E+04</totfact>
</mgrwt>
</event>
<event>
 7    0  0.4748297E-002  0.4587248E+03  0.7546771E-02  0.1025152E+00
         21   -1    0    0  502  501  0.00000000000E+00  0.00000000000E+00  0.72672460891E+02  0.72672460891E+02  0.00000000000E+00 0. -1.
         21   -1    0    0  501  502 -0.00000000000E+00 -0.00000000000E+00 -0.72389319496E+03  0.72389319496E+03  0.00000000000E+00 0. -1.
      99926    2    1    2    0    0 -0.71054273576E-14 -0.14210854715E-13 -0.65122073407E+03  0.79656565585E+03  0.45872475364E+03 0.  0.
      99925    2    3    3    0    0  0.36922429123E+02  0.10262709564E+03 -0.48250911963E+03  0.55990830127E+03  0.26227212732E+03 0.  0.
         25    1    4    4    0    0  0.19075700167E+02  0.32803919190E+02 -0.16034255257E+03  0.20687489387E+03  0.12509000000E+03 0.  0.
         25    1    3    3    0    0 -0.36922429123E+02 -0.10262709564E+03 -0.16871161443E+03  0.23665735458E+03  0.12509000000E+03 0.  0.
         25    1    4    4    0    0  0.17846728956E+02  0.69823176447E+02 -0.32216656706E+03  0.35303340740E+03  0.12509000000E+03 0.  0.
<mgrwt>
<rscale>  2 0.45872475E+03</rscale>
<asrwt>0</asrwt>
<pdfrwt beam="1">  1       21 0.10687127E-01 0.45872475E+03</pdfrwt>
<pdfrwt beam="2">  1       21 0.10645488E+00 0.45872475E+03</pdfrwt>
<totfact> 0.46555483E+04</totfact>
</mgrwt>
</event>
<event>
 7    0  0.4748297E-002  0.4584084E+03  0.7546771E-02  0.1025244E+00
         21   -1    0    0  502  501  0.00000000000E+00  0.00000000000E+00  0.84965000978E+02  0.84965000978E+02  0.00000000000E+00 0. -1.
         21   -1    0    0  501  502 -0.00000000000E+00 -0.00000000000E+00 -0.61830821446E+03  0.61830821446E+03  0.00000000000E+00 0. -1.
      99926    2    1    2    0    0  0.00000000000E+00  0.00000000000E+00 -0.53334321348E+03  0.70327321544E+03  0.45840836836E+03 0.  0.
      99925    2    3    3    0    0 -0.44970158293E+02  0.99065357075E+02 -0.27146112648E+03  0.39332806593E+03  0.26302008317E+03 0.  0.
         25    1    4    4    0    0 -0.11164448861E+02  0.81882794561E+01 -0.13199437873E+03  0.18237795085E+03  0.12509000000E+03 0.  0.
         25    1    3    3    0    0  0.44970158293E+02 -0.99065357075E+02 -0.26188208700E+03  0.30994514950E+03  0.12509000000E+03 0.  0.
         25    1    4    4    0    0 -0.33805709432E+02  0.90877077619E+02 -0.13946674775E+03  0.21095011509E+03  0.12509000000E+03 0.  0.
<mgrwt>
<rscale>  2 0.45840837E+03</rscale>
<asrwt>0</asrwt>
<pdfrwt beam="1">  1       21 0.12494853E-01 0.45840837E+03</pdfrwt>
<pdfrwt beam="2">  1       21 0.90927676E-01 0.45840837E+03</pdfrwt>
<totfact> 0.51334828E+04</totfact>
</mgrwt>
</event>
<event>
 7    0  0.4748297E-002  0.4548648E+03  0.7546771E-02  0.1026281E+00
         21   -1    0    0  502  501  0.00000000000E+00  0.00000000000E+00  0.53086612013E+03  0.53086612013E+03  0.00000000000E+00 0. -1.
         21   -1    0    0  501  502 -0.00000000000E+00 -0.00000000000E+00 -0.97436030210E+02  0.97436030210E+02  0.00000000000E+00 0. -1.
      99926    2    1    2    0    0  0.14210854715E-13  0.00000000000E+00  0.43343008992E+03  0.62830215034E+03  0.45486475932E+03 0.  0.
      99925    2    3    3    0    0 -0.99415291343E+02  0.16347217027E+02  0.20192502955E+03  0.34653498984E+03  0.26298697680E+03 0.  0.
         25    1    3    3    0    0  0.99415291343E+02 -0.16347217027E+02  0.23150506038E+03  0.28176716050E+03  0.12509000000E+03 0.  0.
         25    1    4    4    0    0 -0.85480743396E+02  0.31298636288E+02  0.10498637715E+03  0.18696579797E+03  0.12509000000E+03 0.  0.
         25    1    4    4    0    0 -0.13934547947E+02 -0.14951419260E+02  0.96938652399E+02  0.15956919187E+03  0.12509000000E+03 0.  0.
<mgrwt>
<rscale>  2 0.45486476E+03</rscale>
<asrwt>0</asrwt>
<pdfrwt beam="1">  1       21 0.78068546E-01 0.45486476E+03</pdfrwt>
<pdfrwt beam="2">  1       21 0.14328828E-01 0.45486476E+03</pdfrwt>
<totfact> 0.57030018E+04</totfact>
</mgrwt>
</event>
<event>
 7    0  0.4748297E-002  0.4544802E+03  0.7546771E-02  0.1026394E+00
         21   -1    0    0  502  501  0.00000000000E+00  0.00000000000E+00  0.51844672982E+02  0.51844672982E+02  0.00000000000E+00 0. -1.
         21   -1    0    0  501  502 -0.00000000000E+00 -0.00000000000E+00 -0.99601467142E+03  0.99601467142E+03  0.00000000000E+00 0. -1.
      99926    2    1    2    0    0 -0.35527136788E-14 -0.35527136788E-14 -0.94416999844E+03  0.10478593444E+04  0.45448016425E+03 0.  0.
      99925    2    3    3    0    0  0.27666478661E+02  0.21177294621E+02 -0.84133936722E+03  0.88222251678E+03  0.26315532756E+03 0.  0.
         25    1    4    4    0    0 -0.98464542503E+01  0.23196492077E+02 -0.51834373528E+03  0.53381903854E+03  0.12509000000E+03 0.  0.
         25    1    3    3    0    0 -0.27666478661E+02 -0.21177294621E+02 -0.10283063122E+03  0.16563682763E+03  0.12509000000E+03 0.  0.
         25    1    4    4    0    0  0.37512932911E+02 -0.20191974559E+01 -0.32299563194E+03  0.34840347824E+03  0.12509000000E+03 0.  0.
<mgrwt>
<rscale>  2 0.45448016E+03</rscale>
<asrwt>0</asrwt>
<pdfrwt beam="1">  1       21 0.76242172E-02 0.45448016E+03</pdfrwt>
<pdfrwt beam="2">  1       21 0.14647273E+00 0.45448016E+03</pdfrwt>
<totfact> 0.37507993E+04</totfact>
</mgrwt>
</event>
<event>
 7    0  0.4748297E-002  0.4557539E+03  0.7546771E-02  0.1026020E+00
         21   -1    0    0  502  501  0.00000000000E+00  0.00000000000E+00  0.46420961177E+03  0.46420961177E+03  0.00000000000E+00 0.  1.
         21   -1    0    0  501  502 -0.00000000000E+00 -0.00000000000E+00 -0.11186303220E+03  0.11186303220E+03  0.00000000000E+00 0.  1.
      99926    2    1    2    0    0 -0.35527136788E-14  0.00000000000E+00  0.35234657958E+03  0.57607264397E+03  0.45575385790E+03 0.  0.
      99925    2    3    3    0    0 -0.29546038849E+02  0.95534292269E+02  0.15296925988E+03  0.32034115760E+03  0.26309521731E+03 0.  0.
         25    1    3    3    0    0  0.29546038849E+02 -0.95534292269E+02  0.19937731970E+03  0.25573148637E+03  0.12509000000E+03 0.  0.
         25    1    4    4    0    0  0.16250973497E+02  0.73718808084E+02  0.87718187986E+02  0.17041286750E+03  0.12509000000E+03 0.  0.
         25    1    4    4    0    0 -0.45797012347E+02  0.21815484185E+02  0.65251071891E+02  0.14992829010E+03  0.12509000000E+03 0.  0.
<mgrwt>
<rscale>  2 0.45575386E+03</rscale>
<asrwt>0</asrwt>
<pdfrwt beam="1">  1       21 0.68266119E-01 0.45575386E+03</pdfrwt>
<pdfrwt beam="2">  1       21 0.16450446E-01 0.45575386E+03</pdfrwt>
<totfact> 0.59818431E+04</totfact>
</mgrwt>
</event>
<event>
 7    0  0.4748297E-002  0.4460668E+03  0.7546771E-02  0.1028901E+00
         21   -1    0    0  502  501  0.00000000000E+00  0.00000000000E+00  0.63067732318E+03  0.63067732318E+03  0.00000000000E+00 0. -1.
         21   -1    0    0  501  502 -0.00000000000E+00 -0.00000000000E+00 -0.78873762893E+02  0.78873762893E+02  0.00000000000E+00 0. -1.
      99926    2    1    2    0    0  0.00000000000E+00  0.14210854715E-13  0.55180356029E+03  0.70955108608E+03  0.44606678267E+03 0.  0.
      99925    2    3    3    0    0 -0.62963433663E+02 -0.77171135532E+02  0.29901649036E+03  0.41043808241E+03  0.26292352471E+03 0.  0.
         25    1    3    3    0    0  0.62963433663E+02  0.77171135532E+02  0.25278706993E+03  0.29911300366E+03  0.12509000000E+03 0.  0.
         25    1    4    4    0    0 -0.30540780700E+02 -0.99350063228E+01  0.18418040125E+03  0.22494748708E+03  0.12509000000E+03 0.  0.
         25    1    4    4    0    0 -0.32422652963E+02 -0.67236129209E+02  0.11483608911E+03  0.18549059534E+03  0.12509000000E+03 0.  0.
<mgrwt>
<rscale>  2 0.44606678E+03</rscale>
<asrwt>0</asrwt>
<pdfrwt beam="1">  1       21 0.92746663E-01 0.44606678E+03</pdfrwt>
<pdfrwt beam="2">  1       21 0.11599083E-01 0.44606678E+03</pdfrwt>
<totfact> 0.56236991E+04</totfact>
</mgrwt>
</event>
<event>
 7    0  0.4748297E-002  0.4553264E+03  0.7546771E-02  0.1026145E+00
         21   -1    0    0  502  501  0.00000000000E+00  0.00000000000E+00  0.80014976590E+02  0.80014976590E+02  0.00000000000E+00 0. -1.
         21   -1    0    0  501  502 -0.00000000000E+00 -0.00000000000E+00 -0.64776053223E+03  0.64776053223E+03  0.00000000000E+00 0. -1.
      99926    2    1    2    0    0  0.14210854715E-13  0.00000000000E+00 -0.56774555564E+03  0.72777550882E+03  0.45532644915E+03 0.  0.
      99925    2    3    3    0    0  0.80154435028E+02  0.61849447105E+02 -0.43901191760E+03  0.52169313397E+03  0.26302504572E+03 0.  0.
         25    1    4    4    0    0  0.59097928772E+01  0.29543631937E+02 -0.15935231818E+03  0.20481313739E+03  0.12509000000E+03 0.  0.
         25    1    3    3    0    0 -0.80154435028E+02 -0.61849447105E+02 -0.12873363804E+03  0.20608237485E+03  0.12509000000E+03 0.  0.
         25    1    4    4    0    0  0.74244642150E+02  0.32305815168E+02 -0.27965959942E+03  0.31687999658E+03  0.12509000000E+03 0.  0.
<mgrwt>
<rscale>  2 0.45532645E+03</rscale>
<asrwt>0</asrwt>
<pdfrwt beam="1">  1       21 0.11766908E-01 0.45532645E+03</pdfrwt>
<pdfrwt beam="2">  1       21 0.95258903E-01 0.45532645E+03</pdfrwt>
<totfact> 0.51288981E+04</totfact>
</mgrwt>
</event>
<event>
 7    0  0.4748297E-002  0.4472912E+03  0.7546771E-02  0.1028533E+00
         21   -1    0    0  502  501  0.00000000000E+00  0.00000000000E+00  0.48592571252E+03  0.48592571252E+03  0.00000000000E+00 0.  1.
         21   -1    0    0  501  502 -0.00000000000E+00 -0.00000000000E+00 -0.10293211309E+03  0.10293211309E+03  0.00000000000E+00 0.  1.
      99926    2    1    2    0    0  0.00000000000E+00  0.00000000000E+00  0.38299359943E+03  0.58885782561E+03  0.44729122680E+03 0.  0.
      99925    2    3    3    0    0 -0.35842249536E+02  0.98714123810E+02  0.25207210336E+03  0.37953250147E+03  0.26358192140E+03 0.  0.
         25    1    4    4    0    0 -0.90047191996E+01  0.10837036976E+02  0.13882846941E+03  0.18740164982E+03  0.12509000000E+03 0.  0.
         25    1    3    3    0    0  0.35842249536E+02 -0.98714123810E+02  0.13092149607E+03  0.20932532413E+03  0.12509000000E+03 0.  0.
         25    1    4    4    0    0 -0.26837530337E+02  0.87877086834E+02  0.11324363395E+03  0.19213085165E+03  0.12509000000E+03 0.  0.
<mgrwt>
<rscale>  2 0.44729123E+03</rscale>
<asrwt>0</asrwt>
<pdfrwt beam="1">  1       21 0.71459663E-01 0.44729123E+03</pdfrwt>
<pdfrwt beam="2">  1       21 0.15137076E-01 0.44729123E+03</pdfrwt>
<totfact> 0.63128573E+04</totfact>
</mgrwt>
</event>
<event>
 7    0  0.4748297E-002  0.4560019E+03  0.7546771E-02  0.1025947E+00
         21   -1    0    0  502  501  0.00000000000E+00  0.00000000000E+00  0.18581054646E+04  0.18581054646E+04  0.00000000000E+00 0.  1.
         21   -1    0    0  501  502 -0.00000000000E+00 -0.00000000000E+00 -0.27977121732E+02  0.27977121732E+02  0.00000000000E+00 0.  1.
      99926    2    1    2    0    0  0.00000000000E+00  0.00000000000E+00  0.18301283429E+04  0.18860825864E+04  0.45600194199E+03 0.  0.
      99925    2    3    3    0    0  0.49459202554E+02  0.38407795614E+02  0.15453450727E+04  0.15687966103E+04  0.26288788388E+03 0.  0.
         25    1    3    3    0    0 -0.49459202554E+02 -0.38407795614E+02  0.28478327023E+03  0.31728597602E+03  0.12509000000E+03 0.  0.
         25    1    4    4    0    0  0.20436323614E+02 -0.17307168459E+02  0.84140800647E+03  0.85107703696E+03  0.12509000000E+03 0.  0.
         25    1    4    4    0    0  0.29022878940E+02  0.55714964073E+02  0.70393706621E+03  0.71771957338E+03  0.12509000000E+03 0.  0.
<mgrwt>
<rscale>  2 0.45600194E+03</rscale>
<asrwt>0</asrwt>
<pdfrwt beam="1">  1       21 0.27325072E+00 0.45600194E+03</pdfrwt>
<pdfrwt beam="2">  1       21 0.41142839E-02 0.45600194E+03</pdfrwt>
<totfact> 0.15538974E+04</totfact>
</mgrwt>
</event>
<event>
 7    0  0.4748297E-002  0.4546849E+03  0.7546771E-02  0.1026334E+00
         21   -1    0    0  502  501  0.00000000000E+00  0.00000000000E+00  0.39920722847E+02  0.39920722847E+02  0.00000000000E+00 0. -1.
         21   -1    0    0  501  502 -0.00000000000E+00 -0.00000000000E+00 -0.12946809055E+04  0.12946809055E+04  0.00000000000E+00 0. -1.
      99926    2    1    2    0    0  0.00000000000E+00 -0.17763568394E-14 -0.12547601827E+04  0.13346016284E+04  0.45468493533E+03 0.  0.
      99925    2    3    3    0    0 -0.11065028132E+03  0.11439148196E+01 -0.72248496351E+03  0.77674034603E+03  0.26286165439E+03 0.  0.
         25    1    4    4    0    0 -0.62856462787E+02 -0.19134417360E+02 -0.27451145813E+03  0.30874116925E+03  0.12509000000E+03 0.  0.
         25    1    3    3    0    0  0.11065028132E+03 -0.11439148196E+01 -0.53227521915E+03  0.55786128233E+03  0.12509000000E+03 0.  0.
         25    1    4    4    0    0 -0.47793818537E+02  0.20278332179E+02 -0.44797350538E+03  0.46799917678E+03  0.12509000000E+03 0.  0.
<mgrwt>
<rscale>  2 0.45468494E+03</rscale>
<asrwt>0</asrwt>
<pdfrwt beam="1">  1       21 0.58706949E-02 0.45468494E+03</pdfrwt>
<pdfrwt beam="2">  1       21 0.19039424E+00 0.45468494E+03</pdfrwt>
<totfact> 0.28195179E+04</totfact>
</mgrwt>
</event>
<event>
 7    0  0.4748297E-002  0.4333557E+03  0.7546771E-02  0.1032805E+00
         21   -1    0    0  502  501  0.00000000000E+00  0.00000000000E+00  0.61437734465E+03  0.61437734465E+03  0.00000000000E+00 0. -1.
         21   -1    0    0  501  502 -0.00000000000E+00 -0.00000000000E+00 -0.76417676529E+02  0.76417676529E+02  0.00000000000E+00 0. -1.
      99926    2    1    2    0    0  0.00000000000E+00  0.00000000000E+00  0.53795966812E+03  0.69079502118E+03  0.43335569312E+03 0.  0.
      99925    2    3    3    0    0 -0.49399905597E+02 -0.75791698464E+02  0.36492127031E+03  0.45890166757E+03  0.26313204812E+03 0.  0.
         25    1    4    4    0    0 -0.47401172397E+02 -0.66965594594E+02  0.16336042939E+03  0.22150711048E+03  0.12509000000E+03 0.  0.
         25    1    4    4    0    0 -0.19987331996E+01 -0.88261038698E+01  0.20156084092E+03  0.23739455709E+03  0.12509000000E+03 0.  0.
         25    1    3    3    0    0  0.49399905597E+02  0.75791698464E+02  0.17303839781E+03  0.23189335360E+03  0.12509000000E+03 0.  0.
<mgrwt>
<rscale>  2 0.43335569E+03</rscale>
<asrwt>0</asrwt>
<pdfrwt beam="1">  1       21 0.90349607E-01 0.43335569E+03</pdfrwt>
<pdfrwt beam="2">  1       21 0.11237894E-01 0.43335569E+03</pdfrwt>
<totfact> 0.63562370E+04</totfact>
</mgrwt>
</event>
<event>
 7    0  0.4748297E-002  0.4606387E+03  0.7546771E-02  0.1024596E+00
         21   -1    0    0  502  501  0.00000000000E+00  0.00000000000E+00  0.84705678625E+02  0.84705678625E+02  0.00000000000E+00 0. -1.
         21   -1    0    0  501  502 -0.00000000000E+00 -0.00000000000E+00 -0.62625083771E+03  0.62625083771E+03  0.00000000000E+00 0. -1.
      99926    2    1    2    0    0 -0.71054273576E-14  0.00000000000E+00 -0.54154515908E+03  0.71095651633E+03  0.46063869658E+03 0.  0.
      99925    2    3    3    0    0 -0.49226958007E+02 -0.10458499197E+03 -0.29903803006E+03  0.41461460288E+03  0.26290722995E+03 0.  0.
         25    1    4    4    0    0 -0.62897488054E+02 -0.68543907725E+02 -0.15146942901E+03  0.21735882157E+03  0.12509000000E+03 0.  0.
         25    1    3    3    0    0  0.49226958007E+02  0.10458499197E+03 -0.24250712902E+03  0.29634191345E+03  0.12509000000E+03 0.  0.
         25    1    4    4    0    0  0.13670530047E+02 -0.36041084246E+02 -0.14756860105E+03  0.19725578132E+03  0.12509000000E+03 0.  0.
<mgrwt>
<rscale>  2 0.46063870E+03</rscale>
<asrwt>0</asrwt>
<pdfrwt beam="1">  1       21 0.12456718E-01 0.46063870E+03</pdfrwt>
<pdfrwt beam="2">  1       21 0.92095707E-01 0.46063870E+03</pdfrwt>
<totfact> 0.50054343E+04</totfact>
</mgrwt>
</event>
<event>
 7    0  0.4748297E-002  0.4483042E+03  0.7546771E-02  0.1028229E+00
         21   -1    0    0  502  501  0.00000000000E+00  0.00000000000E+00  0.89306023392E+03  0.89306023392E+03  0.00000000000E+00 0. -1.
         21   -1    0    0  501  502 -0.00000000000E+00 -0.00000000000E+00 -0.56260663218E+02  0.56260663218E+02  0.00000000000E+00 0. -1.
      99926    2    1    2    0    0  0.14210854715E-13  0.35527136788E-14  0.83679957070E+03  0.94932089714E+03  0.44830418715E+03 0.  0.
      99925    2    3    3    0    0  0.10391332189E+03  0.17742573078E+02  0.56543223892E+03  0.63246049535E+03  0.26302069120E+03 0.  0.
         25    1    4    4    0    0  0.55551998112E+02 -0.16354032357E+02  0.21167349496E+03  0.25259979303E+03  0.12509000000E+03 0.  0.
         25    1    3    3    0    0 -0.10391332189E+03 -0.17742573078E+02  0.27136733178E+03  0.31686040179E+03  0.12509000000E+03 0.  0.
         25    1    4    4    0    0  0.48361323774E+02  0.34096605435E+02  0.35375874396E+03  0.37986070232E+03  0.12509000000E+03 0.  0.
<mgrwt>
<rscale>  2 0.44830419E+03</rscale>
<asrwt>0</asrwt>
<pdfrwt beam="1">  1       21 0.13133238E+00 0.44830419E+03</pdfrwt>
<pdfrwt beam="2">  1       21 0.82736275E-02 0.44830419E+03</pdfrwt>
<totfact> 0.43396368E+04</totfact>
</mgrwt>
</event>
<event>
 7    0  0.4748297E-002  0.4529476E+03  0.7546771E-02  0.1026847E+00
         21   -1    0    0  502  501  0.00000000000E+00  0.00000000000E+00  0.10481438853E+03  0.10481438853E+03  0.00000000000E+00 0. -1.
         21   -1    0    0  501  502 -0.00000000000E+00 -0.00000000000E+00 -0.48934479368E+03  0.48934479368E+03  0.00000000000E+00 0. -1.
      99926    2    1    2    0    0  0.00000000000E+00  0.00000000000E+00 -0.38453040516E+03  0.59415918221E+03  0.45294757016E+03 0.  0.
      99925    2    3    3    0    0 -0.87934418511E+02  0.61392589902E+02 -0.20379473721E+03  0.34958935205E+03  0.26301883602E+03 0.  0.
         25    1    4    4    0    0 -0.78138962443E+02  0.10066035581E+02 -0.94524610569E+02  0.17546917857E+03  0.12509000000E+03 0.  0.
         25    1    4    4    0    0 -0.97954560676E+01  0.51326554321E+02 -0.10927012664E+03  0.17412017348E+03  0.12509000000E+03 0.  0.
         25    1    3    3    0    0  0.87934418511E+02 -0.61392589902E+02 -0.18073566795E+03  0.24456983016E+03  0.12509000000E+03 0.  0.
<mgrwt>
<rscale>  2 0.45294757E+03</rscale>
<asrwt>0</asrwt>
<pdfrwt beam="1">  1       21 0.15413881E-01 0.45294757E+03</pdfrwt>
<pdfrwt beam="2">  1       21 0.71962468E-01 0.45294757E+03</pdfrwt>
<totfact> 0.60006594E+04</totfact>
</mgrwt>
</event>
<event>
 7    0  0.4748297E-002  0.4669768E+03  0.7546771E-02  0.1022777E+00
         21   -1    0    0  502  501  0.00000000000E+00  0.00000000000E+00  0.19086546330E+03  0.19086546330E+03  0.00000000000E+00 0.  1.
         21   -1    0    0  501  502 -0.00000000000E+00 -0.00000000000E+00 -0.28562964857E+03  0.28562964857E+03  0.00000000000E+00 0.  1.
      99926    2    1    2    0    0  0.00000000000E+00  0.00000000000E+00 -0.94764185272E+02  0.47649511187E+03  0.46697680973E+03 0.  0.
      99925    2    3    3    0    0 -0.24574451049E+02  0.64532462406E+02  0.46148166851E+02  0.27581591158E+03  0.26301410880E+03 0.  0.
         25    1    3    3    0    0  0.24574451049E+02 -0.64532462406E+02 -0.14091235212E+03  0.20067920029E+03  0.12509000000E+03 0.  0.
         25    1    4    4    0    0 -0.18178577843E+02  0.69495195101E+01  0.54234755386E+02  0.13772317636E+03  0.12509000000E+03 0.  0.
         25    1    4    4    0    0 -0.63958732058E+01  0.57582942896E+02 -0.80865885346E+01  0.13809273522E+03  0.12509000000E+03 0.  0.
<mgrwt>
<rscale>  2 0.46697681E+03</rscale>
<asrwt>0</asrwt>
<pdfrwt beam="1">  1       21 0.28068451E-01 0.46697681E+03</pdfrwt>
<pdfrwt beam="2">  1       21 0.42004359E-01 0.46697681E+03</pdfrwt>
<totfact> 0.60952389E+04</totfact>
</mgrwt>
</event>
<event>
 7    0  0.4748297E-002  0.4663454E+03  0.7546771E-02  0.1022957E+00
         21   -1    0    0  502  501  0.00000000000E+00  0.00000000000E+00  0.28359376165E+02  0.28359376165E+02  0.00000000000E+00 0.  1.
         21   -1    0    0  501  502 -0.00000000000E+00 -0.00000000000E+00 -0.19171614806E+04  0.19171614806E+04  0.00000000000E+00 0.  1.
      99926    2    1    2    0    0 -0.71054273576E-14  0.00000000000E+00 -0.18888021045E+04  0.19455208568E+04  0.46634538102E+03 0.  0.
      99925    2    3    3    0    0 -0.57878981457E+02 -0.10909369362E+03 -0.11875739745E+04  0.12225963733E+04  0.26298010688E+03 0.  0.
         25    1    4    4    0    0 -0.33896055827E+02 -0.93307906804E+02 -0.57784027981E+03  0.59950163064E+03  0.12509000000E+03 0.  0.
         25    1    3    3    0    0  0.57878981457E+02  0.10909369362E+03 -0.70122812994E+03  0.72292448347E+03  0.12509000000E+03 0.  0.
         25    1    4    4    0    0 -0.23982925630E+02 -0.15785786817E+02 -0.60973369472E+03  0.62309474268E+03  0.12509000000E+03 0.  0.
<mgrwt>
<rscale>  2 0.46634538E+03</rscale>
<asrwt>0</asrwt>
<pdfrwt beam="1">  1       21 0.41704945E-02 0.46634538E+03</pdfrwt>
<pdfrwt beam="2">  1       21 0.28193564E+00 0.46634538E+03</pdfrwt>
<totfact> 0.13400531E+04</totfact>
</mgrwt>
</event>
<event>
 7    0  0.4748297E-002  0.4470615E+03  0.7546771E-02  0.1028602E+00
         21   -1    0    0  502  501  0.00000000000E+00  0.00000000000E+00  0.19788453342E+02  0.19788453342E+02  0.00000000000E+00 0.  1.
         21   -1    0    0  501  502 -0.00000000000E+00 -0.00000000000E+00 -0.25250072037E+04  0.25250072037E+04  0.00000000000E+00 0.  1.
      99926    2    1    2    0    0  0.00000000000E+00 -0.71054273576E-14 -0.25052187503E+04  0.25447956570E+04  0.44706145993E+03 0.  0.
      99925    2    3    3    0    0  0.48946755551E+02 -0.42454949773E+02 -0.20630157049E+04  0.20806951839E+04  0.26279353510E+03 0.  0.
         25    1    4    4    0    0 -0.78808681696E+01  0.21566080137E+01 -0.87666039366E+03  0.88557761543E+03  0.12509000000E+03 0.  0.
         25    1    3    3    0    0 -0.48946755551E+02  0.42454949773E+02 -0.44220304549E+03  0.46410047315E+03  0.12509000000E+03 0.  0.
         25    1    4    4    0    0  0.56827623721E+02 -0.44611557787E+02 -0.11863553112E+04  0.11951175685E+04  0.12509000000E+03 0.  0.
<mgrwt>
<rscale>  2 0.44706146E+03</rscale>
<asrwt>0</asrwt>
<pdfrwt beam="1">  1       21 0.29100692E-02 0.44706146E+03</pdfrwt>
<pdfrwt beam="2">  1       21 0.37132427E+00 0.44706146E+03</pdfrwt>
<totfact> 0.71133241E+03</totfact>
</mgrwt>
</event>
<event>
 7    0  0.4748297E-002  0.4444236E+03  0.7546771E-02  0.1029398E+00
         21   -1    0    0  502  501  0.00000000000E+00  0.00000000000E+00  0.16126715670E+03  0.16126715670E+03  0.00000000000E+00 0.  1.
         21   -1    0    0  501  502 -0.00000000000E+00 -0.00000000000E+00 -0.30618814348E+03  0.30618814348E+03  0.00000000000E+00 0.  1.
      99926    2    1    2    0    0 -0.35527136788E-14  0.00000000000E+00 -0.14492098678E+03  0.46745530018E+03  0.44442363264E+03 0.  0.
      99925    2    3    3    0    0 -0.25331253619E+02  0.94082062529E+02 -0.12398720273E+03  0.30752144411E+03  0.26401421411E+03 0.  0.
         25    1    3    3    0    0  0.25331253619E+02 -0.94082062529E+02 -0.20933784053E+02  0.15993385606E+03  0.12509000000E+03 0.  0.
         25    1    4    4    0    0 -0.73948443442E+01  0.90420405562E+02 -0.77024458770E+02  0.17265806907E+03  0.12509000000E+03 0.  0.
         25    1    4    4    0    0 -0.17936409275E+02  0.36616569676E+01 -0.46962743959E+02  0.13486337505E+03  0.12509000000E+03 0.  0.
<mgrwt>
<rscale>  2 0.44442363E+03</rscale>
<asrwt>0</asrwt>
<pdfrwt beam="1">  1       21 0.23715759E-01 0.44442363E+03</pdfrwt>
<pdfrwt beam="2">  1       21 0.45027668E-01 0.44442363E+03</pdfrwt>
<totfact> 0.73611904E+04</totfact>
</mgrwt>
</event>
<event>
 7    0  0.4748297E-002  0.4354020E+03  0.7546771E-02  0.1032167E+00
         21   -1    0    0  502  501  0.00000000000E+00  0.00000000000E+00  0.20537486864E+03  0.20537486864E+03  0.00000000000E+00 0.  1.
         21   -1    0    0  501  502 -0.00000000000E+00 -0.00000000000E+00 -0.23076690218E+03  0.23076690218E+03  0.00000000000E+00 0.  1.
      99926    2    1    2    0    0  0.00000000000E+00 -0.17763568394E-14 -0.25392033539E+02  0.43614177082E+03  0.43540198540E+03 0.  0.
      99925    2    3    3    0    0 -0.43893990369E+02  0.15834293788E+02 -0.97846114214E+02  0.28423881115E+03  0.26275546131E+03 0.  0.
         25    1    4    4    0    0  0.11267887748E+02  0.29515598194E+02 -0.55665095168E+02  0.14051422259E+03  0.12509000000E+03 0.  0.
         25    1    4    4    0    0 -0.55161878117E+02 -0.13681304405E+02 -0.42181019046E+02  0.14372458856E+03  0.12509000000E+03 0.  0.
         25    1    3    3    0    0  0.43893990369E+02 -0.15834293788E+02  0.72454080675E+02  0.15190295967E+03  0.12509000000E+03 0.  0.
<mgrwt>
<rscale>  2 0.43540199E+03</rscale>
<asrwt>0</asrwt>
<pdfrwt beam="1">  1       21 0.30202187E-01 0.43540199E+03</pdfrwt>
<pdfrwt beam="2">  1       21 0.33936309E-01 0.43540199E+03</pdfrwt>
<totfact> 0.82048725E+04</totfact>
</mgrwt>
</event>
<event>
 7    0  0.4748297E-002  0.4551987E+03  0.7546771E-02  0.1026183E+00
         21   -1    0    0  502  501  0.00000000000E+00  0.00000000000E+00  0.65990568790E+02  0.65990568790E+02  0.00000000000E+00 0.  1.
         21   -1    0    0  501  502 -0.00000000000E+00 -0.00000000000E+00 -0.78498288470E+03  0.78498288470E+03  0.00000000000E+00 0.  1.
      99926    2    1    2    0    0  0.00000000000E+00  0.71054273576E-14 -0.71899231591E+03  0.85097345349E+03  0.45519871288E+03 0.  0.
      99925    2    3    3    0    0  0.10315516238E+03  0.44247798748E+02 -0.48234164340E+03  0.56071511318E+03  0.26296220636E+03 0.  0.
         25    1    3    3    0    0 -0.10315516238E+03 -0.44247798748E+02 -0.23665067251E+03  0.29025834031E+03  0.12509000000E+03 0.  0.
         25    1    4    4    0    0  0.77503765123E+02  0.39712638581E+02 -0.31715250748E+03  0.35187660958E+03  0.12509000000E+03 0.  0.
         25    1    4    4    0    0  0.25651397254E+02  0.45351601679E+01 -0.16518913592E+03  0.20883850360E+03  0.12509000000E+03 0.  0.
<mgrwt>
<rscale>  2 0.45519871E+03</rscale>
<asrwt>0</asrwt>
<pdfrwt beam="1">  1       21 0.97044955E-02 0.45519871E+03</pdfrwt>
<pdfrwt beam="2">  1       21 0.11543866E+00 0.45519871E+03</pdfrwt>
<totfact> 0.45325168E+04</totfact>
</mgrwt>
</event>
<event>
 7    0  0.4748297E-002  0.4515386E+03  0.7546771E-02  0.1027264E+00
         21   -1    0    0  502  501  0.00000000000E+00  0.00000000000E+00  0.55827637785E+02  0.55827637785E+02  0.00000000000E+00 0. -1.
         21   -1    0    0  501  502 -0.00000000000E+00 -0.00000000000E+00 -0.91302040194E+03  0.91302040194E+03  0.00000000000E+00 0. -1.
      99926    2    1    2    0    0  0.35527136788E-14 -0.71054273576E-14 -0.85719276415E+03  0.96884803972E+03  0.45153857992E+03 0.  0.
      99925    2    3    3    0    0 -0.12052313565E+02 -0.51679707877E+02 -0.74776754515E+03  0.79438475670E+03  0.26282083181E+03 0.  0.
         25    1    4    4    0    0 -0.41152038017E+02 -0.40879748868E+02 -0.42625497846E+03  0.44800162819E+03  0.12509000000E+03 0.  0.
         25    1    4    4    0    0  0.29099724452E+02 -0.10799959010E+02 -0.32151256669E+03  0.34638312851E+03  0.12509000000E+03 0.  0.
         25    1    3    3    0    0  0.12052313565E+02  0.51679707877E+02 -0.10942521900E+03  0.17446328302E+03  0.12509000000E+03 0.  0.
<mgrwt>
<rscale>  2 0.45153858E+03</rscale>
<asrwt>0</asrwt>
<pdfrwt beam="1">  1       21 0.82099472E-02 0.45153858E+03</pdfrwt>
<pdfrwt beam="2">  1       21 0.13426770E+00 0.45153858E+03</pdfrwt>
<totfact> 0.41498573E+04</totfact>
</mgrwt>
</event>
<event>
 7    0  0.4748297E-002  0.4517163E+03  0.7546771E-02  0.1027211E+00
         21   -1    0    0  502  501  0.00000000000E+00  0.00000000000E+00  0.13093684080E+04  0.13093684080E+04  0.00000000000E+00 0. -1.
         21   -1    0    0  501  502 -0.00000000000E+00 -0.00000000000E+00 -0.38959164606E+02  0.38959164606E+02  0.00000000000E+00 0. -1.
      99926    2    1    2    0    0  0.00000000000E+00 -0.14210854715E-13  0.12704092434E+04  0.13483275726E+04  0.45171627971E+03 0.  0.
      99925    2    3    3    0    0  0.30618387475E+02  0.75760007886E+02  0.10220230801E+04  0.10584650903E+04  0.26294506393E+03 0.  0.
         25    1    4    4    0    0  0.44024407000E+02  0.66658097277E+02  0.59224522052E+03  0.61055987395E+03  0.12509000000E+03 0.  0.
         25    1    3    3    0    0 -0.30618387475E+02 -0.75760007886E+02  0.24838616335E+03  0.28986248238E+03  0.12509000000E+03 0.  0.
         25    1    4    4    0    0 -0.13406019524E+02  0.91019106093E+01  0.42977785955E+03  0.44790521631E+03  0.12509000000E+03 0.  0.
<mgrwt>
<rscale>  2 0.45171628E+03</rscale>
<asrwt>0</asrwt>
<pdfrwt beam="1">  1       21 0.19255415E+00 0.45171628E+03</pdfrwt>
<pdfrwt beam="2">  1       21 0.57292898E-02 0.45171628E+03</pdfrwt>
<totfact> 0.28461685E+04</totfact>
</mgrwt>
</event>
<event>
 7    0  0.4748297E-002  0.4567744E+03  0.7546771E-02  0.1025721E+00
         21   -1    0    0  502  501  0.00000000000E+00  0.00000000000E+00  0.90756008877E+03  0.90756008877E+03  0.00000000000E+00 0.  1.
         21   -1    0    0  501  502 -0.00000000000E+00 -0.00000000000E+00 -0.57473567685E+02  0.57473567685E+02  0.00000000000E+00 0.  1.
      99926    2    1    2    0    0 -0.14210854715E-13  0.71054273576E-14  0.85008652109E+03  0.96503365646E+03  0.45677441342E+03 0.  0.
      99925    2    3    3    0    0 -0.74073676431E+02  0.50040799881E+02  0.38205072706E+03  0.47239179487E+03  0.26305942033E+03 0.  0.
         25    1    3    3    0    0  0.74073676431E+02 -0.50040799881E+02  0.46803579403E+03  0.49264186159E+03  0.12509000000E+03 0.  0.
         25    1    4    4    0    0 -0.24484793579E+02  0.26150543144E+02  0.25263372521E+03  0.28417364979E+03  0.12509000000E+03 0.  0.
         25    1    4    4    0    0 -0.49588882851E+02  0.23890256737E+02  0.12941700185E+03  0.18821814508E+03  0.12509000000E+03 0.  0.
<mgrwt>
<rscale>  2 0.45677441E+03</rscale>
<asrwt>0</asrwt>
<pdfrwt beam="1">  1       21 0.13346471E+00 0.45677441E+03</pdfrwt>
<pdfrwt beam="2">  1       21 0.84519958E-02 0.45677441E+03</pdfrwt>
<totfact> 0.39980459E+04</totfact>
</mgrwt>
</event>
<event>
 7    0  0.4748297E-002  0.4574159E+03  0.7546771E-02  0.1025533E+00
         21   -1    0    0  502  501  0.00000000000E+00  0.00000000000E+00  0.19687865134E+03  0.19687865134E+03  0.00000000000E+00 0.  1.
         21   -1    0    0  501  502 -0.00000000000E+00 -0.00000000000E+00 -0.26568306076E+03  0.26568306076E+03  0.00000000000E+00 0.  1.
      99926    2    1    2    0    0  0.14210854715E-13 -0.35527136788E-14 -0.68804409425E+02  0.46256171210E+03  0.45741588379E+03 0.  0.
      99925    2    3    3    0    0 -0.10107755220E+03  0.30341286484E+02 -0.90873929972E+02  0.29741984260E+03  0.26279883256E+03 0.  0.
         25    1    4    4    0    0 -0.88392743634E+01  0.15426780042E+02 -0.30163589591E+02  0.12989791588E+03  0.12509000000E+03 0.  0.
         25    1    3    3    0    0  0.10107755220E+03 -0.30341286484E+02  0.22069520547E+02  0.16514186950E+03  0.12509000000E+03 0.  0.
         25    1    4    4    0    0 -0.92238277837E+02  0.14914506442E+02 -0.60710340381E+02  0.16752192671E+03  0.12509000000E+03 0.  0.
<mgrwt>
<rscale>  2 0.45741588E+03</rscale>
<asrwt>0</asrwt>
<pdfrwt beam="1">  1       21 0.28952743E-01 0.45741588E+03</pdfrwt>
<pdfrwt beam="2">  1       21 0.39071038E-01 0.45741588E+03</pdfrwt>
<totfact> 0.66699955E+04</totfact>
</mgrwt>
</event>
<event>
 7    0  0.4748297E-002  0.4559034E+03  0.7546771E-02  0.1025976E+00
         21   -1    0    0  502  501  0.00000000000E+00  0.00000000000E+00  0.97696706119E+03  0.97696706119E+03  0.00000000000E+00 0.  1.
         21   -1    0    0  501  502 -0.00000000000E+00 -0.00000000000E+00 -0.53187035160E+02  0.53187035160E+02  0.00000000000E+00 0.  1.
      99926    2    1    2    0    0 -0.71054273576E-14  0.53290705182E-14  0.92378002603E+03  0.10301540964E+04  0.45590341711E+03 0.  0.
      99925    2    3    3    0    0  0.62506159212E+02  0.94428200368E+01  0.36649875365E+03  0.45551846272E+03  0.26302004993E+03 0.  0.
         25    1    3    3    0    0 -0.62506159212E+02 -0.94428200368E+01  0.55728127238E+03  0.57463563363E+03  0.12509000000E+03 0.  0.
         25    1    4    4    0    0  0.15576811183E+02  0.41985260358E+02  0.17287540255E+03  0.21803396992E+03  0.12509000000E+03 0.  0.
         25    1    4    4    0    0  0.46929348029E+02 -0.32542440321E+02  0.19362335110E+03  0.23748449280E+03  0.12509000000E+03 0.  0.
<mgrwt>
<rscale>  2 0.45590342E+03</rscale>
<asrwt>0</asrwt>
<pdfrwt beam="1">  1       21 0.14367162E+00 0.45590342E+03</pdfrwt>
<pdfrwt beam="2">  1       21 0.78216234E-02 0.45590342E+03</pdfrwt>
<totfact> 0.37747206E+04</totfact>
</mgrwt>
</event>
<event>
 7    0  0.4748297E-002  0.4547705E+03  0.7546771E-02  0.1026309E+00
         21   -1    0    0  502  501  0.00000000000E+00  0.00000000000E+00  0.10077559780E+04  0.10077559780E+04  0.00000000000E+00 0.  1.
         21   -1    0    0  501  502 -0.00000000000E+00 -0.00000000000E+00 -0.51306127696E+02  0.51306127696E+02  0.00000000000E+00 0.  1.
      99926    2    1    2    0    0 -0.14210854715E-13  0.00000000000E+00  0.95644985028E+03  0.10590621057E+04  0.45477052188E+03 0.  0.
      99925    2    3    3    0    0  0.72578001691E+02 -0.42597233356E+01  0.80326121876E+03  0.84834908638E+03  0.26302447648E+03 0.  0.
         25    1    3    3    0    0 -0.72578001691E+02  0.42597233356E+01  0.15318863152E+03  0.21071301930E+03  0.12509000000E+03 0.  0.
         25    1    4    4    0    0  0.18921958046E+02  0.49052385924E+01  0.27479679726E+03  0.30256055550E+03  0.12509000000E+03 0.  0.
         25    1    4    4    0    0  0.53656043645E+02 -0.91649619280E+01  0.52846442150E+03  0.54578853088E+03  0.12509000000E+03 0.  0.
<mgrwt>
<rscale>  2 0.45477052E+03</rscale>
<asrwt>0</asrwt>
<pdfrwt beam="1">  1       21 0.14819940E+00 0.45477052E+03</pdfrwt>
<pdfrwt beam="2">  1       21 0.75450194E-02 0.45477052E+03</pdfrwt>
<totfact> 0.37012866E+04</totfact>
</mgrwt>
</event>
<event>
 7    0  0.4748297E-002  0.4567798E+03  0.7546771E-02  0.1025719E+00
         21   -1    0    0  502  501  0.00000000000E+00  0.00000000000E+00  0.54011854903E+03  0.54011854903E+03  0.00000000000E+00 0.  1.
         21   -1    0    0  501  502 -0.00000000000E+00 -0.00000000000E+00 -0.96575004655E+02  0.96575004655E+02  0.00000000000E+00 0.  1.
      99926    2    1    2    0    0  0.00000000000E+00  0.00000000000E+00  0.44354354437E+03  0.63669355368E+03  0.45677982174E+03 0.  0.
      99925    2    3    3    0    0 -0.10734323098E+03  0.20275475255E+02  0.22948188225E+03  0.36576262627E+03  0.26303364873E+03 0.  0.
         25    1    4    4    0    0 -0.22859717790E+02  0.26185983160E+02  0.76136496525E+02  0.15050762976E+03  0.12509000000E+03 0.  0.
         25    1    4    4    0    0 -0.84483513188E+02 -0.59105079048E+01  0.15334538572E+03  0.21525499652E+03  0.12509000000E+03 0.  0.
         25    1    3    3    0    0  0.10734323098E+03 -0.20275475255E+02  0.21406166213E+03  0.27093092741E+03  0.12509000000E+03 0.  0.
<mgrwt>
<rscale>  2 0.45677982E+03</rscale>
<asrwt>0</asrwt>
<pdfrwt beam="1">  1       21 0.79429197E-01 0.45677982E+03</pdfrwt>
<pdfrwt beam="2">  1       21 0.14202207E-01 0.45677982E+03</pdfrwt>
<totfact> 0.55688261E+04</totfact>
</mgrwt>
</event>
<event>
 7    0  0.4748297E-002  0.4404962E+03  0.7546771E-02  0.1030595E+00
         21   -1    0    0  502  501  0.00000000000E+00  0.00000000000E+00  0.18812195095E+04  0.18812195095E+04  0.00000000000E+00 0.  1.
         21   -1    0    0  501  502 -0.00000000000E+00 -0.00000000000E+00 -0.25786054066E+02  0.25786054066E+02  0.00000000000E+00 0.  1.
      99926    2    1    2    0    0 -0.71054273576E-14  0.00000000000E+00  0.18554334554E+04  0.19070055636E+04  0.44049621102E+03 0.  0.
      99925    2    3    3    0    0  0.58770995922E+02 -0.55980013585E+02  0.14284503116E+04  0.14547336265E+04  0.26304341720E+03 0.  0.
         25    1    4    4    0    0 -0.23142880669E+01 -0.50825671633E+02  0.64327164260E+03  0.65729332805E+03  0.12509000000E+03 0.  0.
         25    1    4    4    0    0  0.61085283989E+02 -0.51543419527E+01  0.78517866900E+03  0.79744029840E+03  0.12509000000E+03 0.  0.
         25    1    3    3    0    0 -0.58770995922E+02  0.55980013585E+02  0.42698314383E+03  0.45227193711E+03  0.12509000000E+03 0.  0.
<mgrwt>
<rscale>  2 0.44049621E+03</rscale>
<asrwt>0</asrwt>
<pdfrwt beam="1">  1       21 0.27664983E+00 0.44049621E+03</pdfrwt>
<pdfrwt beam="2">  1       21 0.37920681E-02 0.44049621E+03</pdfrwt>
<totfact> 0.17137456E+04</totfact>
</mgrwt>
</event>
<event>
 7    0  0.4748297E-002  0.4564076E+03  0.7546771E-02  0.1025828E+00
         21   -1    0    0  502  501  0.00000000000E+00  0.00000000000E+00  0.28846691822E+03  0.28846691822E+03  0.00000000000E+00 0.  1.
         21   -1    0    0  501  502 -0.00000000000E+00 -0.00000000000E+00 -0.18053015460E+03  0.18053015460E+03  0.00000000000E+00 0.  1.
      99926    2    1    2    0    0  0.00000000000E+00 -0.14210854715E-13  0.10793676362E+03  0.46899707282E+03  0.45640761319E+03 0.  0.
      99925    2    3    3    0    0  0.39154273246E+02  0.98443938345E+02  0.11241589376E+03  0.30500976595E+03  0.26300068069E+03 0.  0.
         25    1    4    4    0    0 -0.11362500728E+02  0.75244442355E+02  0.64283424559E+02  0.15990840910E+03  0.12509000000E+03 0.  0.
         25    1    4    4    0    0  0.50516773974E+02  0.23199495990E+02  0.48132469198E+02  0.14510135684E+03  0.12509000000E+03 0.  0.
         25    1    3    3    0    0 -0.39154273246E+02 -0.98443938345E+02 -0.44791301378E+01  0.16398730688E+03  0.12509000000E+03 0.  0.
<mgrwt>
<rscale>  2 0.45640761E+03</rscale>
<asrwt>0</asrwt>
<pdfrwt beam="1">  1       21 0.42421606E-01 0.45640761E+03</pdfrwt>
<pdfrwt beam="2">  1       21 0.26548552E-01 0.45640761E+03</pdfrwt>
<totfact> 0.66761957E+04</totfact>
</mgrwt>
</event>
<event>
 7    0  0.4748297E-002  0.4563067E+03  0.7546771E-02  0.1025858E+00
         21   -1    0    0  502  501  0.00000000000E+00  0.00000000000E+00  0.85843186458E+02  0.85843186458E+02  0.00000000000E+00 0.  1.
         21   -1    0    0  501  502 -0.00000000000E+00 -0.00000000000E+00 -0.60638423789E+03  0.60638423789E+03  0.00000000000E+00 0.  1.
      99926    2    1    2    0    0  0.00000000000E+00  0.00000000000E+00 -0.52054105143E+03  0.69222742434E+03  0.45630671789E+03 0.  0.
      99925    2    3    3    0    0 -0.76230917426E+02  0.81335339232E+02 -0.36593010043E+03  0.46423916928E+03  0.26303341558E+03 0.  0.
         25    1    4    4    0    0 -0.48224839430E+01  0.54510564531E+02 -0.20804026382E+03  0.24884315837E+03  0.12509000000E+03 0.  0.
         25    1    4    4    0    0 -0.71408433483E+02  0.26824774701E+02 -0.15788983661E+03  0.21539601091E+03  0.12509000000E+03 0.  0.
         25    1    3    3    0    0  0.76230917426E+02 -0.81335339232E+02 -0.15461095099E+03  0.22798825506E+03  0.12509000000E+03 0.  0.
<mgrwt>
<rscale>  2 0.45630672E+03</rscale>
<asrwt>0</asrwt>
<pdfrwt beam="1">  1       21 0.12623998E-01 0.45630672E+03</pdfrwt>
<pdfrwt beam="2">  1       21 0.89174153E-01 0.45630672E+03</pdfrwt>
<totfact> 0.52782051E+04</totfact>
</mgrwt>
</event>
<event>
 7    0  0.4748297E-002  0.4508373E+03  0.7546771E-02  0.1027473E+00
         21   -1    0    0  502  501  0.00000000000E+00  0.00000000000E+00  0.23687219170E+03  0.23687219170E+03  0.00000000000E+00 0. -1.
         21   -1    0    0  501  502 -0.00000000000E+00 -0.00000000000E+00 -0.21451893744E+03  0.21451893744E+03  0.00000000000E+00 0. -1.
      99926    2    1    2    0    0 -0.14210854715E-13  0.00000000000E+00  0.22353254260E+02  0.45139112914E+03  0.45083731377E+03 0.  0.
      99925    2    3    3    0    0  0.83440092620E+02 -0.31642696503E+02 -0.48941397916E+02  0.28199825790E+03  0.26299096511E+03 0.  0.
         25    1    4    4    0    0  0.70111764344E+01  0.52087290861E+01 -0.93247093549E+01  0.12574078797E+03  0.12509000000E+03 0.  0.
         25    1    3    3    0    0 -0.83440092620E+02  0.31642696503E+02  0.71294652176E+02  0.16939287124E+03  0.12509000000E+03 0.  0.
         25    1    4    4    0    0  0.76428916185E+02 -0.36851425590E+02 -0.39616688561E+02  0.15625746993E+03  0.12509000000E+03 0.  0.
<mgrwt>
<rscale>  2 0.45083731E+03</rscale>
<asrwt>0</asrwt>
<pdfrwt beam="1">  1       21 0.34834146E-01 0.45083731E+03</pdfrwt>
<pdfrwt beam="2">  1       21 0.31546902E-01 0.45083731E+03</pdfrwt>
<totfact> 0.71144781E+04</totfact>
</mgrwt>
</event>
<event>
 7    0  0.4748297E-002  0.4478275E+03  0.7546771E-02  0.1028372E+00
         21   -1    0    0  502  501  0.00000000000E+00  0.00000000000E+00  0.35643475894E+03  0.35643475894E+03  0.00000000000E+00 0. -1.
         21   -1    0    0  501  502 -0.00000000000E+00 -0.00000000000E+00 -0.14066351648E+03  0.14066351648E+03  0.00000000000E+00 0. -1.
      99926    2    1    2    0    0  0.00000000000E+00  0.14210854715E-13  0.21577124246E+03  0.49709827542E+03  0.44782749620E+03 0.  0.
      99925    2    3    3    0    0 -0.44853516532E+02  0.90576358075E+02  0.17305666564E+03  0.33070128699E+03  0.26305668041E+03 0.  0.
         25    1    4    4    0    0  0.38140987190E+01  0.39695018904E+02  0.46348138324E+02  0.13923325717E+03  0.12509000000E+03 0.  0.
         25    1    3    3    0    0  0.44853516532E+02 -0.90576358075E+02  0.42714576823E+02  0.16639698844E+03  0.12509000000E+03 0.  0.
         25    1    4    4    0    0 -0.48667615251E+02  0.50881339172E+02  0.12670852731E+03  0.19146802982E+03  0.12509000000E+03 0.  0.
<mgrwt>
<rscale>  2 0.44782750E+03</rscale>
<asrwt>0</asrwt>
<pdfrwt beam="1">  1       21 0.52416876E-01 0.44782750E+03</pdfrwt>
<pdfrwt beam="2">  1       21 0.20685811E-01 0.44782750E+03</pdfrwt>
<totfact> 0.69339505E+04</totfact>
</mgrwt>
</event>
<event>
 7    0  0.4748297E-002  0.4585909E+03  0.7546771E-02  0.1025191E+00
         21   -1    0    0  502  501  0.00000000000E+00  0.00000000000E+00  0.31336272911E+03  0.31336272911E+03  0.00000000000E+00 0.  1.
         21   -1    0    0  501  502 -0.00000000000E+00 -0.00000000000E+00 -0.16778126815E+03  0.16778126815E+03  0.00000000000E+00 0.  1.
      99926    2    1    2    0    0  0.14210854715E-13  0.00000000000E+00  0.14558146096E+03  0.48114399727E+03  0.45859086813E+03 0.  0.
      99925    2    3    3    0    0 -0.11239675586E+03  0.56377540929E+01  0.59240821417E+02  0.29202226626E+03  0.26287395092E+03 0.  0.
         25    1    3    3    0    0  0.11239675586E+03 -0.56377540929E+01  0.86340639547E+02  0.18912173100E+03  0.12509000000E+03 0.  0.
         25    1    4    4    0    0 -0.52690608348E+02  0.42957837279E+02  0.31799304051E+02  0.14587796211E+03  0.12509000000E+03 0.  0.
         25    1    4    4    0    0 -0.59706147516E+02 -0.37320083186E+02  0.27441517366E+02  0.14614430415E+03  0.12509000000E+03 0.  0.
<mgrwt>
<rscale>  2 0.45859087E+03</rscale>
<asrwt>0</asrwt>
<pdfrwt beam="1">  1       21 0.46082755E-01 0.45859087E+03</pdfrwt>
<pdfrwt beam="2">  1       21 0.24673716E-01 0.45859087E+03</pdfrwt>
<totfact> 0.64751631E+04</totfact>
</mgrwt>
</event>
<event>
 7    0  0.4748297E-002  0.4548933E+03  0.7546771E-02  0.1026273E+00
         21   -1    0    0  502  501  0.00000000000E+00  0.00000000000E+00  0.16175913264E+03  0.16175913264E+03  0.00000000000E+00 0. -1.
         21   -1    0    0  501  502 -0.00000000000E+00 -0.00000000000E+00 -0.31980864103E+03  0.31980864103E+03  0.00000000000E+00 0. -1.
      99926    2    1    2    0    0  0.00000000000E+00  0.00000000000E+00 -0.15804950839E+03  0.48156777367E+03  0.45489325510E+03 0.  0.
      99925    2    3    3    0    0 -0.95007025243E+02  0.54209436981E+02 -0.66102807044E+02  0.29165542049E+03  0.26216083861E+03 0.  0.
         25    1    3    3    0    0  0.95007025243E+02 -0.54209436981E+02 -0.91946701341E+02  0.18991235318E+03  0.12509000000E+03 0.  0.
         25    1    4    4    0    0 -0.62657874417E+02  0.64128767050E+02 -0.26613740773E+02  0.15618677053E+03  0.12509000000E+03 0.  0.
         25    1    4    4    0    0 -0.32349150826E+02 -0.99193300699E+01 -0.39489066271E+02  0.13546864996E+03  0.12509000000E+03 0.  0.
<mgrwt>
<rscale>  2 0.45489326E+03</rscale>
<asrwt>0</asrwt>
<pdfrwt beam="1">  1       21 0.23788108E-01 0.45489326E+03</pdfrwt>
<pdfrwt beam="2">  1       21 0.47030682E-01 0.45489326E+03</pdfrwt>
<totfact> 0.66642604E+04</totfact>
</mgrwt>
</event>
<event>
 7    0  0.4748297E-002  0.4564538E+03  0.7546771E-02  0.1025815E+00
         21   -1    0    0  502  501  0.00000000000E+00  0.00000000000E+00  0.78204624701E+02  0.78204624701E+02  0.00000000000E+00 0.  1.
         21   -1    0    0  501  502 -0.00000000000E+00 -0.00000000000E+00 -0.66604133815E+03  0.66604133815E+03  0.00000000000E+00 0.  1.
      99926    2    1    2    0    0  0.00000000000E+00 -0.14210854715E-13 -0.58783671345E+03  0.74424596285E+03  0.45645377810E+03 0.  0.
      99925    2    3    3    0    0 -0.56636528797E+02  0.81841996971E+02 -0.27676513399E+03  0.39450485216E+03  0.26292457116E+03 0.  0.
         25    1    3    3    0    0  0.56636528797E+02 -0.81841996971E+02 -0.31107157945E+03  0.34974111069E+03  0.12509000000E+03 0.  0.
         25    1    4    4    0    0 -0.36679231016E+01  0.63620245231E+01 -0.13433730000E+03  0.18370614385E+03  0.12509000000E+03 0.  0.
         25    1    4    4    0    0 -0.52968605696E+02  0.75479972448E+02 -0.14242783399E+03  0.21079870831E+03  0.12509000000E+03 0.  0.
<mgrwt>
<rscale>  2 0.45645378E+03</rscale>
<asrwt>0</asrwt>
<pdfrwt beam="1">  1       21 0.11500680E-01 0.45645378E+03</pdfrwt>
<pdfrwt beam="2">  1       21 0.97947253E-01 0.45645378E+03</pdfrwt>
<totfact> 0.49991900E+04</totfact>
</mgrwt>
</event>
<event>
 7    0  0.4748297E-002  0.4555722E+03  0.7546771E-02  0.1026073E+00
         21   -1    0    0  502  501  0.00000000000E+00  0.00000000000E+00  0.69569441809E+03  0.69569441809E+03  0.00000000000E+00 0.  1.
         21   -1    0    0  501  502 -0.00000000000E+00 -0.00000000000E+00 -0.74582329298E+02  0.74582329298E+02  0.00000000000E+00 0.  1.
      99926    2    1    2    0    0  0.00000000000E+00  0.00000000000E+00  0.62111208879E+03  0.77027674739E+03  0.45557221241E+03 0.  0.
      99925    2    3    3    0    0 -0.19092278152E+02  0.52900057920E+02  0.22353495577E+03  0.34970806571E+03  0.26299224999E+03 0.  0.
         25    1    4    4    0    0  0.14156316726E+01  0.27209513224E+02  0.16199729713E+03  0.20647758716E+03  0.12509000000E+03 0.  0.
         25    1    3    3    0    0  0.19092278152E+02 -0.52900057920E+02  0.39757713302E+03  0.42056868168E+03  0.12509000000E+03 0.  0.
         25    1    4    4    0    0 -0.20507909825E+02  0.25690544696E+02  0.61537658644E+02  0.14323047854E+03  0.12509000000E+03 0.  0.
<mgrwt>
<rscale>  2 0.45557221E+03</rscale>
<asrwt>0</asrwt>
<pdfrwt beam="1">  1       21 0.10230800E+00 0.45557221E+03</pdfrwt>
<pdfrwt beam="2">  1       21 0.10967990E-01 0.45557221E+03</pdfrwt>
<totfact> 0.49015497E+04</totfact>
</mgrwt>
</event>
<event>
 7    0  0.4748297E-002  0.4554044E+03  0.7546771E-02  0.1026123E+00
         21   -1    0    0  502  501  0.00000000000E+00  0.00000000000E+00  0.13199742992E+04  0.13199742992E+04  0.00000000000E+00 0.  1.
         21   -1    0    0  501  502 -0.00000000000E+00 -0.00000000000E+00 -0.39279775221E+02  0.39279775221E+02  0.00000000000E+00 0.  1.
      99926    2    1    2    0    0 -0.14210854715E-13 -0.71054273576E-14  0.12806945240E+04  0.13592540744E+04  0.45540440828E+03 0.  0.
      99925    2    3    3    0    0 -0.95744802428E+02 -0.37949422924E+02  0.66187028856E+03  0.71956808244E+03  0.26286635483E+03 0.  0.
         25    1    4    4    0    0 -0.46083295038E+02 -0.23121467327E+01  0.23046134270E+03  0.26624979753E+03  0.12509000000E+03 0.  0.
         25    1    4    4    0    0 -0.49661507390E+02 -0.35637276191E+02  0.43140894586E+03  0.45331828491E+03  0.12509000000E+03 0.  0.
         25    1    3    3    0    0  0.95744802428E+02  0.37949422924E+02  0.61882423541E+03  0.63968599197E+03  0.12509000000E+03 0.  0.
<mgrwt>
<rscale>  2 0.45540441E+03</rscale>
<asrwt>0</asrwt>
<pdfrwt beam="1">  1       21 0.19411384E+00 0.45540441E+03</pdfrwt>
<pdfrwt beam="2">  1       21 0.57764384E-02 0.45540441E+03</pdfrwt>
<totfact> 0.27352261E+04</totfact>
</mgrwt>
</event>
<event>
 7    0  0.4748297E-002  0.4491211E+03  0.7546771E-02  0.1027984E+00
         21   -1    0    0  502  501  0.00000000000E+00  0.00000000000E+00  0.24394669682E+02  0.24394669682E+02  0.00000000000E+00 0.  1.
         21   -1    0    0  501  502 -0.00000000000E+00 -0.00000000000E+00 -0.20671502643E+04  0.20671502643E+04  0.00000000000E+00 0.  1.
      99926    2    1    2    0    0  0.00000000000E+00  0.14210854715E-13 -0.20427555946E+04  0.20915449340E+04  0.44912113235E+03 0.  0.
      99925    2    3    3    0    0 -0.24602186199E+02 -0.10477708323E+03 -0.12699456603E+04  0.13013131911E+04  0.26281274046E+03 0.  0.
         25    1    4    4    0    0 -0.11413129507E+02 -0.67903306934E+02 -0.83231578701E+03  0.84447510089E+03  0.12509000000E+03 0.  0.
         25    1    3    3    0    0  0.24602186199E+02  0.10477708323E+03 -0.77280993431E+03  0.79023174285E+03  0.12509000000E+03 0.  0.
         25    1    4    4    0    0 -0.13189056692E+02 -0.36873776293E+02 -0.43762987329E+03  0.45683809024E+03  0.12509000000E+03 0.  0.
<mgrwt>
<rscale>  2 0.44912113E+03</rscale>
<asrwt>0</asrwt>
<pdfrwt beam="1">  1       21 0.35874507E-02 0.44912113E+03</pdfrwt>
<pdfrwt beam="2">  1       21 0.30399275E+00 0.44912113E+03</pdfrwt>
<totfact> 0.12848708E+04</totfact>
</mgrwt>
</event>
<event>
 7    0  0.4748297E-002  0.4569526E+03  0.7546771E-02  0.1025669E+00
         21   -1    0    0  502  501  0.00000000000E+00  0.00000000000E+00  0.36733817144E+03  0.36733817144E+03  0.00000000000E+00 0. -1.
         21   -1    0    0  501  502 -0.00000000000E+00 -0.00000000000E+00 -0.14210725618E+03  0.14210725618E+03  0.00000000000E+00 0. -1.
      99926    2    1    2    0    0  0.00000000000E+00  0.00000000000E+00  0.22523091526E+03  0.50944542762E+03  0.45695259988E+03 0.  0.
      99925    2    3    3    0    0 -0.94140700900E+02 -0.29329891385E+02  0.75460450708E+02  0.29081008225E+03  0.26297055010E+03 0.  0.
         25    1    4    4    0    0 -0.66120708112E+01 -0.26393769728E+02  0.38884499415E+02  0.13379036944E+03  0.12509000000E+03 0.  0.
         25    1    3    3    0    0  0.94140700900E+02  0.29329891385E+02  0.14977046455E+03  0.21863534537E+03  0.12509000000E+03 0.  0.
         25    1    4    4    0    0 -0.87528630088E+02 -0.29361216573E+01  0.36575951293E+02  0.15701971280E+03  0.12509000000E+03 0.  0.
<mgrwt>
<rscale>  2 0.45695260E+03</rscale>
<asrwt>0</asrwt>
<pdfrwt beam="1">  1       21 0.54020319E-01 0.45695260E+03</pdfrwt>
<pdfrwt beam="2">  1       21 0.20898126E-01 0.45695260E+03</pdfrwt>
<totfact> 0.63620392E+04</totfact>
</mgrwt>
</event>
<event>
 7    0  0.4748297E-002  0.4404501E+03  0.7546771E-02  0.1030609E+00
         21   -1    0    0  502  501  0.00000000000E+00  0.00000000000E+00  0.18972465600E+04  0.18972465600E+04  0.00000000000E+00 0. -1.
         21   -1    0    0  501  502 -0.00000000000E+00 -0.00000000000E+00 -0.25562869601E+02  0.25562869601E+02  0.00000000000E+00 0. -1.
      99926    2    1    2    0    0  0.00000000000E+00  0.00000000000E+00  0.18716836904E+04  0.19228094296E+04  0.44045007169E+03 0.  0.
      99925    2    3    3    0    0  0.28444123366E+02  0.85405017766E+02  0.13755297228E+04  0.14032717958E+04  0.26265305923E+03 0.  0.
         25    1    4    4    0    0 -0.14637804452E+02  0.61648831236E+02  0.80501637717E+03  0.81713751555E+03  0.12509000000E+03 0.  0.
         25    1    4    4    0    0  0.43081927818E+02  0.23756186530E+02  0.57051334561E+03  0.58613428029E+03  0.12509000000E+03 0.  0.
         25    1    3    3    0    0 -0.28444123366E+02 -0.85405017766E+02  0.49615396758E+03  0.51953763372E+03  0.12509000000E+03 0.  0.
<mgrwt>
<rscale>  2 0.44045007E+03</rscale>
<asrwt>0</asrwt>
<pdfrwt beam="1">  1       21 0.27900675E+00 0.44045007E+03</pdfrwt>
<pdfrwt beam="2">  1       21 0.37592468E-02 0.44045007E+03</pdfrwt>
<totfact> 0.16833467E+04</totfact>
</mgrwt>
</event>
<event>
 7    0  0.4748297E-002  0.4583093E+03  0.7546771E-02  0.1025273E+00
         21   -1    0    0  502  501  0.00000000000E+00  0.00000000000E+00  0.10662498818E+04  0.10662498818E+04  0.00000000000E+00 0.  1.
         21   -1    0    0  501  502 -0.00000000000E+00 -0.00000000000E+00 -0.49249109370E+02  0.49249109370E+02  0.00000000000E+00 0.  1.
      99926    2    1    2    0    0  0.00000000000E+00  0.17763568394E-14  0.10170007724E+04  0.11154989912E+04  0.45830931496E+03 0.  0.
      99925    2    3    3    0    0 -0.37907823014E+02  0.13166851839E+02  0.37255268543E+03  0.45779752853E+03  0.26300704300E+03 0.  0.
         25    1    4    4    0    0 -0.47734764321E+02 -0.18264720449E+02  0.21512173567E+03  0.25404148676E+03  0.12509000000E+03 0.  0.
         25    1    4    4    0    0  0.98269413074E+01  0.31431572289E+02  0.15743094977E+03  0.20375604177E+03  0.12509000000E+03 0.  0.
         25    1    3    3    0    0  0.37907823014E+02 -0.13166851839E+02  0.64444808699E+03  0.65770146264E+03  0.12509000000E+03 0.  0.
<mgrwt>
<rscale>  2 0.45830931E+03</rscale>
<asrwt>0</asrwt>
<pdfrwt beam="1">  1       21 0.15680144E+00 0.45830931E+03</pdfrwt>
<pdfrwt beam="2">  1       21 0.72425167E-02 0.45830931E+03</pdfrwt>
<totfact> 0.34067821E+04</totfact>
</mgrwt>
</event>
<event>
 7    0  0.4748297E-002  0.4522397E+03  0.7546771E-02  0.1027056E+00
         21   -1    0    0  502  501  0.00000000000E+00  0.00000000000E+00  0.57977057501E+02  0.57977057501E+02  0.00000000000E+00 0. -1.
         21   -1    0    0  501  502 -0.00000000000E+00 -0.00000000000E+00 -0.88190381905E+03  0.88190381905E+03  0.00000000000E+00 0. -1.
      99926    2    1    2    0    0  0.00000000000E+00  0.00000000000E+00 -0.82392676155E+03  0.93988087655E+03  0.45223970824E+03 0.  0.
      99925    2    3    3    0    0 -0.29598976700E+02 -0.38536098179E+02 -0.72619046526E+03  0.77386575074E+03  0.26297239029E+03 0.  0.
         25    1    4    4    0    0 -0.21509499895E+02 -0.35719131502E+02 -0.26581193097E+03  0.29671873160E+03  0.12509000000E+03 0.  0.
         25    1    4    4    0    0 -0.80894768041E+01 -0.28169666770E+01 -0.46037853429E+03  0.47714701914E+03  0.12509000000E+03 0.  0.
         25    1    3    3    0    0  0.29598976700E+02  0.38536098179E+02 -0.97736296290E+02  0.16601512581E+03  0.12509000000E+03 0.  0.
<mgrwt>
<rscale>  2 0.45223971E+03</rscale>
<asrwt>0</asrwt>
<pdfrwt beam="1">  1       21 0.85260379E-02 0.45223971E+03</pdfrwt>
<pdfrwt beam="2">  1       21 0.12969174E+00 0.45223971E+03</pdfrwt>
<totfact> 0.42462554E+04</totfact>
</mgrwt>
</event>
<event>
 7    0  0.4748297E-002  0.4588398E+03  0.7546771E-02  0.1025118E+00
         21   -1    0    0  502  501  0.00000000000E+00  0.00000000000E+00  0.35190576470E+02  0.35190576470E+02  0.00000000000E+00 0.  1.
         21   -1    0    0  501  502 -0.00000000000E+00 -0.00000000000E+00 -0.14956697185E+04  0.14956697185E+04  0.00000000000E+00 0.  1.
      99926    2    1    2    0    0  0.14210854715E-13  0.00000000000E+00 -0.14604791420E+04  0.15308602950E+04  0.45883975243E+03 0.  0.
      99925    2    3    3    0    0  0.87023550687E+02  0.28037157300E+02 -0.67357980030E+03  0.72885202651E+03  0.26297594683E+03 0.  0.
         25    1    4    4    0    0  0.29924251581E+02  0.36784971296E+02 -0.41242877959E+03  0.43358228893E+03  0.12509000000E+03 0.  0.
         25    1    3    3    0    0 -0.87023550687E+02 -0.28037157300E+02 -0.78689934172E+03  0.80200826845E+03  0.12509000000E+03 0.  0.
         25    1    4    4    0    0  0.57099299106E+02 -0.87478139962E+01 -0.26115102072E+03  0.29526973758E+03  0.12509000000E+03 0.  0.
<mgrwt>
<rscale>  2 0.45883975E+03</rscale>
<asrwt>0</asrwt>
<pdfrwt beam="1">  1       21 0.51750847E-02 0.45883975E+03</pdfrwt>
<pdfrwt beam="2">  1       21 0.21995143E+00 0.45883975E+03</pdfrwt>
<totfact> 0.22358577E+04</totfact>
</mgrwt>
</event>
<event>
 7    0  0.4748297E-002  0.4588384E+03  0.7546771E-02  0.1025119E+00
         21   -1    0    0  502  501  0.00000000000E+00  0.00000000000E+00  0.81503974652E+03  0.81503974652E+03  0.00000000000E+00 0. -1.
         21   -1    0    0  501  502 -0.00000000000E+00 -0.00000000000E+00 -0.64577421923E+02  0.64577421923E+02  0.00000000000E+00 0. -1.
      99926    2    1    2    0    0 -0.71054273576E-14  0.00000000000E+00  0.75046232460E+03  0.87961716845E+03  0.45883838373E+03 0.  0.
      99925    2    3    3    0    0  0.43227480835E+02 -0.93344960220E+02  0.57630611842E+03  0.64179414822E+03  0.26303819089E+03 0.  0.
         25    1    4    4    0    0 -0.91133759758E+01 -0.44287602437E+02  0.33834705615E+03  0.36355286254E+03  0.12509000000E+03 0.  0.
         25    1    4    4    0    0  0.52340856811E+02 -0.49057357783E+02  0.23795906227E+03  0.27824128569E+03  0.12509000000E+03 0.  0.
         25    1    3    3    0    0 -0.43227480835E+02  0.93344960220E+02  0.17415620618E+03  0.23782302022E+03  0.12509000000E+03 0.  0.
<mgrwt>
<rscale>  2 0.45883838E+03</rscale>
<asrwt>0</asrwt>
<pdfrwt beam="1">  1       21 0.11985878E+00 0.45883838E+03</pdfrwt>
<pdfrwt beam="2">  1       21 0.94966802E-02 0.45883838E+03</pdfrwt>
<totfact> 0.42824745E+04</totfact>
</mgrwt>
</event>
<event>
 7    0  0.4748297E-002  0.4496518E+03  0.7546771E-02  0.1027826E+00
         21   -1    0    0  502  501  0.00000000000E+00  0.00000000000E+00  0.10362196340E+04  0.10362196340E+04  0.00000000000E+00 0. -1.
         21   -1    0    0  501  502 -0.00000000000E+00 -0.00000000000E+00 -0.48779902953E+02  0.48779902953E+02  0.00000000000E+00 0. -1.
      99926    2    1    2    0    0  0.14210854715E-13  0.14210854715E-13  0.98743973105E+03  0.10849995370E+04  0.44965183502E+03 0.  0.
      99925    2    3    3    0    0 -0.56835443973E+02 -0.91484479274E+02  0.60311486598E+03  0.66672595704E+03  0.26301384487E+03 0.  0.
         25    1    3    3    0    0  0.56835443973E+02  0.91484479274E+02  0.38432486508E+03  0.41827357992E+03  0.12509000000E+03 0.  0.
         25    1    4    4    0    0 -0.36896310257E+02 -0.76039279419E+01  0.31484328917E+03  0.34087088797E+03  0.12509000000E+03 0.  0.
         25    1    4    4    0    0 -0.19939133716E+02 -0.83880551332E+02  0.28827157681E+03  0.32585506908E+03  0.12509000000E+03 0.  0.
<mgrwt>
<rscale>  2 0.44965184E+03</rscale>
<asrwt>0</asrwt>
<pdfrwt beam="1">  1       21 0.15238523E+00 0.44965184E+03</pdfrwt>
<pdfrwt beam="2">  1       21 0.71735158E-02 0.44965184E+03</pdfrwt>
<totfact> 0.37561812E+04</totfact>
</mgrwt>
</event>
<event>
 7    0  0.4748297E-002  0.4403602E+03  0.7546771E-02  0.1030636E+00
         21   -1    0    0  502  501  0.00000000000E+00  0.00000000000E+00  0.15934523233E+04  0.15934523233E+04  0.00000000000E+00 0.  1.
         21   -1    0    0  501  502 -0.00000000000E+00 -0.00000000000E+00 -0.30424046502E+02  0.30424046502E+02  0.00000000000E+00 0.  1.
      99926    2    1    2    0    0  0.71054273576E-14  0.14210854715E-13  0.15630282768E+04  0.16238763698E+04  0.44036015979E+03 0.  0.
      99925    2    3    3    0    0 -0.37643654349E+02  0.86254252727E+02  0.11080196388E+04  0.11426932346E+04  0.26302750362E+03 0.  0.
         25    1    4    4    0    0  0.92381193688E+00  0.78560136001E+02  0.55225620263E+03  0.57167033318E+03  0.12509000000E+03 0.  0.
         25    1    4    4    0    0 -0.38567466286E+02  0.76941167263E+01  0.55576343618E+03  0.57102290145E+03  0.12509000000E+03 0.  0.
         25    1    3    3    0    0  0.37643654349E+02 -0.86254252727E+02  0.45500863798E+03  0.48118313516E+03  0.12509000000E+03 0.  0.
<mgrwt>
<rscale>  2 0.44036016E+03</rscale>
<asrwt>0</asrwt>
<pdfrwt beam="1">  1       21 0.23433117E+00 0.44036016E+03</pdfrwt>
<pdfrwt beam="2">  1       21 0.44741256E-02 0.44036016E+03</pdfrwt>
<totfact> 0.23450184E+04</totfact>
</mgrwt>
</event>
<event>
 7    0  0.4748297E-002  0.4646040E+03  0.7546771E-02  0.1023454E+00
         21   -1    0    0  502  501  0.00000000000E+00  0.00000000000E+00  0.12901800001E+04  0.12901800001E+04  0.00000000000E+00 0.  1.
         21   -1    0    0  501  502 -0.00000000000E+00 -0.00000000000E+00 -0.41826892650E+02  0.41826892650E+02  0.00000000000E+00 0.  1.
      99926    2    1    2    0    0  0.00000000000E+00  0.00000000000E+00  0.12483531075E+04  0.13320068928E+04  0.46460400500E+03 0.  0.
      99925    2    3    3    0    0  0.15245163678E+02  0.12010542284E+03  0.73247751930E+03  0.78755041317E+03  0.26278243737E+03 0.  0.
         25    1    4    4    0    0  0.64778593094E+01  0.44019932851E+02  0.24728522397E+03  0.28067277610E+03  0.12509000000E+03 0.  0.
         25    1    3    3    0    0 -0.15245163678E+02 -0.12010542284E+03  0.51587558819E+03  0.54445647962E+03  0.12509000000E+03 0.  0.
         25    1    4    4    0    0  0.87673043687E+01  0.76085489989E+02  0.48519229534E+03  0.50687763707E+03  0.12509000000E+03 0.  0.
<mgrwt>
<rscale>  2 0.46460400E+03</rscale>
<asrwt>0</asrwt>
<pdfrwt beam="1">  1       21 0.18973233E+00 0.46460400E+03</pdfrwt>
<pdfrwt beam="2">  1       21 0.61510145E-02 0.46460400E+03</pdfrwt>
<totfact> 0.26188223E+04</totfact>
</mgrwt>
</event>
<event>
 7    0  0.4748297E-002  0.4551732E+03  0.7546771E-02  0.1026190E+00
         21   -1    0    0  502  501  0.00000000000E+00  0.00000000000E+00  0.22579993559E+03  0.22579993559E+03  0.00000000000E+00 0.  1.
         21   -1    0    0  501  502 -0.00000000000E+00 -0.00000000000E+00 -0.22938735364E+03  0.22938735364E+03  0.00000000000E+00 0.  1.
      99926    2    1    2    0    0  0.00000000000E+00 -0.71054273576E-14 -0.35874180496E+01  0.45518728923E+03  0.45517315245E+03 0.  0.
      99925    2    3    3    0    0 -0.95184552930E+02  0.58906949946E+02  0.15379272006E+02  0.28625721109E+03  0.26301433616E+03 0.  0.
         25    1    4    4    0    0 -0.71892584363E+02  0.52579149002E+02 -0.17860382424E+02  0.15459499331E+03  0.12509000000E+03 0.  0.
         25    1    4    4    0    0 -0.23291968567E+02  0.63278009440E+01  0.33239654431E+02  0.13166221778E+03  0.12509000000E+03 0.  0.
         25    1    3    3    0    0  0.95184552930E+02 -0.58906949946E+02 -0.18966690056E+02  0.16893007814E+03  0.12509000000E+03 0.  0.
<mgrwt>
<rscale>  2 0.45517315E+03</rscale>
<asrwt>0</asrwt>
<pdfrwt beam="1">  1       21 0.33205873E-01 0.45517315E+03</pdfrwt>
<pdfrwt beam="2">  1       21 0.33733434E-01 0.45517315E+03</pdfrwt>
<totfact> 0.68437471E+04</totfact>
</mgrwt>
</event>
<event>
 7    0  0.4748297E-002  0.4567532E+03  0.7546771E-02  0.1025727E+00
         21   -1    0    0  502  501  0.00000000000E+00  0.00000000000E+00  0.51500268390E+02  0.51500268390E+02  0.00000000000E+00 0. -1.
         21   -1    0    0  501  502 -0.00000000000E+00 -0.00000000000E+00 -0.10127299054E+04  0.10127299054E+04  0.00000000000E+00 0. -1.
      99926    2    1    2    0    0  0.00000000000E+00 -0.71054273576E-14 -0.96122963697E+03  0.10642301738E+04  0.45675315843E+03 0.  0.
      99925    2    3    3    0    0 -0.56233114387E+02 -0.63869559720E+02 -0.42416701846E+03  0.50626489875E+03  0.26295437691E+03 0.  0.
         25    1    4    4    0    0 -0.40591767203E+02 -0.31514334101E+00 -0.24597135736E+03  0.27892150799E+03  0.12509000000E+03 0.  0.
         25    1    4    4    0    0 -0.15641347184E+02 -0.63554416379E+02 -0.17819566110E+03  0.22734339075E+03  0.12509000000E+03 0.  0.
         25    1    3    3    0    0  0.56233114387E+02  0.63869559720E+02 -0.53706261851E+03  0.55796527501E+03  0.12509000000E+03 0.  0.
<mgrwt>
<rscale>  2 0.45675316E+03</rscale>
<asrwt>0</asrwt>
<pdfrwt beam="1">  1       21 0.75735696E-02 0.45675316E+03</pdfrwt>
<pdfrwt beam="2">  1       21 0.14893085E+00 0.45675316E+03</pdfrwt>
<totfact> 0.36260881E+04</totfact>
</mgrwt>
</event>
<event>
 7    0  0.4748297E-002  0.4576959E+03  0.7546771E-02  0.1025452E+00
         21   -1    0    0  502  501  0.00000000000E+00  0.00000000000E+00  0.17129327288E+03  0.17129327288E+03  0.00000000000E+00 0. -1.
         21   -1    0    0  501  502 -0.00000000000E+00 -0.00000000000E+00 -0.30574104831E+03  0.30574104831E+03  0.00000000000E+00 0. -1.
      99926    2    1    2    0    0  0.00000000000E+00 -0.71054273576E-14 -0.13444777542E+03  0.47703432119E+03  0.45769590262E+03 0.  0.
      99925    2    3    3    0    0  0.10336742435E+03 -0.40115757728E+02 -0.49949149469E+02  0.28973342871E+03  0.26297612771E+03 0.  0.
         25    1    4    4    0    0  0.54354502209E+02  0.19043125242E+02 -0.35581668431E+02  0.14223436912E+03  0.12509000000E+03 0.  0.
         25    1    3    3    0    0 -0.10336742435E+03  0.40115757728E+02 -0.84498625956E+02  0.18730089248E+03  0.12509000000E+03 0.  0.
         25    1    4    4    0    0  0.49012922139E+02 -0.59158882970E+02 -0.14367481038E+02  0.14749905960E+03  0.12509000000E+03 0.  0.
<mgrwt>
<rscale>  2 0.45769590E+03</rscale>
<asrwt>0</asrwt>
<pdfrwt beam="1">  1       21 0.25190188E-01 0.45769590E+03</pdfrwt>
<pdfrwt beam="2">  1       21 0.44961918E-01 0.45769590E+03</pdfrwt>
<totfact> 0.65503931E+04</totfact>
</mgrwt>
</event>
<event>
 7    0  0.4748297E-002  0.4557714E+03  0.7546771E-02  0.1026015E+00
         21   -1    0    0  502  501  0.00000000000E+00  0.00000000000E+00  0.10209928099E+03  0.10209928099E+03  0.00000000000E+00 0.  1.
         21   -1    0    0  501  502 -0.00000000000E+00 -0.00000000000E+00 -0.50864103346E+03  0.50864103346E+03  0.00000000000E+00 0.  1.
      99926    2    1    2    0    0 -0.35527136788E-14  0.00000000000E+00 -0.40654175246E+03  0.61074031445E+03  0.45577136286E+03 0.  0.
      99925    2    3    3    0    0 -0.21234188698E+02  0.99032134499E+02 -0.18607198540E+03  0.33777020487E+03  0.26307351276E+03 0.  0.
         25    1    4    4    0    0 -0.37054958778E+02  0.37898033535E+02 -0.57243988709E+02  0.14742358447E+03  0.12509000000E+03 0.  0.
         25    1    3    3    0    0  0.21234188698E+02 -0.99032134499E+02 -0.22046976707E+03  0.27297010958E+03  0.12509000000E+03 0.  0.
         25    1    4    4    0    0  0.15820770079E+02  0.61134100964E+02 -0.12882799669E+03  0.19034662040E+03  0.12509000000E+03 0.  0.
<mgrwt>
<rscale>  2 0.45577136E+03</rscale>
<asrwt>0</asrwt>
<pdfrwt beam="1">  1       21 0.15014600E-01 0.45577136E+03</pdfrwt>
<pdfrwt beam="2">  1       21 0.74800152E-01 0.45577136E+03</pdfrwt>
<totfact> 0.57669822E+04</totfact>
</mgrwt>
</event>
<event>
 7    0  0.4748297E-002  0.4558640E+03  0.7546771E-02  0.1025988E+00
         21   -1    0    0  502  501  0.00000000000E+00  0.00000000000E+00  0.82579589023E+02  0.82579589023E+02  0.00000000000E+00 0. -1.
         21   -1    0    0  501  502 -0.00000000000E+00 -0.00000000000E+00 -0.62912629565E+03  0.62912629565E+03  0.00000000000E+00 0. -1.
      99926    2    1    2    0    0  0.00000000000E+00  0.00000000000E+00 -0.54654670663E+03  0.71170588468E+03  0.45586397506E+03 0.  0.
      99925    2    3    3    0    0 -0.69127404920E+02 -0.63232306399E+01 -0.48477332166E+03  0.55587892761E+03  0.26301640142E+03 0.  0.
         25    1    3    3    0    0  0.69127404920E+02  0.63232306399E+01 -0.61773384971E+02  0.15582695706E+03  0.12509000000E+03 0.  0.
         25    1    4    4    0    0 -0.18385542168E+01  0.18202667411E+02 -0.25537750108E+03  0.28495595018E+03  0.12509000000E+03 0.  0.
         25    1    4    4    0    0 -0.67288850703E+02 -0.24525898051E+02 -0.22939582057E+03  0.27092297743E+03  0.12509000000E+03 0.  0.
<mgrwt>
<rscale>  2 0.45586398E+03</rscale>
<asrwt>0</asrwt>
<pdfrwt beam="1">  1       21 0.12144058E-01 0.45586398E+03</pdfrwt>
<pdfrwt beam="2">  1       21 0.92518570E-01 0.45586398E+03</pdfrwt>
<totfact> 0.51918227E+04</totfact>
</mgrwt>
</event>
<event>
 7    0  0.4748297E-002  0.4551516E+03  0.7546771E-02  0.1026197E+00
         21   -1    0    0  502  501  0.00000000000E+00  0.00000000000E+00  0.74273392825E+02  0.74273392825E+02  0.00000000000E+00 0.  1.
         21   -1    0    0  501  502 -0.00000000000E+00 -0.00000000000E+00 -0.69729872289E+03  0.69729872289E+03  0.00000000000E+00 0.  1.
      99926    2    1    2    0    0  0.00000000000E+00  0.00000000000E+00 -0.62302533006E+03  0.77157211571E+03  0.45515158777E+03 0.  0.
      99925    2    3    3    0    0 -0.56600808542E+01  0.29577972286E+02 -0.57718800437E+03  0.63498711842E+03  0.26297481858E+03 0.  0.
         25    1    4    4    0    0  0.53405351995E+01  0.52136998119E+02 -0.33088071992E+03  0.35759802405E+03  0.12509000000E+03 0.  0.
         25    1    3    3    0    0  0.56600808542E+01 -0.29577972286E+02 -0.45837325690E+02  0.13658499730E+03  0.12509000000E+03 0.  0.
         25    1    4    4    0    0 -0.11000616054E+02 -0.22559025833E+02 -0.24630728445E+03  0.27738909436E+03  0.12509000000E+03 0.  0.
<mgrwt>
<rscale>  2 0.45515159E+03</rscale>
<asrwt>0</asrwt>
<pdfrwt beam="1">  1       21 0.10922558E-01 0.45515159E+03</pdfrwt>
<pdfrwt beam="2">  1       21 0.10254393E+00 0.45515159E+03</pdfrwt>
<totfact> 0.49112077E+04</totfact>
</mgrwt>
</event>
<event>
 7    0  0.4748297E-002  0.4586446E+03  0.7546771E-02  0.1025175E+00
         21   -1    0    0  502  501  0.00000000000E+00  0.00000000000E+00  0.17554273641E+04  0.17554273641E+04  0.00000000000E+00 0. -1.
         21   -1    0    0  501  502 -0.00000000000E+00 -0.00000000000E+00 -0.29957780450E+02  0.29957780450E+02  0.00000000000E+00 0. -1.
      99926    2    1    2    0    0  0.00000000000E+00  0.00000000000E+00  0.17254695837E+04  0.17853851446E+04  0.45864455767E+03 0.  0.
      99925    2    3    3    0    0  0.70408221560E+02  0.61993165305E+02  0.13515401610E+04  0.13800813185E+04  0.26298891345E+03 0.  0.
         25    1    4    4    0    0  0.73952605097E+01  0.60314198260E+02  0.68948929892E+03  0.70337436250E+03  0.12509000000E+03 0.  0.
         25    1    3    3    0    0 -0.70408221560E+02 -0.61993165305E+02  0.37392942265E+03  0.40530382607E+03  0.12509000000E+03 0.  0.
         25    1    4    4    0    0  0.63012961050E+02  0.16789670448E+01  0.66205086208E+03  0.67670695598E+03  0.12509000000E+03 0.  0.
<mgrwt>
<rscale>  2 0.45864456E+03</rscale>
<asrwt>0</asrwt>
<pdfrwt beam="1">  1       21 0.25815101E+00 0.45864456E+03</pdfrwt>
<pdfrwt beam="2">  1       21 0.44055571E-02 0.45864456E+03</pdfrwt>
<totfact> 0.17054298E+04</totfact>
</mgrwt>
</event>
<event>
 7    0  0.4748297E-002  0.4598872E+03  0.7546771E-02  0.1024814E+00
         21   -1    0    0  502  501  0.00000000000E+00  0.00000000000E+00  0.99548760985E+03  0.99548760985E+03  0.00000000000E+00 0.  1.
         21   -1    0    0  501  502 -0.00000000000E+00 -0.00000000000E+00 -0.53113735760E+02  0.53113735760E+02  0.00000000000E+00 0.  1.
      99926    2    1    2    0    0  0.00000000000E+00  0.00000000000E+00  0.94237387409E+03  0.10486013456E+04  0.45988722906E+03 0.  0.
      99925    2    3    3    0    0 -0.92642237051E+02  0.67506325640E+01  0.75537996197E+03  0.80520375647E+03  0.26291832834E+03 0.  0.
         25    1    4    4    0    0 -0.27817191179E+02  0.18624700315E+02  0.45747959809E+03  0.47545322205E+03  0.12509000000E+03 0.  0.
         25    1    4    4    0    0 -0.64825045873E+02 -0.11874067751E+02  0.29790036388E+03  0.32975053443E+03  0.12509000000E+03 0.  0.
         25    1    3    3    0    0  0.92642237051E+02 -0.67506325640E+01  0.18699391213E+03  0.24339758914E+03  0.12509000000E+03 0.  0.
<mgrwt>
<rscale>  2 0.45988723E+03</rscale>
<asrwt>0</asrwt>
<pdfrwt beam="1">  1       21 0.14639523E+00 0.45988723E+03</pdfrwt>
<pdfrwt beam="2">  1       21 0.78108441E-02 0.45988723E+03</pdfrwt>
<totfact> 0.35938128E+04</totfact>
</mgrwt>
</event>
<event>
 7    0  0.4748297E-002  0.4583068E+03  0.7546771E-02  0.1025273E+00
         21   -1    0    0  502  501  0.00000000000E+00  0.00000000000E+00  0.54331176404E+03  0.54331176404E+03  0.00000000000E+00 0.  1.
         21   -1    0    0  501  502 -0.00000000000E+00 -0.00000000000E+00 -0.96650373627E+02  0.96650373627E+02  0.00000000000E+00 0.  1.
      99926    2    1    2    0    0  0.00000000000E+00  0.71054273576E-14  0.44666139041E+03  0.63996213767E+03  0.45830681858E+03 0.  0.
      99925    2    3    3    0    0  0.10125607869E+03 -0.56210070073E+02  0.28666276484E+03  0.40616856689E+03  0.26341032352E+03 0.  0.
         25    1    4    4    0    0  0.64282553090E+02 -0.34939653647E+02  0.20417749271E+03  0.25037768003E+03  0.12509000000E+03 0.  0.
         25    1    4    4    0    0  0.36973525605E+02 -0.21270416426E+02  0.82485272130E+02  0.15579088686E+03  0.12509000000E+03 0.  0.
         25    1    3    3    0    0 -0.10125607869E+03  0.56210070073E+02  0.15999862558E+03  0.23379357078E+03  0.12509000000E+03 0.  0.
<mgrwt>
<rscale>  2 0.45830682E+03</rscale>
<asrwt>0</asrwt>
<pdfrwt beam="1">  1       21 0.79898788E-01 0.45830682E+03</pdfrwt>
<pdfrwt beam="2">  1       21 0.14213290E-01 0.45830682E+03</pdfrwt>
<totfact> 0.54838338E+04</totfact>
</mgrwt>
</event>
<event>
 7    0  0.4748297E-002  0.4528356E+03  0.7546771E-02  0.1026880E+00
         21   -1    0    0  502  501  0.00000000000E+00  0.00000000000E+00  0.43681339913E+02  0.43681339913E+02  0.00000000000E+00 0. -1.
         21   -1    0    0  501  502 -0.00000000000E+00 -0.00000000000E+00 -0.11736139786E+04  0.11736139786E+04  0.00000000000E+00 0. -1.
      99926    2    1    2    0    0  0.00000000000E+00  0.00000000000E+00 -0.11299326387E+04  0.12172953186E+04  0.45283564846E+03 0.  0.
      99925    2    3    3    0    0  0.17697855279E+02 -0.98484401274E+02 -0.58254823775E+03  0.64695368242E+03  0.26300993615E+03 0.  0.
         25    1    3    3    0    0 -0.17697855279E+02  0.98484401274E+02 -0.54738440098E+03  0.57034163614E+03  0.12509000000E+03 0.  0.
         25    1    4    4    0    0  0.30454657192E+02 -0.80930895435E+02 -0.27527868996E+03  0.31448872989E+03  0.12509000000E+03 0.  0.
         25    1    4    4    0    0 -0.12756801913E+02 -0.17553505839E+02 -0.30726954779E+03  0.33246495253E+03  0.12509000000E+03 0.  0.
<mgrwt>
<rscale>  2 0.45283565E+03</rscale>
<asrwt>0</asrwt>
<pdfrwt beam="1">  1       21 0.64237274E-02 0.45283565E+03</pdfrwt>
<pdfrwt beam="2">  1       21 0.17259027E+00 0.45283565E+03</pdfrwt>
<totfact> 0.32151106E+04</totfact>
</mgrwt>
</event>
<event>
 7    0  0.4748297E-002  0.4603071E+03  0.7546771E-02  0.1024692E+00
         21   -1    0    0  502  501  0.00000000000E+00  0.00000000000E+00  0.10865371992E+04  0.10865371992E+04  0.00000000000E+00 0.  1.
         21   -1    0    0  501  502 -0.00000000000E+00 -0.00000000000E+00 -0.48751805343E+02  0.48751805343E+02  0.00000000000E+00 0.  1.
      99926    2    1    2    0    0  0.00000000000E+00  0.00000000000E+00  0.10377853939E+04  0.11352890046E+04  0.46030707157E+03 0.  0.
      99925    2    3    3    0    0  0.23094679446E+02  0.41417456211E+02  0.91637986791E+03  0.95463580162E+03  0.26330340204E+03 0.  0.
         25    1    4    4    0    0  0.81848579954E+01 -0.19501572430E+02  0.47136565553E+03  0.48813972645E+03  0.12509000000E+03 0.  0.
         25    1    3    3    0    0 -0.23094679446E+02 -0.41417456211E+02  0.12140552596E+03  0.18065320294E+03  0.12509000000E+03 0.  0.
         25    1    4    4    0    0  0.14909821450E+02  0.60919028641E+02  0.44501421239E+03  0.46649607517E+03  0.12509000000E+03 0.  0.
<mgrwt>
<rscale>  2 0.46030707E+03</rscale>
<asrwt>0</asrwt>
<pdfrwt beam="1">  1       21 0.15978487E+00 0.46030707E+03</pdfrwt>
<pdfrwt beam="2">  1       21 0.71693838E-02 0.46030707E+03</pdfrwt>
<totfact> 0.32895328E+04</totfact>
</mgrwt>
</event>
<event>
 7    0  0.4748297E-002  0.4913211E+03  0.7546771E-02  0.1016069E+00
         21   -1    0    0  502  501  0.00000000000E+00  0.00000000000E+00  0.52139382658E+02  0.52139382658E+02  0.00000000000E+00 0. -1.
         21   -1    0    0  501  502 -0.00000000000E+00 -0.00000000000E+00 -0.11574570865E+04  0.11574570865E+04  0.00000000000E+00 0. -1.
      99926    2    1    2    0    0  0.00000000000E+00  0.00000000000E+00 -0.11053177038E+04  0.12095964691E+04  0.49132106790E+03 0.  0.
      99925    2    3    3    0    0  0.57325705238E+02  0.13214962856E+03 -0.70604485019E+03  0.76708536130E+03  0.26300353654E+03 0.  0.
         25    1    4    4    0    0  0.77357251505E+01  0.10263139945E+03 -0.37082718171E+03  0.40466449361E+03  0.12509000000E+03 0.  0.
         25    1    3    3    0    0 -0.57325705238E+02 -0.13214962856E+03 -0.39927285362E+03  0.44251110782E+03  0.12509000000E+03 0.  0.
         25    1    4    4    0    0  0.49589980088E+02  0.29518229115E+02 -0.33521766848E+03  0.36242086769E+03  0.12509000000E+03 0.  0.
<mgrwt>
<rscale>  2 0.49132107E+03</rscale>
<asrwt>0</asrwt>
<pdfrwt beam="1">  1       21 0.76675559E-02 0.49132107E+03</pdfrwt>
<pdfrwt beam="2">  1       21 0.17021429E+00 0.49132107E+03</pdfrwt>
<totfact> 0.24235325E+04</totfact>
</mgrwt>
</event>
<event>
 7    0  0.4748297E-002  0.4536319E+03  0.7546771E-02  0.1026644E+00
         21   -1    0    0  502  501  0.00000000000E+00  0.00000000000E+00  0.10465476222E+03  0.10465476222E+03  0.00000000000E+00 0.  1.
         21   -1    0    0  501  502 -0.00000000000E+00 -0.00000000000E+00 -0.49157317572E+03  0.49157317572E+03  0.00000000000E+00 0.  1.
      99926    2    1    2    0    0 -0.71054273576E-14  0.00000000000E+00 -0.38691841350E+03  0.59622793793E+03  0.45363189401E+03 0.  0.
      99925    2    3    3    0    0 -0.45538815512E+02  0.27523763182E+02 -0.37319100866E+03  0.45959964291E+03  0.26292387027E+03 0.  0.
         25    1    3    3    0    0  0.45538815512E+02 -0.27523763182E+02 -0.13727404844E+02  0.13662829503E+03  0.12509000000E+03 0.  0.
         25    1    4    4    0    0 -0.34906361995E+02  0.48567174635E+02 -0.16437477149E+03  0.21504371221E+03  0.12509000000E+03 0.  0.
         25    1    4    4    0    0 -0.10632453517E+02 -0.21043411453E+02 -0.20881623717E+03  0.24455593070E+03  0.12509000000E+03 0.  0.
<mgrwt>
<rscale>  2 0.45363189E+03</rscale>
<asrwt>0</asrwt>
<pdfrwt beam="1">  1       21 0.15390406E-01 0.45363189E+03</pdfrwt>
<pdfrwt beam="2">  1       21 0.72290173E-01 0.45363189E+03</pdfrwt>
<totfact> 0.59552254E+04</totfact>
</mgrwt>
</event>
<event>
 7    0  0.4748297E-002  0.4545579E+03  0.7546771E-02  0.1026371E+00
         21   -1    0    0  502  501  0.00000000000E+00  0.00000000000E+00  0.68343733788E+02  0.68343733788E+02  0.00000000000E+00 0.  1.
         21   -1    0    0  501  502 -0.00000000000E+00 -0.00000000000E+00 -0.75582226823E+03  0.75582226823E+03  0.00000000000E+00 0.  1.
      99926    2    1    2    0    0  0.00000000000E+00  0.00000000000E+00 -0.68747853445E+03  0.82416600202E+03  0.45455787702E+03 0.  0.
      99925    2    3    3    0    0 -0.10466804746E+03 -0.27303908321E+02 -0.37613278034E+03  0.47162580535E+03  0.26316179103E+03 0.  0.
         25    1    4    4    0    0 -0.52641995212E+02 -0.51130539038E+02 -0.16548035268E+03  0.22003810331E+03  0.12509000000E+03 0.  0.
         25    1    4    4    0    0 -0.52026052245E+02  0.23826630717E+02 -0.21065242766E+03  0.25158770205E+03  0.12509000000E+03 0.  0.
         25    1    3    3    0    0  0.10466804746E+03  0.27303908321E+02 -0.31134575410E+03  0.35254019667E+03  0.12509000000E+03 0.  0.
<mgrwt>
<rscale>  2 0.45455788E+03</rscale>
<asrwt>0</asrwt>
<pdfrwt beam="1">  1       21 0.10050549E-01 0.45455788E+03</pdfrwt>
<pdfrwt beam="2">  1       21 0.11115033E+00 0.45455788E+03</pdfrwt>
<totfact> 0.46780118E+04</totfact>
</mgrwt>
</event>
<event>
 7    0  0.4748297E-002  0.4494626E+03  0.7546771E-02  0.1027882E+00
         21   -1    0    0  502  501  0.00000000000E+00  0.00000000000E+00  0.59765702889E+02  0.59765702889E+02  0.00000000000E+00 0.  1.
         21   -1    0    0  501  502 -0.00000000000E+00 -0.00000000000E+00 -0.84503586867E+03  0.84503586867E+03  0.00000000000E+00 0.  1.
      99926    2    1    2    0    0 -0.35527136788E-14  0.00000000000E+00 -0.78527016578E+03  0.90480157156E+03  0.44946262428E+03 0.  0.
      99925    2    3    3    0    0  0.84705398496E+01 -0.10657705527E+03 -0.46805784344E+03  0.54744798714E+03  0.26304131815E+03 0.  0.
         25    1    4    4    0    0 -0.29421958725E+02 -0.76694462255E+02 -0.23628187854E+03  0.27968612125E+03  0.12509000000E+03 0.  0.
         25    1    3    3    0    0 -0.84705398496E+01  0.10657705527E+03 -0.31721232234E+03  0.35735358443E+03  0.12509000000E+03 0.  0.
         25    1    4    4    0    0  0.37892498575E+02 -0.29882593020E+02 -0.23177596491E+03  0.26776186588E+03  0.12509000000E+03 0.  0.
<mgrwt>
<rscale>  2 0.44946262E+03</rscale>
<asrwt>0</asrwt>
<pdfrwt beam="1">  1       21 0.87890742E-02 0.44946262E+03</pdfrwt>
<pdfrwt beam="2">  1       21 0.12426998E+00 0.44946262E+03</pdfrwt>
<totfact> 0.44943079E+04</totfact>
</mgrwt>
</event>
<event>
 7    0  0.4748297E-002  0.4523865E+03  0.7546771E-02  0.1027013E+00
         21   -1    0    0  502  501  0.00000000000E+00  0.00000000000E+00  0.60504581990E+03  0.60504581990E+03  0.00000000000E+00 0. -1.
         21   -1    0    0  501  502 -0.00000000000E+00 -0.00000000000E+00 -0.84561172320E+02  0.84561172320E+02  0.00000000000E+00 0. -1.
      99926    2    1    2    0    0  0.00000000000E+00  0.71054273576E-14  0.52048464758E+03  0.68960699222E+03  0.45238648891E+03 0.  0.
      99925    2    3    3    0    0  0.65899966798E+02  0.51019543732E+02  0.43932686073E+03  0.51878575837E+03  0.26302998510E+03 0.  0.
         25    1    4    4    0    0  0.32433459236E+02  0.66158150552E+02  0.21803589627E+03  0.26194654097E+03  0.12509000000E+03 0.  0.
         25    1    4    4    0    0  0.33466507562E+02 -0.15138606820E+02  0.22129096446E+03  0.25683921741E+03  0.12509000000E+03 0.  0.
         25    1    3    3    0    0 -0.65899966798E+02 -0.51019543732E+02  0.81157786845E+02  0.17082123384E+03  0.12509000000E+03 0.  0.
<mgrwt>
<rscale>  2 0.45238649E+03</rscale>
<asrwt>0</asrwt>
<pdfrwt beam="1">  1       21 0.88977324E-01 0.45238649E+03</pdfrwt>
<pdfrwt beam="2">  1       21 0.12435467E-01 0.45238649E+03</pdfrwt>
<totfact> 0.54585357E+04</totfact>
</mgrwt>
</event>
<event>
 7    0  0.4748297E-002  0.4505599E+03  0.7546771E-02  0.1027555E+00
         21   -1    0    0  502  501  0.00000000000E+00  0.00000000000E+00  0.54171735271E+02  0.54171735271E+02  0.00000000000E+00 0. -1.
         21   -1    0    0  501  502 -0.00000000000E+00 -0.00000000000E+00 -0.93685498520E+03  0.93685498520E+03  0.00000000000E+00 0. -1.
      99926    2    1    2    0    0  0.00000000000E+00  0.00000000000E+00 -0.88268324993E+03  0.99102672047E+03  0.45055991941E+03 0.  0.
      99925    2    3    3    0    0  0.40317665913E+02  0.99814085462E+02 -0.51996286553E+03  0.59252709538E+03  0.26294222062E+03 0.  0.
         25    1    3    3    0    0 -0.40317665913E+02 -0.99814085462E+02 -0.36272038439E+03  0.39849962509E+03  0.12509000000E+03 0.  0.
         25    1    4    4    0    0  0.45395337500E+02  0.63188491866E+02 -0.33735412716E+03  0.36811525013E+03  0.12509000000E+03 0.  0.
         25    1    4    4    0    0 -0.50776715870E+01  0.36625593596E+02 -0.18260873838E+03  0.22441184524E+03  0.12509000000E+03 0.  0.
<mgrwt>
<rscale>  2 0.45055992E+03</rscale>
<asrwt>0</asrwt>
<pdfrwt beam="1">  1       21 0.79664321E-02 0.45055992E+03</pdfrwt>
<pdfrwt beam="2">  1       21 0.13777278E+00 0.45055992E+03</pdfrwt>
<totfact> 0.40918336E+04</totfact>
</mgrwt>
</event>
<event>
 7    0  0.4748297E-002  0.4527558E+03  0.7546771E-02  0.1026903E+00
         21   -1    0    0  502  501  0.00000000000E+00  0.00000000000E+00  0.19244273601E+03  0.19244273601E+03  0.00000000000E+00 0. -1.
         21   -1    0    0  501  502 -0.00000000000E+00 -0.00000000000E+00 -0.26629712440E+03  0.26629712440E+03  0.00000000000E+00 0. -1.
      99926    2    1    2    0    0  0.00000000000E+00  0.00000000000E+00 -0.73854388389E+02  0.45873986041E+03  0.45275577174E+03 0.  0.
      99925    2    3    3    0    0  0.58156874071E+02  0.37050634993E+02 -0.13480536122E+03  0.30344175757E+03  0.26296281728E+03 0.  0.
         25    1    3    3    0    0 -0.58156874071E+02 -0.37050634993E+02  0.60950972828E+02  0.15529810283E+03  0.12509000000E+03 0.  0.
         25    1    4    4    0    0  0.46682843361E+01  0.26832332377E+02 -0.10052534486E+03  0.16277168058E+03  0.12509000000E+03 0.  0.
         25    1    4    4    0    0  0.53488589735E+02  0.10218302616E+02 -0.34280016355E+02  0.14067007699E+03  0.12509000000E+03 0.  0.
<mgrwt>
<rscale>  2 0.45275577E+03</rscale>
<asrwt>0</asrwt>
<pdfrwt beam="1">  1       21 0.28300403E-01 0.45275577E+03</pdfrwt>
<pdfrwt beam="2">  1       21 0.39161341E-01 0.45275577E+03</pdfrwt>
<totfact> 0.69508100E+04</totfact>
</mgrwt>
</event>
<event>
 7    0  0.4748297E-002  0.4557389E+03  0.7546771E-02  0.1026024E+00
         21   -1    0    0  502  501  0.00000000000E+00  0.00000000000E+00  0.83268086710E+02  0.83268086710E+02  0.00000000000E+00 0.  1.
         21   -1    0    0  501  502 -0.00000000000E+00 -0.00000000000E+00 -0.62358197331E+03  0.62358197331E+03  0.00000000000E+00 0.  1.
      99926    2    1    2    0    0 -0.71054273576E-14  0.14210854715E-13 -0.54031388660E+03  0.70685006002E+03  0.45573886305E+03 0.  0.
      99925    2    3    3    0    0  0.44582745619E+02 -0.92011480913E+02 -0.41740143632E+03  0.50385076849E+03  0.26303593679E+03 0.  0.
         25    1    4    4    0    0  0.59170088799E+02 -0.66434768804E+02 -0.21772166363E+03  0.26639239634E+03  0.12509000000E+03 0.  0.
         25    1    4    4    0    0 -0.14587343180E+02 -0.25576712109E+02 -0.19967977269E+03  0.23745837215E+03  0.12509000000E+03 0.  0.
         25    1    3    3    0    0 -0.44582745619E+02  0.92011480913E+02 -0.12291245028E+03  0.20299929153E+03  0.12509000000E+03 0.  0.
<mgrwt>
<rscale>  2 0.45573886E+03</rscale>
<asrwt>0</asrwt>
<pdfrwt beam="1">  1       21 0.12245307E-01 0.45573886E+03</pdfrwt>
<pdfrwt beam="2">  1       21 0.91703234E-01 0.45573886E+03</pdfrwt>
<totfact> 0.52228322E+04</totfact>
</mgrwt>
</event>
<event>
 7    0  0.4748297E-002  0.4531421E+03  0.7546771E-02  0.1026789E+00
         21   -1    0    0  502  501  0.00000000000E+00  0.00000000000E+00  0.33967957717E+03  0.33967957717E+03  0.00000000000E+00 0. -1.
         21   -1    0    0  501  502 -0.00000000000E+00 -0.00000000000E+00 -0.15112606603E+03  0.15112606603E+03  0.00000000000E+00 0. -1.
      99926    2    1    2    0    0  0.00000000000E+00 -0.71054273576E-14  0.18855351114E+03  0.49080564319E+03  0.45314208900E+03 0.  0.
      99925    2    3    3    0    0 -0.51852919424E+02 -0.56558717304E+02  0.20634544606E+03  0.34298252320E+03  0.26300371548E+03 0.  0.
         25    1    4    4    0    0 -0.70440046032E+01 -0.29339391991E+02  0.14576340575E+03  0.19443481293E+03  0.12509000000E+03 0.  0.
         25    1    3    3    0    0  0.51852919424E+02  0.56558717304E+02 -0.17791934921E+02  0.14782311999E+03  0.12509000000E+03 0.  0.
         25    1    4    4    0    0 -0.44808914821E+02 -0.27219325313E+02  0.60582040310E+02  0.14854771027E+03  0.12509000000E+03 0.  0.
<mgrwt>
<rscale>  2 0.45314209E+03</rscale>
<asrwt>0</asrwt>
<pdfrwt beam="1">  1       21 0.49952879E-01 0.45314209E+03</pdfrwt>
<pdfrwt beam="2">  1       21 0.22224421E-01 0.45314209E+03</pdfrwt>
<totfact> 0.66902882E+04</totfact>
</mgrwt>
</event>
<event>
 7    0  0.4748297E-002  0.4522730E+03  0.7546771E-02  0.1027046E+00
         21   -1    0    0  502  501  0.00000000000E+00  0.00000000000E+00  0.13493112586E+04  0.13493112586E+04  0.00000000000E+00 0. -1.
         21   -1    0    0  501  502 -0.00000000000E+00 -0.00000000000E+00 -0.37899124900E+02  0.37899124900E+02  0.00000000000E+00 0. -1.
      99926    2    1    2    0    0  0.14210854715E-13 -0.71054273576E-14  0.13114121337E+04  0.13872103835E+04  0.45227299684E+03 0.  0.
      99925    2    3    3    0    0 -0.92369844878E+02  0.46937726040E+02  0.70889933039E+03  0.76318752765E+03  0.26302395968E+03 0.  0.
         25    1    4    4    0    0 -0.64109010320E+02  0.61689773107E+02  0.37470334380E+03  0.40492678013E+03  0.12509000000E+03 0.  0.
         25    1    3    3    0    0  0.92369844878E+02 -0.46937726040E+02  0.60251280328E+03  0.62402285582E+03  0.12509000000E+03 0.  0.
         25    1    4    4    0    0 -0.28260834557E+02 -0.14752047067E+02  0.33419598659E+03  0.35826074752E+03  0.12509000000E+03 0.  0.
<mgrwt>
<rscale>  2 0.45227300E+03</rscale>
<asrwt>0</asrwt>
<pdfrwt beam="1">  1       21 0.19842809E+00 0.45227300E+03</pdfrwt>
<pdfrwt beam="2">  1       21 0.55734016E-02 0.45227300E+03</pdfrwt>
<totfact> 0.27247743E+04</totfact>
</mgrwt>
</event>
<event>
 7    0  0.4748297E-002  0.4551374E+03  0.7546771E-02  0.1026201E+00
         21   -1    0    0  502  501  0.00000000000E+00  0.00000000000E+00  0.23982146749E+03  0.23982146749E+03  0.00000000000E+00 0. -1.
         21   -1    0    0  501  502 -0.00000000000E+00 -0.00000000000E+00 -0.21594192418E+03  0.21594192418E+03  0.00000000000E+00 0. -1.
      99926    2    1    2    0    0 -0.14210854715E-13 -0.17763568394E-14  0.23879543311E+02  0.45576339166E+03  0.45513738211E+03 0.  0.
      99925    2    3    3    0    0  0.65407296907E+02  0.10438473166E+02 -0.76767257353E+02  0.28208448450E+03  0.26323253671E+03 0.  0.
         25    1    4    4    0    0  0.13400380136E+02 -0.12401629758E+02 -0.70076731057E+02  0.14453936123E+03  0.12509000000E+03 0.  0.
         25    1    4    4    0    0  0.52006916770E+02  0.22840102924E+02 -0.66905262959E+01  0.13754512327E+03  0.12509000000E+03 0.  0.
         25    1    3    3    0    0 -0.65407296907E+02 -0.10438473166E+02  0.10064680066E+03  0.17367890717E+03  0.12509000000E+03 0.  0.
<mgrwt>
<rscale>  2 0.45513738E+03</rscale>
<asrwt>0</asrwt>
<pdfrwt beam="1">  1       21 0.35267863E-01 0.45513738E+03</pdfrwt>
<pdfrwt beam="2">  1       21 0.31756165E-01 0.45513738E+03</pdfrwt>
<totfact> 0.68414909E+04</totfact>
</mgrwt>
</event>
<event>
 7    0  0.4748297E-002  0.4445561E+03  0.7546771E-02  0.1029358E+00
         21   -1    0    0  502  501  0.00000000000E+00  0.00000000000E+00  0.34009913334E+03  0.34009913334E+03  0.00000000000E+00 0. -1.
         21   -1    0    0  501  502 -0.00000000000E+00 -0.00000000000E+00 -0.14527390969E+03  0.14527390969E+03  0.00000000000E+00 0. -1.
      99926    2    1    2    0    0  0.00000000000E+00  0.00000000000E+00  0.19482522366E+03  0.48537304303E+03  0.44455609672E+03 0.  0.
      99925    2    3    3    0    0 -0.76646162608E+02  0.28403392029E+02  0.19234767149E+03  0.33592394372E+03  0.26299407277E+03 0.  0.
         25    1    4    4    0    0 -0.66157069857E+02 -0.15418957847E+02  0.94909741681E+02  0.17108439239E+03  0.12509000000E+03 0.  0.
         25    1    4    4    0    0 -0.10489092750E+02  0.43822349876E+02  0.97437929813E+02  0.16483955133E+03  0.12509000000E+03 0.  0.
         25    1    3    3    0    0  0.76646162608E+02 -0.28403392029E+02  0.24775521649E+01  0.14944909931E+03  0.12509000000E+03 0.  0.
<mgrwt>
<rscale>  2 0.44455610E+03</rscale>
<asrwt>0</asrwt>
<pdfrwt beam="1">  1       21 0.50014579E-01 0.44455610E+03</pdfrwt>
<pdfrwt beam="2">  1       21 0.21363810E-01 0.44455610E+03</pdfrwt>
<totfact> 0.72106493E+04</totfact>
</mgrwt>
</event>
<event>
 7    0  0.4748297E-002  0.4556939E+03  0.7546771E-02  0.1026038E+00
         21   -1    0    0  502  501  0.00000000000E+00  0.00000000000E+00  0.74119608038E+03  0.74119608038E+03  0.00000000000E+00 0. -1.
         21   -1    0    0  501  502 -0.00000000000E+00 -0.00000000000E+00 -0.70041166462E+02  0.70041166462E+02  0.00000000000E+00 0. -1.
      99926    2    1    2    0    0  0.14210854715E-13 -0.71054273576E-14  0.67115491391E+03  0.81123724684E+03  0.45569392380E+03 0.  0.
      99925    2    3    3    0    0  0.97399857654E+02 -0.51096470464E+02  0.36996721251E+03  0.46705833822E+03  0.26300222698E+03 0.  0.
         25    1    4    4    0    0  0.82082298415E+02 -0.29830536085E+02  0.15867534737E+03  0.22011982773E+03  0.12509000000E+03 0.  0.
         25    1    4    4    0    0  0.15317559239E+02 -0.21265934379E+02  0.21129186515E+03  0.24693851049E+03  0.12509000000E+03 0.  0.
         25    1    3    3    0    0 -0.97399857654E+02  0.51096470464E+02  0.30118770140E+03  0.34417890862E+03  0.12509000000E+03 0.  0.
<mgrwt>
<rscale>  2 0.45569392E+03</rscale>
<asrwt>0</asrwt>
<pdfrwt beam="1">  1       21 0.10899942E+00 0.45569392E+03</pdfrwt>
<pdfrwt beam="2">  1       21 0.10300172E-01 0.45569392E+03</pdfrwt>
<totfact> 0.46969789E+04</totfact>
</mgrwt>
</event>
<event>
 7    0  0.4748297E-002  0.4675349E+03  0.7546771E-02  0.1022618E+00
         21   -1    0    0  502  501  0.00000000000E+00  0.00000000000E+00  0.66537404944E+03  0.66537404944E+03  0.00000000000E+00 0. -1.
         21   -1    0    0  501  502 -0.00000000000E+00 -0.00000000000E+00 -0.82130068228E+02  0.82130068228E+02  0.00000000000E+00 0. -1.
      99926    2    1    2    0    0  0.00000000000E+00 -0.14210854715E-13  0.58324398122E+03  0.74750411767E+03  0.46753488032E+03 0.  0.
      99925    2    3    3    0    0 -0.81884077727E+02 -0.67470438656E+02  0.25892366893E+03  0.38406439043E+03  0.26307171529E+03 0.  0.
         25    1    4    4    0    0 -0.64453402937E+02 -0.18076687231E+02  0.92423023469E+02  0.16932374653E+03  0.12509000000E+03 0.  0.
         25    1    4    4    0    0 -0.17430674789E+02 -0.49393751425E+02  0.16650064546E+03  0.21474064390E+03  0.12509000000E+03 0.  0.
         25    1    3    3    0    0  0.81884077727E+02  0.67470438656E+02  0.32432031229E+03  0.36343972724E+03  0.12509000000E+03 0.  0.
<mgrwt>
<rscale>  2 0.46753488E+03</rscale>
<asrwt>0</asrwt>
<pdfrwt beam="1">  1       21 0.97849122E-01 0.46753488E+03</pdfrwt>
<pdfrwt beam="2">  1       21 0.12077952E-01 0.46753488E+03</pdfrwt>
<totfact> 0.45724163E+04</totfact>
</mgrwt>
</event>
<event>
 7    0  0.4748297E-002  0.4562256E+03  0.7546771E-02  0.1025882E+00
         21   -1    0    0  502  501  0.00000000000E+00  0.00000000000E+00  0.56315892394E+02  0.56315892394E+02  0.00000000000E+00 0.  1.
         21   -1    0    0  501  502 -0.00000000000E+00 -0.00000000000E+00 -0.92399243914E+03  0.92399243914E+03  0.00000000000E+00 0.  1.
      99926    2    1    2    0    0  0.00000000000E+00  0.14210854715E-13 -0.86767654675E+03  0.98030833154E+03  0.45622564056E+03 0.  0.
      99925    2    3    3    0    0  0.73360386576E+02 -0.87477033953E+02 -0.55800286861E+03  0.62735044053E+03  0.26299695070E+03 0.  0.
         25    1    4    4    0    0  0.51177199510E+02 -0.54179833148E+02 -0.21135132425E+03  0.25665434037E+03  0.12509000000E+03 0.  0.
         25    1    4    4    0    0  0.22183187066E+02 -0.33297200805E+02 -0.34665154436E+03  0.37069610016E+03  0.12509000000E+03 0.  0.
         25    1    3    3    0    0 -0.73360386576E+02  0.87477033953E+02 -0.30967367814E+03  0.35295789100E+03  0.12509000000E+03 0.  0.
<mgrwt>
<rscale>  2 0.45622564E+03</rscale>
<asrwt>0</asrwt>
<pdfrwt beam="1">  1       21 0.82817501E-02 0.45622564E+03</pdfrwt>
<pdfrwt beam="2">  1       21 0.13588122E+00 0.45622564E+03</pdfrwt>
<totfact> 0.39556812E+04</totfact>
</mgrwt>
</event>
<event>
 7    0  0.4748297E-002  0.4438223E+03  0.7546771E-02  0.1029580E+00
         21   -1    0    0  502  501  0.00000000000E+00  0.00000000000E+00  0.84198108724E+03  0.84198108724E+03  0.00000000000E+00 0. -1.
         21   -1    0    0  501  502 -0.00000000000E+00 -0.00000000000E+00 -0.58486527133E+02  0.58486527133E+02  0.00000000000E+00 0. -1.
      99926    2    1    2    0    0  0.00000000000E+00  0.00000000000E+00  0.78349456011E+03  0.90046761438E+03  0.44382226039E+03 0.  0.
      99925    2    3    3    0    0  0.43826223498E+02  0.84638214943E+02  0.57370586188E+03  0.63827842448E+03  0.26301438345E+03 0.  0.
         25    1    3    3    0    0 -0.43826223498E+02 -0.84638214943E+02  0.20978869823E+03  0.26218918990E+03  0.12509000000E+03 0.  0.
         25    1    4    4    0    0  0.13032720297E+02  0.64959598220E+02  0.22289402809E+03  0.26404328634E+03  0.12509000000E+03 0.  0.
         25    1    4    4    0    0  0.30793503201E+02  0.19678616723E+02  0.35081183379E+03  0.37423513814E+03  0.12509000000E+03 0.  0.
<mgrwt>
<rscale>  2 0.44382226E+03</rscale>
<asrwt>0</asrwt>
<pdfrwt beam="1">  1       21 0.12382074E+00 0.44382226E+03</pdfrwt>
<pdfrwt beam="2">  1       21 0.86009603E-02 0.44382226E+03</pdfrwt>
<totfact> 0.47209866E+04</totfact>
</mgrwt>
</event>
<event>
 7    0  0.4748297E-002  0.4528888E+03  0.7546771E-02  0.1026864E+00
         21   -1    0    0  502  501  0.00000000000E+00  0.00000000000E+00  0.10465511518E+03  0.10465511518E+03  0.00000000000E+00 0. -1.
         21   -1    0    0  501  502 -0.00000000000E+00 -0.00000000000E+00 -0.48996244299E+03  0.48996244299E+03  0.00000000000E+00 0. -1.
      99926    2    1    2    0    0  0.00000000000E+00  0.00000000000E+00 -0.38530732780E+03  0.59461755817E+03  0.45288884246E+03 0.  0.
      99925    2    3    3    0    0  0.67497062616E+02 -0.15885876341E+02 -0.12882980366E+03  0.30095713690E+03  0.26300164526E+03 0.  0.
         25    1    3    3    0    0 -0.67497062616E+02  0.15885876341E+02 -0.25647752415E+03  0.29366042127E+03  0.12509000000E+03 0.  0.
         25    1    4    4    0    0  0.70992203848E+02  0.94189501059E+01 -0.73748662994E+02  0.16191041666E+03  0.12509000000E+03 0.  0.
         25    1    4    4    0    0 -0.34951412314E+01 -0.25304826447E+02 -0.55081140662E+02  0.13904672024E+03  0.12509000000E+03 0.  0.
<mgrwt>
<rscale>  2 0.45288884E+03</rscale>
<asrwt>0</asrwt>
<pdfrwt beam="1">  1       21 0.15390458E-01 0.45288884E+03</pdfrwt>
<pdfrwt beam="2">  1       21 0.72053301E-01 0.45288884E+03</pdfrwt>
<totfact> 0.60005638E+04</totfact>
</mgrwt>
</event>
<event>
 7    0  0.4748297E-002  0.4536103E+03  0.7546771E-02  0.1026651E+00
         21   -1    0    0  502  501  0.00000000000E+00  0.00000000000E+00  0.17178980684E+04  0.17178980684E+04  0.00000000000E+00 0.  1.
         21   -1    0    0  501  502 -0.00000000000E+00 -0.00000000000E+00 -0.29943899429E+02  0.29943899429E+02  0.00000000000E+00 0.  1.
      99926    2    1    2    0    0  0.00000000000E+00  0.00000000000E+00  0.16879541690E+04  0.17478419678E+04  0.45361025997E+03 0.  0.
      99925    2    3    3    0    0 -0.84683621072E+02 -0.39853393935E+02  0.82703535225E+03  0.87286292478E+03  0.26294981061E+03 0.  0.
         25    1    3    3    0    0  0.84683621072E+02  0.39853393935E+02  0.86091881672E+03  0.87497904305E+03  0.12509000000E+03 0.  0.
         25    1    4    4    0    0 -0.16337002533E+02 -0.31624504187E+01  0.47075595405E+03  0.48737621517E+03  0.12509000000E+03 0.  0.
         25    1    4    4    0    0 -0.68346618538E+02 -0.36690943516E+02  0.35627939820E+03  0.38548670960E+03  0.12509000000E+03 0.  0.
<mgrwt>
<rscale>  2 0.45361026E+03</rscale>
<asrwt>0</asrwt>
<pdfrwt beam="1">  1       21 0.25263200E+00 0.45361026E+03</pdfrwt>
<pdfrwt beam="2">  1       21 0.44035158E-02 0.45361026E+03</pdfrwt>
<totfact> 0.18482155E+04</totfact>
</mgrwt>
</event>
<event>
 7    0  0.4748297E-002  0.4491755E+03  0.7546771E-02  0.1027968E+00
         21   -1    0    0  502  501  0.00000000000E+00  0.00000000000E+00  0.13487768407E+03  0.13487768407E+03  0.00000000000E+00 0. -1.
         21   -1    0    0  501  502 -0.00000000000E+00 -0.00000000000E+00 -0.37396585622E+03  0.37396585622E+03  0.00000000000E+00 0. -1.
      99926    2    1    2    0    0  0.00000000000E+00  0.00000000000E+00 -0.23908817215E+03  0.50884354028E+03  0.44917546062E+03 0.  0.
      99925    2    3    3    0    0  0.23169551250E+02 -0.10480304931E+03 -0.14827255800E+03  0.32065350037E+03  0.26327439791E+03 0.  0.
         25    1    3    3    0    0 -0.23169551250E+02  0.10480304931E+03 -0.90815614153E+02  0.18819003991E+03  0.12509000000E+03 0.  0.
         25    1    4    4    0    0  0.15033790717E+02 -0.72264901413E+02 -0.36936751738E+02  0.14986681610E+03  0.12509000000E+03 0.  0.
         25    1    4    4    0    0  0.81357605325E+01 -0.32538147893E+02 -0.11133580626E+03  0.17078668427E+03  0.12509000000E+03 0.  0.
<mgrwt>
<rscale>  2 0.44917546E+03</rscale>
<asrwt>0</asrwt>
<pdfrwt beam="1">  1       21 0.19834954E-01 0.44917546E+03</pdfrwt>
<pdfrwt beam="2">  1       21 0.54994978E-01 0.44917546E+03</pdfrwt>
<totfact> 0.67730668E+04</totfact>
</mgrwt>
</event>
<event>
 7    0  0.4748297E-002  0.4569502E+03  0.7546771E-02  0.1025669E+00
         21   -1    0    0  502  501  0.00000000000E+00  0.00000000000E+00  0.64548860609E+03  0.64548860609E+03  0.00000000000E+00 0.  1.
         21   -1    0    0  501  502 -0.00000000000E+00 -0.00000000000E+00 -0.80870306218E+02  0.80870306218E+02  0.00000000000E+00 0.  1.
      99926    2    1    2    0    0 -0.14210854715E-13  0.14210854715E-13  0.56461829987E+03  0.72635891231E+03  0.45695015586E+03 0.  0.
      99925    2    3    3    0    0 -0.79399716855E+02  0.78924807315E+02  0.39646755525E+03  0.48875499554E+03  0.26298570884E+03 0.  0.
         25    1    3    3    0    0  0.79399716855E+02 -0.78924807315E+02  0.16815074462E+03  0.23760391677E+03  0.12509000000E+03 0.  0.
         25    1    4    4    0    0  0.13495018714E+00  0.48539714635E+02  0.19807357435E+03  0.23924207629E+03  0.12509000000E+03 0.  0.
         25    1    4    4    0    0 -0.79534667042E+02  0.30385092680E+02  0.19839398089E+03  0.24951291925E+03  0.12509000000E+03 0.  0.
<mgrwt>
<rscale>  2 0.45695016E+03</rscale>
<asrwt>0</asrwt>
<pdfrwt beam="1">  1       21 0.94924792E-01 0.45695016E+03</pdfrwt>
<pdfrwt beam="2">  1       21 0.11892692E-01 0.45695016E+03</pdfrwt>
<totfact> 0.50712888E+04</totfact>
</mgrwt>
</event>
<event>
 7    0  0.4748297E-002  0.4546536E+03  0.7546771E-02  0.1026343E+00
         21   -1    0    0  502  501  0.00000000000E+00  0.00000000000E+00  0.69967982743E+03  0.69967982743E+03  0.00000000000E+00 0. -1.
         21   -1    0    0  501  502 -0.00000000000E+00 -0.00000000000E+00 -0.73858739932E+02  0.73858739932E+02  0.00000000000E+00 0. -1.
      99926    2    1    2    0    0  0.00000000000E+00  0.00000000000E+00  0.62582108750E+03  0.77353856736E+03  0.45465358422E+03 0.  0.
      99925    2    3    3    0    0  0.52047331089E+02 -0.24176064021E+02  0.22822237896E+03  0.35279440772E+03  0.26284031866E+03 0.  0.
         25    1    3    3    0    0 -0.52047331089E+02  0.24176064021E+02  0.39759870854E+03  0.42074415964E+03  0.12509000000E+03 0.  0.
         25    1    4    4    0    0  0.17536667817E+01 -0.43098690674E+02  0.12397661980E+03  0.18132369631E+03  0.12509000000E+03 0.  0.
         25    1    4    4    0    0  0.50293664307E+02  0.18922626653E+02  0.10424575916E+03  0.17147071141E+03  0.12509000000E+03 0.  0.
<mgrwt>
<rscale>  2 0.45465358E+03</rscale>
<asrwt>0</asrwt>
<pdfrwt beam="1">  1       21 0.10289409E+00 0.45465358E+03</pdfrwt>
<pdfrwt beam="2">  1       21 0.10861580E-01 0.45465358E+03</pdfrwt>
<totfact> 0.49205018E+04</totfact>
</mgrwt>
</event>
<event>
 7    0  0.4748297E-002  0.4578631E+03  0.7546771E-02  0.1025403E+00
         21   -1    0    0  502  501  0.00000000000E+00  0.00000000000E+00  0.76886716426E+02  0.76886716426E+02  0.00000000000E+00 0.  1.
         21   -1    0    0  501  502 -0.00000000000E+00 -0.00000000000E+00 -0.68164781871E+03  0.68164781871E+03  0.00000000000E+00 0.  1.
      99926    2    1    2    0    0  0.71054273576E-14  0.00000000000E+00 -0.60476110229E+03  0.75853453514E+03  0.45786313475E+03 0.  0.
      99925    2    3    3    0    0 -0.26102781852E+02  0.40980859185E+02 -0.20537048734E+03  0.33720193795E+03  0.26299681339E+03 0.  0.
         25    1    3    3    0    0  0.26102781852E+02 -0.40980859185E+02 -0.39939061495E+03  0.42133259719E+03  0.12509000000E+03 0.  0.
         25    1    4    4    0    0  0.26957067404E+02  0.18952240319E+02 -0.89868669055E+02  0.15751113190E+03  0.12509000000E+03 0.  0.
         25    1    4    4    0    0 -0.53059849256E+02  0.22028618867E+02 -0.11550181828E+03  0.17969080605E+03  0.12509000000E+03 0.  0.
<mgrwt>
<rscale>  2 0.45786313E+03</rscale>
<asrwt>0</asrwt>
<pdfrwt beam="1">  1       21 0.11306871E-01 0.45786313E+03</pdfrwt>
<pdfrwt beam="2">  1       21 0.10024232E+00 0.45786313E+03</pdfrwt>
<totfact> 0.48730556E+04</totfact>
</mgrwt>
</event>
<event>
 7    0  0.4748297E-002  0.4536143E+03  0.7546771E-02  0.1026650E+00
         21   -1    0    0  502  501  0.00000000000E+00  0.00000000000E+00  0.99459882245E+02  0.99459882245E+02  0.00000000000E+00 0.  1.
         21   -1    0    0  501  502 -0.00000000000E+00 -0.00000000000E+00 -0.51720833829E+03  0.51720833829E+03  0.00000000000E+00 0.  1.
      99926    2    1    2    0    0  0.88817841970E-15  0.00000000000E+00 -0.41774845604E+03  0.61666822053E+03  0.45361428735E+03 0.  0.
      99925    2    3    3    0    0  0.62899410515E+01 -0.92654434098E+02 -0.34803555099E+03  0.44598780353E+03  0.26296761898E+03 0.  0.
         25    1    4    4    0    0  0.41916485701E+02 -0.58356273799E+02 -0.18654913992E+03  0.23581886305E+03  0.12509000000E+03 0.  0.
         25    1    4    4    0    0 -0.35626544649E+02 -0.34298160299E+02 -0.16148641107E+03  0.21016894048E+03  0.12509000000E+03 0.  0.
         25    1    3    3    0    0 -0.62899410515E+01  0.92654434098E+02 -0.69712905055E+02  0.17068041700E+03  0.12509000000E+03 0.  0.
<mgrwt>
<rscale>  2 0.45361429E+03</rscale>
<asrwt>0</asrwt>
<pdfrwt beam="1">  1       21 0.14626454E-01 0.45361429E+03</pdfrwt>
<pdfrwt beam="2">  1       21 0.76060047E-01 0.45361429E+03</pdfrwt>
<totfact> 0.58299225E+04</totfact>
</mgrwt>
</event>
<event>
 7    0  0.4748297E-002  0.4552563E+03  0.7546771E-02  0.1026166E+00
         21   -1    0    0  502  501  0.00000000000E+00  0.00000000000E+00  0.29861576047E+02  0.29861576047E+02  0.00000000000E+00 0. -1.
         21   -1    0    0  501  502 -0.00000000000E+00 -0.00000000000E+00 -0.17351587035E+04  0.17351587035E+04  0.00000000000E+00 0. -1.
      99926    2    1    2    0    0  0.00000000000E+00  0.00000000000E+00 -0.17052971274E+04  0.17650202795E+04  0.45525629519E+03 0.  0.
      99925    2    3    3    0    0  0.10403114456E+03 -0.17740091808E+02 -0.91256732890E+03  0.95557279422E+03  0.26306471708E+03 0.  0.
         25    1    3    3    0    0 -0.10403114456E+03  0.17740091808E+02 -0.79272979851E+03  0.80944748529E+03  0.12509000000E+03 0.  0.
         25    1    4    4    0    0  0.77825228812E+02 -0.84488916506E+01 -0.59729293436E+03  0.61525158070E+03  0.12509000000E+03 0.  0.
         25    1    4    4    0    0  0.26205915746E+02 -0.92912001571E+01 -0.31527439454E+03  0.34032121352E+03  0.12509000000E+03 0.  0.
<mgrwt>
<rscale>  2 0.45525630E+03</rscale>
<asrwt>0</asrwt>
<pdfrwt beam="1">  1       21 0.43914082E-02 0.45525630E+03</pdfrwt>
<pdfrwt beam="2">  1       21 0.25517040E+00 0.45525630E+03</pdfrwt>
<totfact> 0.17905708E+04</totfact>
</mgrwt>
</event>
<event>
 7    0  0.4748297E-002  0.4581821E+03  0.7546771E-02  0.1025310E+00
         21   -1    0    0  502  501  0.00000000000E+00  0.00000000000E+00  0.94190495789E+02  0.94190495789E+02  0.00000000000E+00 0.  1.
         21   -1    0    0  501  502 -0.00000000000E+00 -0.00000000000E+00 -0.55719757711E+03  0.55719757711E+03  0.00000000000E+00 0.  1.
      99926    2    1    2    0    0 -0.17763568394E-14  0.00000000000E+00 -0.46300708132E+03  0.65138807290E+03  0.45818212990E+03 0.  0.
      99925    2    3    3    0    0 -0.11713959681E+02  0.51875319281E+02 -0.14375693602E+03  0.30440618724E+03  0.26299962847E+03 0.  0.
         25    1    3    3    0    0  0.11713959681E+02 -0.51875319281E+02 -0.31925014530E+03  0.34698188566E+03  0.12509000000E+03 0.  0.
         25    1    4    4    0    0  0.16224960388E+02  0.44778402728E+02 -0.41040015438E+02  0.14000052020E+03  0.12509000000E+03 0.  0.
         25    1    4    4    0    0 -0.27938920069E+02  0.70969165532E+01 -0.10271692059E+03  0.16440566704E+03  0.12509000000E+03 0.  0.
<mgrwt>
<rscale>  2 0.45818213E+03</rscale>
<asrwt>0</asrwt>
<pdfrwt beam="1">  1       21 0.13851543E-01 0.45818213E+03</pdfrwt>
<pdfrwt beam="2">  1       21 0.81940820E-01 0.45818213E+03</pdfrwt>
<totfact> 0.54246942E+04</totfact>
</mgrwt>
</event>
<event>
 7    0  0.4748297E-002  0.4187151E+03  0.7546771E-02  0.1037485E+00
         21   -1    0    0  502  501  0.00000000000E+00  0.00000000000E+00  0.15409673684E+03  0.15409673684E+03  0.00000000000E+00 0.  1.
         21   -1    0    0  501  502 -0.00000000000E+00 -0.00000000000E+00 -0.28443556134E+03  0.28443556134E+03  0.00000000000E+00 0.  1.
      99926    2    1    2    0    0  0.00000000000E+00  0.00000000000E+00 -0.13033882450E+03  0.43853229817E+03  0.41871513869E+03 0.  0.
      99925    2    3    3    0    0  0.51988857726E+02  0.42300419482E+02 -0.51788638375E+02  0.27632931837E+03  0.26302787364E+03 0.  0.
         25    1    3    3    0    0 -0.51988857726E+02 -0.42300419482E+02 -0.78550186128E+02  0.16220297980E+03  0.12509000000E+03 0.  0.
         25    1    4    4    0    0  0.61214422266E+02  0.26658530567E+02 -0.61014968735E+01  0.14192469521E+03  0.12509000000E+03 0.  0.
         25    1    4    4    0    0 -0.92255645401E+01  0.15641888915E+02 -0.45687141501E+02  0.13440462317E+03  0.12509000000E+03 0.  0.
<mgrwt>
<rscale>  2 0.41871514E+03</rscale>
<asrwt>0</asrwt>
<pdfrwt beam="1">  1       21 0.22661285E-01 0.41871514E+03</pdfrwt>
<pdfrwt beam="2">  1       21 0.41828758E-01 0.41871514E+03</pdfrwt>
<totfact> 0.94175313E+04</totfact>
</mgrwt>
</event>
<event>
 7    0  0.4748297E-002  0.4534225E+03  0.7546771E-02  0.1026706E+00
         21   -1    0    0  502  501  0.00000000000E+00  0.00000000000E+00  0.14412056943E+03  0.14412056943E+03  0.00000000000E+00 0.  1.
         21   -1    0    0  501  502 -0.00000000000E+00 -0.00000000000E+00 -0.35663182852E+03  0.35663182852E+03  0.00000000000E+00 0.  1.
      99926    2    1    2    0    0  0.17763568394E-14  0.00000000000E+00 -0.21251125910E+03  0.50075239795E+03  0.45342246174E+03 0.  0.
      99925    2    3    3    0    0  0.27522621143E+01 -0.41707576137E+02 -0.24825923745E+03  0.36410495776E+03  0.26304500457E+03 0.  0.
         25    1    3    3    0    0 -0.27522621143E+01  0.41707576137E+02  0.35747978357E+02  0.13664744019E+03  0.12509000000E+03 0.  0.
         25    1    4    4    0    0  0.24653809944E+02  0.74779386267E+01 -0.14481503871E+03  0.19308711362E+03  0.12509000000E+03 0.  0.
         25    1    4    4    0    0 -0.21901547830E+02 -0.49185514764E+02 -0.10344419874E+03  0.17101784414E+03  0.12509000000E+03 0.  0.
<mgrwt>
<rscale>  2 0.45342246E+03</rscale>
<asrwt>0</asrwt>
<pdfrwt beam="1">  1       21 0.21194201E-01 0.45342246E+03</pdfrwt>
<pdfrwt beam="2">  1       21 0.52445857E-01 0.45342246E+03</pdfrwt>
<totfact> 0.66040949E+04</totfact>
</mgrwt>
</event>
<event>
 7    0  0.4748297E-002  0.4387316E+03  0.7546771E-02  0.1031137E+00
         21   -1    0    0  502  501  0.00000000000E+00  0.00000000000E+00  0.23832551284E+03  0.23832551284E+03  0.00000000000E+00 0.  1.
         21   -1    0    0  501  502 -0.00000000000E+00 -0.00000000000E+00 -0.20191440202E+03  0.20191440202E+03  0.00000000000E+00 0.  1.
      99926    2    1    2    0    0  0.00000000000E+00 -0.71054273576E-14  0.36411110818E+02  0.44023991486E+03  0.43873159636E+03 0.  0.
      99925    2    3    3    0    0  0.46183411358E+01  0.58792539133E+02  0.10216538415E+03  0.28710917237E+03  0.26175564828E+03 0.  0.
         25    1    4    4    0    0 -0.20851164012E+02  0.80904641266E+01  0.73479545245E+02  0.14678889031E+03  0.12509000000E+03 0.  0.
         25    1    3    3    0    0 -0.46183411358E+01 -0.58792539133E+02 -0.65754273333E+02  0.15313074249E+03  0.12509000000E+03 0.  0.
         25    1    4    4    0    0  0.25469505148E+02  0.50702075006E+02  0.28685838906E+02  0.14032028206E+03  0.12509000000E+03 0.  0.
<mgrwt>
<rscale>  2 0.43873160E+03</rscale>
<asrwt>0</asrwt>
<pdfrwt beam="1">  1       21 0.35047870E-01 0.43873160E+03</pdfrwt>
<pdfrwt beam="2">  1       21 0.29693294E-01 0.43873160E+03</pdfrwt>
<totfact> 0.79465425E+04</totfact>
</mgrwt>
</event>
<event>
 7    0  0.4748297E-002  0.4553619E+03  0.7546771E-02  0.1026135E+00
         21   -1    0    0  502  501  0.00000000000E+00  0.00000000000E+00  0.10734894921E+04  0.10734894921E+04  0.00000000000E+00 0. -1.
         21   -1    0    0  501  502 -0.00000000000E+00 -0.00000000000E+00 -0.48289811145E+02  0.48289811145E+02  0.00000000000E+00 0. -1.
      99926    2    1    2    0    0  0.00000000000E+00  0.00000000000E+00  0.10251996809E+04  0.11217793032E+04  0.45536185540E+03 0.  0.
      99925    2    3    3    0    0  0.16321145634E+02  0.19243143367E+02  0.91753879804E+03  0.95482106842E+03  0.26300028220E+03 0.  0.
         25    1    4    4    0    0 -0.26732339318E+02  0.24100246728E+02  0.40148430991E+03  0.42205757790E+03  0.12509000000E+03 0.  0.
         25    1    3    3    0    0 -0.16321145634E+02 -0.19243143367E+02  0.10766088289E+03  0.16695823480E+03  0.12509000000E+03 0.  0.
         25    1    4    4    0    0  0.43053484952E+02 -0.48571033612E+01  0.51605448813E+03  0.53276349053E+03  0.12509000000E+03 0.  0.
<mgrwt>
<rscale>  2 0.45536186E+03</rscale>
<asrwt>0</asrwt>
<pdfrwt beam="1">  1       21 0.15786609E+00 0.45536186E+03</pdfrwt>
<pdfrwt beam="2">  1       21 0.71014435E-02 0.45536186E+03</pdfrwt>
<totfact> 0.34640852E+04</totfact>
</mgrwt>
</event>
<event>
 7    0  0.4748297E-002  0.4622619E+03  0.7546771E-02  0.1024127E+00
         21   -1    0    0  502  501  0.00000000000E+00  0.00000000000E+00  0.67804869919E+03  0.67804869919E+03  0.00000000000E+00 0. -1.
         21   -1    0    0  501  502 -0.00000000000E+00 -0.00000000000E+00 -0.78787144837E+02  0.78787144837E+02  0.00000000000E+00 0. -1.
      99926    2    1    2    0    0  0.00000000000E+00  0.00000000000E+00  0.59926155435E+03  0.75683584403E+03  0.46226192173E+03 0.  0.
      99925    2    3    3    0    0 -0.83774565555E+02  0.49898952317E+02  0.48881992799E+03  0.56356674611E+03  0.26297237886E+03 0.  0.
         25    1    4    4    0    0 -0.24022296728E+02  0.26473551155E+02  0.30928241380E+03  0.33553098104E+03  0.12509000000E+03 0.  0.
         25    1    4    4    0    0 -0.59752268827E+02  0.23425401161E+02  0.17953751419E+03  0.22803576507E+03  0.12509000000E+03 0.  0.
         25    1    3    3    0    0  0.83774565555E+02 -0.49898952317E+02  0.11044162636E+03  0.19326909792E+03  0.12509000000E+03 0.  0.
<mgrwt>
<rscale>  2 0.46226192E+03</rscale>
<asrwt>0</asrwt>
<pdfrwt beam="1">  1       21 0.99713041E-01 0.46226192E+03</pdfrwt>
<pdfrwt beam="2">  1       21 0.11586345E-01 0.46226192E+03</pdfrwt>
<totfact> 0.47173300E+04</totfact>
</mgrwt>
</event>
<event>
 7    0  0.4748297E-002  0.4577910E+03  0.7546771E-02  0.1025424E+00
         21   -1    0    0  502  501  0.00000000000E+00  0.00000000000E+00  0.55805842098E+02  0.55805842098E+02  0.00000000000E+00 0. -1.
         21   -1    0    0  501  502 -0.00000000000E+00 -0.00000000000E+00 -0.93884712216E+03  0.93884712216E+03  0.00000000000E+00 0. -1.
      99926    2    1    2    0    0  0.00000000000E+00  0.00000000000E+00 -0.88304128006E+03  0.99465296426E+03  0.45779101893E+03 0.  0.
      99925    2    3    3    0    0 -0.73760631364E+02 -0.32994739599E+02 -0.37462415673E+03  0.46487493246E+03  0.26312765047E+03 0.  0.
         25    1    4    4    0    0 -0.16265588908E+02 -0.49255681708E+02 -0.16337752369E+03  0.21220371088E+03  0.12509000000E+03 0.  0.
         25    1    3    3    0    0  0.73760631364E+02  0.32994739599E+02 -0.50841712333E+03  0.52977803180E+03  0.12509000000E+03 0.  0.
         25    1    4    4    0    0 -0.57495042456E+02  0.16260942108E+02 -0.21124663304E+03  0.25267122158E+03  0.12509000000E+03 0.  0.
<mgrwt>
<rscale>  2 0.45779102E+03</rscale>
<asrwt>0</asrwt>
<pdfrwt beam="1">  1       21 0.82067415E-02 0.45779102E+03</pdfrwt>
<pdfrwt beam="2">  1       21 0.13806575E+00 0.45779102E+03</pdfrwt>
<totfact> 0.38528641E+04</totfact>
</mgrwt>
</event>
<event>
 7    0  0.4748297E-002  0.4455957E+03  0.7546771E-02  0.1029044E+00
         21   -1    0    0  502  501  0.00000000000E+00  0.00000000000E+00  0.24775284260E+03  0.24775284260E+03  0.00000000000E+00 0. -1.
         21   -1    0    0  501  502 -0.00000000000E+00 -0.00000000000E+00 -0.20035644753E+03  0.20035644753E+03  0.00000000000E+00 0. -1.
      99926    2    1    2    0    0  0.00000000000E+00  0.88817841970E-15  0.47396395077E+02  0.44810929013E+03  0.44559568853E+03 0.  0.
      99925    2    3    3    0    0  0.74581558339E+02 -0.44372778258E+01  0.10351523456E+03  0.29197175292E+03  0.26258332476E+03 0.  0.
         25    1    4    4    0    0  0.24959437345E+02  0.27034057556E+02  0.76430771080E+02  0.15113895808E+03  0.12509000000E+03 0.  0.
         25    1    3    3    0    0 -0.74581558339E+02  0.44372778258E+01 -0.56118839485E+02  0.15613753720E+03  0.12509000000E+03 0.  0.
         25    1    4    4    0    0  0.49622120994E+02 -0.31471335382E+02  0.27084463481E+02  0.14083279485E+03  0.12509000000E+03 0.  0.
<mgrwt>
<rscale>  2 0.44559569E+03</rscale>
<asrwt>0</asrwt>
<pdfrwt beam="1">  1       21 0.36434241E-01 0.44559569E+03</pdfrwt>
<pdfrwt beam="2">  1       21 0.29464184E-01 0.44559569E+03</pdfrwt>
<totfact> 0.74487570E+04</totfact>
</mgrwt>
</event>
<event>
 7    0  0.4748297E-002  0.4275198E+03  0.7546771E-02  0.1034646E+00
         21   -1    0    0  502  501  0.00000000000E+00  0.00000000000E+00  0.11240929815E+03  0.11240929815E+03  0.00000000000E+00 0. -1.
         21   -1    0    0  501  502 -0.00000000000E+00 -0.00000000000E+00 -0.40649037130E+03  0.40649037130E+03  0.00000000000E+00 0. -1.
      99926    2    1    2    0    0  0.00000000000E+00 -0.35527136788E-14 -0.29408107315E+03  0.51889966944E+03  0.42751981166E+03 0.  0.
      99925    2    3    3    0    0 -0.42982602287E+02 -0.30234701775E+02 -0.10901814922E+03  0.28942759008E+03  0.26291012105E+03 0.  0.
         25    1    4    4    0    0 -0.36709886762E+02 -0.53139499391E+02 -0.56223131712E+02  0.15159146025E+03  0.12509000000E+03 0.  0.
         25    1    4    4    0    0 -0.62727155246E+01  0.22904797617E+02 -0.52795017503E+02  0.13783612983E+03  0.12509000000E+03 0.  0.
         25    1    3    3    0    0  0.42982602287E+02  0.30234701775E+02 -0.18506292393E+03  0.22947207936E+03  0.12509000000E+03 0.  0.
<mgrwt>
<rscale>  2 0.42751981E+03</rscale>
<asrwt>0</asrwt>
<pdfrwt beam="1">  1       21 0.16530779E-01 0.42751981E+03</pdfrwt>
<pdfrwt beam="2">  1       21 0.59777995E-01 0.42751981E+03</pdfrwt>
<totfact> 0.80008756E+04</totfact>
</mgrwt>
</event>
<event>
 7    0  0.4748297E-002  0.4478187E+03  0.7546771E-02  0.1028375E+00
         21   -1    0    0  502  501  0.00000000000E+00  0.00000000000E+00  0.10266677365E+04  0.10266677365E+04  0.00000000000E+00 0.  1.
         21   -1    0    0  501  502 -0.00000000000E+00 -0.00000000000E+00 -0.48833124117E+02  0.48833124117E+02  0.00000000000E+00 0.  1.
      99926    2    1    2    0    0  0.00000000000E+00  0.17763568394E-14  0.97783461242E+03  0.10755008607E+04  0.44781868208E+03 0.  0.
      99925    2    3    3    0    0  0.25512771765E+02  0.11537342648E+02  0.37362969360E+03  0.45784796151E+03  0.26313797924E+03 0.  0.
         25    1    4    4    0    0  0.17619439779E+02 -0.30984984830E+02  0.21466285505E+03  0.25099434930E+03  0.12509000000E+03 0.  0.
         25    1    4    4    0    0  0.78933319857E+01  0.42522327478E+02  0.15896683855E+03  0.20685361221E+03  0.12509000000E+03 0.  0.
         25    1    3    3    0    0 -0.25512771765E+02 -0.11537342648E+02  0.60420491882E+03  0.61765289915E+03  0.12509000000E+03 0.  0.
<mgrwt>
<rscale>  2 0.44781868E+03</rscale>
<asrwt>0</asrwt>
<pdfrwt beam="1">  1       21 0.15098054E+00 0.44781868E+03</pdfrwt>
<pdfrwt beam="2">  1       21 0.71813424E-02 0.44781868E+03</pdfrwt>
<totfact> 0.38466099E+04</totfact>
</mgrwt>
</event>
<event>
 7    0  0.4748297E-002  0.4535126E+03  0.7546771E-02  0.1026680E+00
         21   -1    0    0  502  501  0.00000000000E+00  0.00000000000E+00  0.80346299443E+03  0.80346299443E+03  0.00000000000E+00 0. -1.
         21   -1    0    0  501  502 -0.00000000000E+00 -0.00000000000E+00 -0.63995992342E+02  0.63995992342E+02  0.00000000000E+00 0. -1.
      99926    2    1    2    0    0  0.00000000000E+00  0.35527136788E-14  0.73946700209E+03  0.86745898678E+03  0.45351256494E+03 0.  0.
      99925    2    3    3    0    0 -0.14275267692E+02  0.94689416619E+01  0.67720936263E+03  0.72668624121E+03  0.26299606119E+03 0.  0.
         25    1    3    3    0    0  0.14275267692E+02 -0.94689416619E+01  0.62257639459E+02  0.14077274557E+03  0.12509000000E+03 0.  0.
         25    1    4    4    0    0  0.13321726516E+02 -0.29128284545E+02  0.35795542906E+03  0.38053320835E+03  0.12509000000E+03 0.  0.
         25    1    4    4    0    0 -0.27596994208E+02  0.38597226207E+02  0.31925393357E+03  0.34615303286E+03  0.12509000000E+03 0.  0.
<mgrwt>
<rscale>  2 0.45351256E+03</rscale>
<asrwt>0</asrwt>
<pdfrwt beam="1">  1       21 0.11815632E+00 0.45351256E+03</pdfrwt>
<pdfrwt beam="2">  1       21 0.94111758E-02 0.45351256E+03</pdfrwt>
<totfact> 0.45192958E+04</totfact>
</mgrwt>
</event>
<event>
 7    0  0.4748297E-002  0.4264974E+03  0.7546771E-02  0.1034972E+00
         21   -1    0    0  502  501  0.00000000000E+00  0.00000000000E+00  0.38635621207E+03  0.38635621207E+03  0.00000000000E+00 0.  1.
         21   -1    0    0  501  502 -0.00000000000E+00 -0.00000000000E+00 -0.11770230365E+03  0.11770230365E+03  0.00000000000E+00 0.  1.
      99926    2    1    2    0    0 -0.14210854715E-13 -0.17763568394E-14  0.26865390842E+03  0.50405851572E+03  0.42649743817E+03 0.  0.
      99925    2    3    3    0    0 -0.77301412806E+02 -0.14627039410E+02  0.13992267013E+03  0.30807714284E+03  0.26295192264E+03 0.  0.
         25    1    4    4    0    0 -0.72005156955E+02 -0.82495470875E+01  0.46957800611E+02  0.15200441044E+03  0.12509000000E+03 0.  0.
         25    1    3    3    0    0  0.77301412806E+02  0.14627039410E+02  0.12873123830E+03  0.19598137288E+03  0.12509000000E+03 0.  0.
         25    1    4    4    0    0 -0.52962558504E+01 -0.63774923224E+01  0.92964869517E+02  0.15607273240E+03  0.12509000000E+03 0.  0.
<mgrwt>
<rscale>  2 0.42649744E+03</rscale>
<asrwt>0</asrwt>
<pdfrwt beam="1">  1       21 0.56817089E-01 0.42649744E+03</pdfrwt>
<pdfrwt beam="2">  1       21 0.17309162E-01 0.42649744E+03</pdfrwt>
<totfact> 0.82013839E+04</totfact>
</mgrwt>
</event>
<event>
 7    0  0.4748297E-002  0.4530024E+03  0.7546771E-02  0.1026830E+00
         21   -1    0    0  502  501  0.00000000000E+00  0.00000000000E+00  0.54568047974E+03  0.54568047974E+03  0.00000000000E+00 0. -1.
         21   -1    0    0  501  502 -0.00000000000E+00 -0.00000000000E+00 -0.94016161626E+02  0.94016161626E+02  0.00000000000E+00 0. -1.
      99926    2    1    2    0    0  0.00000000000E+00 -0.35527136788E-14  0.45166431811E+03  0.63969664137E+03  0.45300235840E+03 0.  0.
      99925    2    3    3    0    0  0.59377642953E+01  0.20775460148E+02  0.13056051510E+03  0.29441119829E+03  0.26299245006E+03 0.  0.
         25    1    4    4    0    0 -0.27755409472E+01  0.22257545789E+02  0.22894456114E+02  0.12913081039E+03  0.12509000000E+03 0.  0.
         25    1    4    4    0    0  0.87133052425E+01 -0.14820856416E+01  0.10766605899E+03  0.16528038790E+03  0.12509000000E+03 0.  0.
         25    1    3    3    0    0 -0.59377642953E+01 -0.20775460148E+02  0.32110380301E+03  0.34528544307E+03  0.12509000000E+03 0.  0.
<mgrwt>
<rscale>  2 0.45300236E+03</rscale>
<asrwt>0</asrwt>
<pdfrwt beam="1">  1       21 0.80247128E-01 0.45300236E+03</pdfrwt>
<pdfrwt beam="2">  1       21 0.13825906E-01 0.45300236E+03</pdfrwt>
<totfact> 0.57195331E+04</totfact>
</mgrwt>
</event>
<event>
 7    0  0.4748297E-002  0.4549130E+03  0.7546771E-02  0.1026267E+00
         21   -1    0    0  502  501  0.00000000000E+00  0.00000000000E+00  0.98379474348E+03  0.98379474348E+03  0.00000000000E+00 0.  1.
         21   -1    0    0  501  502 -0.00000000000E+00 -0.00000000000E+00 -0.52588668349E+02  0.52588668349E+02  0.00000000000E+00 0.  1.
      99926    2    1    2    0    0 -0.35527136788E-14  0.00000000000E+00  0.93120607513E+03  0.10363834118E+04  0.45491298284E+03 0.  0.
      99925    2    3    3    0    0  0.26697411914E+02 -0.64890633954E+02  0.38411127263E+03  0.47080072362E+03  0.26303669976E+03 0.  0.
         25    1    3    3    0    0 -0.26697411914E+02  0.64890633954E+02  0.54709480251E+03  0.56558268822E+03  0.12509000000E+03 0.  0.
         25    1    4    4    0    0  0.42633392363E+02 -0.40347651126E+01  0.18683691814E+03  0.22888736871E+03  0.12509000000E+03 0.  0.
         25    1    4    4    0    0 -0.15935980450E+02 -0.60855868841E+02  0.19727435448E+03  0.24191335491E+03  0.12509000000E+03 0.  0.
<mgrwt>
<rscale>  2 0.45491298E+03</rscale>
<asrwt>0</asrwt>
<pdfrwt beam="1">  1       21 0.14467569E+00 0.45491298E+03</pdfrwt>
<pdfrwt beam="2">  1       21 0.77336283E-02 0.45491298E+03</pdfrwt>
<totfact> 0.37806708E+04</totfact>
</mgrwt>
</event>
<event>
 7    0  0.4748297E-002  0.4525322E+03  0.7546771E-02  0.1026970E+00
         21   -1    0    0  502  501  0.00000000000E+00  0.00000000000E+00  0.99264034250E+02  0.99264034250E+02  0.00000000000E+00 0.  1.
         21   -1    0    0  501  502 -0.00000000000E+00 -0.00000000000E+00 -0.51575925664E+03  0.51575925664E+03  0.00000000000E+00 0.  1.
      99926    2    1    2    0    0  0.00000000000E+00  0.00000000000E+00 -0.41649522239E+03  0.61502329089E+03  0.45253218456E+03 0.  0.
      99925    2    3    3    0    0 -0.91506758359E+02 -0.23397535875E+02 -0.18366226463E+03  0.33434620628E+03  0.26293464338E+03 0.  0.
         25    1    4    4    0    0 -0.35278596098E+02 -0.13764159939E+02 -0.13654208913E+03  0.18901132676E+03  0.12509000000E+03 0.  0.
         25    1    3    3    0    0  0.91506758359E+02  0.23397535875E+02 -0.23283295776E+03  0.28067708461E+03  0.12509000000E+03 0.  0.
         25    1    4    4    0    0 -0.56228162261E+02 -0.96333759361E+01 -0.47120175508E+02  0.14533487951E+03  0.12509000000E+03 0.  0.
<mgrwt>
<rscale>  2 0.45253218E+03</rscale>
<asrwt>0</asrwt>
<pdfrwt beam="1">  1       21 0.14597652E-01 0.45253218E+03</pdfrwt>
<pdfrwt beam="2">  1       21 0.75846949E-01 0.45253218E+03</pdfrwt>
<totfact> 0.58902582E+04</totfact>
</mgrwt>
</event>
<event>
 7    0  0.4748297E-002  0.4776620E+03  0.7546771E-02  0.1019780E+00
         21   -1    0    0  502  501  0.00000000000E+00  0.00000000000E+00  0.76329966993E+02  0.76329966993E+02  0.00000000000E+00 0. -1.
         21   -1    0    0  501  502 -0.00000000000E+00 -0.00000000000E+00 -0.74728524841E+03  0.74728524841E+03  0.00000000000E+00 0. -1.
      99926    2    1    2    0    0  0.00000000000E+00 -0.14210854715E-13 -0.67095528142E+03  0.82361521541E+03  0.47766204934E+03 0.  0.
      99925    2    3    3    0    0 -0.68832884833E+02  0.89222129566E+02 -0.53681519927E+03  0.60834881260E+03  0.26309535379E+03 0.  0.
         25    1    3    3    0    0  0.68832884833E+02 -0.89222129566E+02 -0.13414008215E+03  0.21526640281E+03  0.12509000000E+03 0.  0.
         25    1    4    4    0    0 -0.37361258110E+02  0.86872878593E+02 -0.31024865964E+03  0.34762695458E+03  0.12509000000E+03 0.  0.
         25    1    4    4    0    0 -0.31471626723E+02  0.23492509737E+01 -0.22656653963E+03  0.26072185802E+03  0.12509000000E+03 0.  0.
<mgrwt>
<rscale>  2 0.47766205E+03</rscale>
<asrwt>0</asrwt>
<pdfrwt beam="1">  1       21 0.11224994E-01 0.47766205E+03</pdfrwt>
<pdfrwt beam="2">  1       21 0.10989490E+00 0.47766205E+03</pdfrwt>
<totfact> 0.39195161E+04</totfact>
</mgrwt>
</event>
<event>
 7    0  0.4748297E-002  0.4304575E+03  0.7546771E-02  0.1033716E+00
         21   -1    0    0  502  501  0.00000000000E+00  0.00000000000E+00  0.91255172006E+02  0.91255172006E+02  0.00000000000E+00 0.  1.
         21   -1    0    0  501  502 -0.00000000000E+00 -0.00000000000E+00 -0.50762501703E+03  0.50762501703E+03  0.00000000000E+00 0.  1.
      99926    2    1    2    0    0  0.00000000000E+00  0.17763568394E-14 -0.41636984502E+03  0.59888018903E+03  0.43045746941E+03 0.  0.
      99925    2    3    3    0    0  0.52130439678E+02 -0.81115220309E+01 -0.36666362221E+03  0.45430634556E+03  0.26299936166E+03 0.  0.
         25    1    4    4    0    0  0.29476980646E+02  0.29925101810E+02 -0.14578710707E+03  0.19663619401E+03  0.12509000000E+03 0.  0.
         25    1    4    4    0    0  0.22653459032E+02 -0.38036623841E+02 -0.22087651514E+03  0.25767015155E+03  0.12509000000E+03 0.  0.
         25    1    3    3    0    0 -0.52130439678E+02  0.81115220309E+01 -0.49706222811E+02  0.14457384347E+03  0.12509000000E+03 0.  0.
<mgrwt>
<rscale>  2 0.43045747E+03</rscale>
<asrwt>0</asrwt>
<pdfrwt beam="1">  1       21 0.13419878E-01 0.43045747E+03</pdfrwt>
<pdfrwt beam="2">  1       21 0.74650738E-01 0.43045747E+03</pdfrwt>
<totfact> 0.71664593E+04</totfact>
</mgrwt>
</event>
<event>
 7    0  0.4748297E-002  0.4374105E+03  0.7546771E-02  0.1031544E+00
         21   -1    0    0  502  501  0.00000000000E+00  0.00000000000E+00  0.42034500551E+02  0.42034500551E+02  0.00000000000E+00 0. -1.
         21   -1    0    0  501  502 -0.00000000000E+00 -0.00000000000E+00 -0.11379221877E+04  0.11379221877E+04  0.00000000000E+00 0. -1.
      99926    2    1    2    0    0  0.00000000000E+00  0.00000000000E+00 -0.10958876872E+04  0.11799566883E+04  0.43741052034E+03 0.  0.
      99925    2    3    3    0    0 -0.30029948808E+02 -0.44233797320E+02 -0.91543738508E+03  0.95397384318E+03  0.26302482928E+03 0.  0.
         25    1    3    3    0    0  0.30029948808E+02  0.44233797320E+02 -0.18045030207E+03  0.22598284508E+03  0.12509000000E+03 0.  0.
         25    1    4    4    0    0 -0.44261565718E+02 -0.21169256942E+02 -0.56896731656E+03  0.58461828491E+03  0.12509000000E+03 0.  0.
         25    1    4    4    0    0  0.14231616910E+02 -0.23064540379E+02 -0.34647006853E+03  0.36935555828E+03  0.12509000000E+03 0.  0.
<mgrwt>
<rscale>  2 0.43741052E+03</rscale>
<asrwt>0</asrwt>
<pdfrwt beam="1">  1       21 0.61815449E-02 0.43741052E+03</pdfrwt>
<pdfrwt beam="2">  1       21 0.16734148E+00 0.43741052E+03</pdfrwt>
<totfact> 0.37706232E+04</totfact>
</mgrwt>
</event>
<event>
 7    0  0.4748297E-002  0.4514055E+03  0.7546771E-02  0.1027304E+00
         21   -1    0    0  502  501  0.00000000000E+00  0.00000000000E+00  0.57873330978E+02  0.57873330978E+02  0.00000000000E+00 0.  1.
         21   -1    0    0  501  502 -0.00000000000E+00 -0.00000000000E+00 -0.88022791345E+03  0.88022791345E+03  0.00000000000E+00 0.  1.
      99926    2    1    2    0    0 -0.14210854715E-13  0.71054273576E-14 -0.82235458247E+03  0.93810124443E+03  0.45140545576E+03 0.  0.
      99925    2    3    3    0    0  0.92511378914E+02 -0.58673215015E+02 -0.52189632722E+03  0.59470122603E+03  0.26323538988E+03 0.  0.
         25    1    3    3    0    0 -0.92511378914E+02  0.58673215015E+02 -0.30045825525E+03  0.34340001840E+03  0.12509000000E+03 0.  0.
         25    1    4    4    0    0  0.39118404902E+02 -0.53960113268E+02 -0.33279537332E+03  0.36172117995E+03  0.12509000000E+03 0.  0.
         25    1    4    4    0    0  0.53392974012E+02 -0.47131017467E+01 -0.18910095391E+03  0.23298004608E+03  0.12509000000E+03 0.  0.
<mgrwt>
<rscale>  2 0.45140546E+03</rscale>
<asrwt>0</asrwt>
<pdfrwt beam="1">  1       21 0.85107837E-02 0.45140546E+03</pdfrwt>
<pdfrwt beam="2">  1       21 0.12944529E+00 0.45140546E+03</pdfrwt>
<totfact> 0.42817484E+04</totfact>
</mgrwt>
</event>
<event>
 7    0  0.4748297E-002  0.4665671E+03  0.7546771E-02  0.1022894E+00
         21   -1    0    0  502  501  0.00000000000E+00  0.00000000000E+00  0.25143865694E+03  0.25143865694E+03  0.00000000000E+00 0.  1.
         21   -1    0    0  501  502 -0.00000000000E+00 -0.00000000000E+00 -0.21643935349E+03  0.21643935349E+03  0.00000000000E+00 0.  1.
      99926    2    1    2    0    0  0.00000000000E+00  0.00000000000E+00  0.34999303450E+02  0.46787801043E+03  0.46656712422E+03 0.  0.
      99925    2    3    3    0    0  0.87985320034E+02 -0.52031049214E+02  0.93150422716E+02  0.29618727860E+03  0.26191841503E+03 0.  0.
         25    1    3    3    0    0 -0.87985320034E+02  0.52031049214E+02 -0.58151119266E+02  0.17169073183E+03  0.12509000000E+03 0.  0.
         25    1    4    4    0    0  0.20152120725E+02 -0.54149012165E+01  0.16249686738E+02  0.12785534617E+03  0.12509000000E+03 0.  0.
         25    1    4    4    0    0  0.67833199309E+02 -0.46616147998E+02  0.76900735978E+02  0.16833193243E+03  0.12509000000E+03 0.  0.
<mgrwt>
<rscale>  2 0.46656712E+03</rscale>
<asrwt>0</asrwt>
<pdfrwt beam="1">  1       21 0.36976273E-01 0.46656712E+03</pdfrwt>
<pdfrwt beam="2">  1       21 0.31829317E-01 0.46656712E+03</pdfrwt>
<totfact> 0.61716869E+04</totfact>
</mgrwt>
</event>
<event>
 7    0  0.4748297E-002  0.4568864E+03  0.7546771E-02  0.1025688E+00
         21   -1    0    0  502  501  0.00000000000E+00  0.00000000000E+00  0.17413529569E+04  0.17413529569E+04  0.00000000000E+00 0.  1.
         21   -1    0    0  501  502 -0.00000000000E+00 -0.00000000000E+00 -0.29968826505E+02  0.29968826505E+02  0.00000000000E+00 0.  1.
      99926    2    1    2    0    0  0.00000000000E+00  0.00000000000E+00  0.17113841304E+04  0.17713217834E+04  0.45688643950E+03 0.  0.
      99925    2    3    3    0    0 -0.38288840475E+02  0.75186786985E+02  0.13771257549E+04  0.14045858321E+04  0.26318610692E+03 0.  0.
         25    1    4    4    0    0 -0.26177121725E+02  0.78551720179E+02  0.79687910201E+03  0.81087571537E+03  0.12509000000E+03 0.  0.
         25    1    4    4    0    0 -0.12111718750E+02 -0.33649331945E+01  0.58024665285E+03  0.59371011677E+03  0.12509000000E+03 0.  0.
         25    1    3    3    0    0  0.38288840475E+02 -0.75186786985E+02  0.33425837552E+03  0.36673595126E+03  0.12509000000E+03 0.  0.
<mgrwt>
<rscale>  2 0.45688644E+03</rscale>
<asrwt>0</asrwt>
<pdfrwt beam="1">  1       21 0.25608125E+00 0.45688644E+03</pdfrwt>
<pdfrwt beam="2">  1       21 0.44071816E-02 0.45688644E+03</pdfrwt>
<totfact> 0.17558503E+04</totfact>
</mgrwt>
</event>
<event>
 7    0  0.4748297E-002  0.4523556E+03  0.7546771E-02  0.1027022E+00
         21   -1    0    0  502  501  0.00000000000E+00  0.00000000000E+00  0.12180593869E+03  0.12180593869E+03  0.00000000000E+00 0. -1.
         21   -1    0    0  501  502 -0.00000000000E+00 -0.00000000000E+00 -0.41998274811E+03  0.41998274811E+03  0.00000000000E+00 0. -1.
      99926    2    1    2    0    0  0.00000000000E+00  0.00000000000E+00 -0.29817680941E+03  0.54178868680E+03  0.45235558079E+03 0.  0.
      99925    2    3    3    0    0 -0.69415794511E+01  0.14256216576E+02 -0.56929697473E+02  0.26957718382E+03  0.26301985162E+03 0.  0.
         25    1    4    4    0    0  0.15140224693E+02  0.33244578431E+02 -0.31947282916E+01  0.13035391359E+03  0.12509000000E+03 0.  0.
         25    1    4    4    0    0 -0.22081804144E+02 -0.18988361855E+02 -0.53734969182E+02  0.13922327023E+03  0.12509000000E+03 0.  0.
         25    1    3    3    0    0  0.69415794511E+01 -0.14256216576E+02 -0.24124711194E+03  0.27221150298E+03  0.12509000000E+03 0.  0.
<mgrwt>
<rscale>  2 0.45235558E+03</rscale>
<asrwt>0</asrwt>
<pdfrwt beam="1">  1       21 0.17912639E-01 0.45235558E+03</pdfrwt>
<pdfrwt beam="2">  1       21 0.61762167E-01 0.45235558E+03</pdfrwt>
<totfact> 0.63735747E+04</totfact>
</mgrwt>
</event>
<event>
 7    0  0.4748297E-002  0.4587811E+03  0.7546771E-02  0.1025135E+00
         21   -1    0    0  502  501  0.00000000000E+00  0.00000000000E+00  0.28967880505E+04  0.28967880505E+04  0.00000000000E+00 0. -1.
         21   -1    0    0  501  502 -0.00000000000E+00 -0.00000000000E+00 -0.18164958367E+02  0.18164958367E+02  0.00000000000E+00 0. -1.
      99926    2    1    2    0    0  0.00000000000E+00  0.00000000000E+00  0.28786230922E+04  0.29149530089E+04  0.45878114319E+03 0.  0.
      99925    2    3    3    0    0  0.11447174809E+03 -0.19830415582E+02  0.17373486967E+04  0.17609808340E+04  0.26301326479E+03 0.  0.
         25    1    3    3    0    0 -0.11447174809E+03  0.19830415582E+02  0.11412743955E+04  0.11539721749E+04  0.12509000000E+03 0.  0.
         25    1    4    4    0    0  0.25205040874E+02 -0.98494468190E+01  0.96299777836E+03  0.97146514859E+03  0.12509000000E+03 0.  0.
         25    1    4    4    0    0  0.89266707216E+02 -0.99809687629E+01  0.77435091830E+03  0.78951568542E+03  0.12509000000E+03 0.  0.
<mgrwt>
<rscale>  2 0.45878114E+03</rscale>
<asrwt>0</asrwt>
<pdfrwt beam="1">  1       21 0.42599792E+00 0.45878114E+03</pdfrwt>
<pdfrwt beam="2">  1       21 0.26713194E-02 0.45878114E+03</pdfrwt>
<totfact> 0.36410367E+03</totfact>
</mgrwt>
</event>
<event>
 7    0  0.4748297E-002  0.4565547E+03  0.7546771E-02  0.1025785E+00
         21   -1    0    0  502  501  0.00000000000E+00  0.00000000000E+00  0.17417437501E+04  0.17417437501E+04  0.00000000000E+00 0. -1.
         21   -1    0    0  501  502 -0.00000000000E+00 -0.00000000000E+00 -0.29918602222E+02  0.29918602222E+02  0.00000000000E+00 0. -1.
      99926    2    1    2    0    0  0.00000000000E+00  0.00000000000E+00  0.17118251479E+04  0.17716623524E+04  0.45655465580E+03 0.  0.
      99925    2    3    3    0    0 -0.75837592534E+02  0.82639075433E+02  0.11709307486E+04  0.12052748379E+04  0.26273191587E+03 0.  0.
         25    1    3    3    0    0  0.75837592534E+02 -0.82639075433E+02  0.54089439929E+03  0.56638751444E+03  0.12509000000E+03 0.  0.
         25    1    4    4    0    0 -0.51636850105E+02  0.13796135176E+02  0.45753931468E+03  0.47733262010E+03  0.12509000000E+03 0.  0.
         25    1    4    4    0    0 -0.24200742429E+02  0.68842940258E+02  0.71339143396E+03  0.72794221783E+03  0.12509000000E+03 0.  0.
<mgrwt>
<rscale>  2 0.45655466E+03</rscale>
<asrwt>0</asrwt>
<pdfrwt beam="1">  1       21 0.25613872E+00 0.45655466E+03</pdfrwt>
<pdfrwt beam="2">  1       21 0.43997956E-02 0.45655466E+03</pdfrwt>
<totfact> 0.17597016E+04</totfact>
</mgrwt>
</event>
<event>
 7    0  0.4748297E-002  0.4582410E+03  0.7546771E-02  0.1025293E+00
         21   -1    0    0  502  501  0.00000000000E+00  0.00000000000E+00  0.12504234519E+04  0.12504234519E+04  0.00000000000E+00 0.  1.
         21   -1    0    0  501  502 -0.00000000000E+00 -0.00000000000E+00 -0.41982732699E+02  0.41982732699E+02  0.00000000000E+00 0.  1.
      99926    2    1    2    0    0 -0.14210854715E-13 -0.71054273576E-14  0.12084407192E+04  0.12924061846E+04  0.45824095644E+03 0.  0.
      99925    2    3    3    0    0 -0.94278280598E+02 -0.56526038260E+02  0.65279001103E+03  0.71233825341E+03  0.26307299669E+03 0.  0.
         25    1    3    3    0    0  0.94278280598E+02  0.56526038260E+02  0.55565070815E+03  0.58006793116E+03  0.12509000000E+03 0.  0.
         25    1    4    4    0    0 -0.63991691998E+02 -0.31468452936E+02  0.24717332145E+03  0.28605481837E+03  0.12509000000E+03 0.  0.
         25    1    4    4    0    0 -0.30286588600E+02 -0.25057585324E+02  0.40561668957E+03  0.42628343504E+03  0.12509000000E+03 0.  0.
<mgrwt>
<rscale>  2 0.45824096E+03</rscale>
<asrwt>0</asrwt>
<pdfrwt beam="1">  1       21 0.18388578E+00 0.45824096E+03</pdfrwt>
<pdfrwt beam="2">  1       21 0.61739321E-02 0.45824096E+03</pdfrwt>
<totfact> 0.28607963E+04</totfact>
</mgrwt>
</event>
<event>
 7    0  0.4748297E-002  0.4662584E+03  0.7546771E-02  0.1022982E+00
         21   -1    0    0  502  501  0.00000000000E+00  0.00000000000E+00  0.38787801898E+02  0.38787801898E+02  0.00000000000E+00 0.  1.
         21   -1    0    0  501  502 -0.00000000000E+00 -0.00000000000E+00 -0.14011937418E+04  0.14011937418E+04  0.00000000000E+00 0.  1.
      99926    2    1    2    0    0  0.00000000000E+00  0.00000000000E+00 -0.13624059399E+04  0.14399815437E+04  0.46625840594E+03 0.  0.
      99925    2    3    3    0    0 -0.49996263620E+02 -0.11154296513E+03 -0.90428451350E+03  0.94961004282E+03  0.26284461688E+03 0.  0.
         25    1    3    3    0    0  0.49996263620E+02  0.11154296513E+03 -0.45812142642E+03  0.49037150089E+03  0.12509000000E+03 0.  0.
         25    1    4    4    0    0 -0.10897012164E+02 -0.28123588046E+02 -0.50585391769E+03  0.52196300177E+03  0.12509000000E+03 0.  0.
         25    1    4    4    0    0 -0.39099251457E+02 -0.83419377084E+02 -0.39843059581E+03  0.42764704105E+03  0.12509000000E+03 0.  0.
<mgrwt>
<rscale>  2 0.46625841E+03</rscale>
<asrwt>0</asrwt>
<pdfrwt beam="1">  1       21 0.57040902E-02 0.46625841E+03</pdfrwt>
<pdfrwt beam="2">  1       21 0.20605784E+00 0.46625841E+03</pdfrwt>
<totfact> 0.23189943E+04</totfact>
</mgrwt>
</event>
<event>
 7    0  0.4748297E-002  0.4476215E+03  0.7546771E-02  0.1028434E+00
         21   -1    0    0  502  501  0.00000000000E+00  0.00000000000E+00  0.13662967925E+03  0.13662967925E+03  0.00000000000E+00 0. -1.
         21   -1    0    0  501  502 -0.00000000000E+00 -0.00000000000E+00 -0.36662064138E+03  0.36662064138E+03  0.00000000000E+00 0. -1.
      99926    2    1    2    0    0  0.00000000000E+00  0.00000000000E+00 -0.22999096213E+03  0.50325032064E+03  0.44762153943E+03 0.  0.
      99925    2    3    3    0    0  0.51095042427E+02  0.92940961964E+02 -0.14317030644E+03  0.31768615350E+03  0.26301716618E+03 0.  0.
         25    1    4    4    0    0  0.64579294654E+02  0.34951096928E+02 -0.71888671344E+02  0.16188747216E+03  0.12509000000E+03 0.  0.
         25    1    4    4    0    0 -0.13484252226E+02  0.57989865036E+02 -0.71281635092E+02  0.15579868134E+03  0.12509000000E+03 0.  0.
         25    1    3    3    0    0 -0.51095042427E+02 -0.92940961964E+02 -0.86820655696E+02  0.18556416714E+03  0.12509000000E+03 0.  0.
<mgrwt>
<rscale>  2 0.44762154E+03</rscale>
<asrwt>0</asrwt>
<pdfrwt beam="1">  1       21 0.20092600E-01 0.44762154E+03</pdfrwt>
<pdfrwt beam="2">  1       21 0.53914800E-01 0.44762154E+03</pdfrwt>
<totfact> 0.68995729E+04</totfact>
</mgrwt>
</event>
<event>
 7    0  0.4748297E-002  0.4478997E+03  0.7546771E-02  0.1028350E+00
         21   -1    0    0  502  501  0.00000000000E+00  0.00000000000E+00  0.10195051993E+04  0.10195051993E+04  0.00000000000E+00 0.  1.
         21   -1    0    0  501  502 -0.00000000000E+00 -0.00000000000E+00 -0.49193999917E+02  0.49193999917E+02  0.00000000000E+00 0.  1.
      99926    2    1    2    0    0  0.35527136788E-14  0.00000000000E+00  0.97031119940E+03  0.10686991992E+04  0.44789971507E+03 0.  0.
      99925    2    3    3    0    0  0.22684384829E+02 -0.89401287784E+02  0.48770129002E+03  0.56168144382E+03  0.26291885530E+03 0.  0.
         25    1    4    4    0    0 -0.23538988369E+02 -0.58423403902E+02  0.27725928314E+03  0.31062452621E+03  0.12509000000E+03 0.  0.
         25    1    3    3    0    0 -0.22684384829E+02  0.89401287784E+02  0.48260990938E+03  0.50701775541E+03  0.12509000000E+03 0.  0.
         25    1    4    4    0    0  0.46223373198E+02 -0.30977883882E+02  0.21044200688E+03  0.25105691761E+03  0.12509000000E+03 0.  0.
<mgrwt>
<rscale>  2 0.44789972E+03</rscale>
<asrwt>0</asrwt>
<pdfrwt beam="1">  1       21 0.14992722E+00 0.44789972E+03</pdfrwt>
<pdfrwt beam="2">  1       21 0.72344124E-02 0.44789972E+03</pdfrwt>
<totfact> 0.38698836E+04</totfact>
</mgrwt>
</event>
<event>
 7    0  0.4748297E-002  0.4561000E+03  0.7546771E-02  0.1025918E+00
         21   -1    0    0  502  501  0.00000000000E+00  0.00000000000E+00  0.34652166536E+02  0.34652166536E+02  0.00000000000E+00 0. -1.
         21   -1    0    0  501  502 -0.00000000000E+00 -0.00000000000E+00 -0.15008241962E+04  0.15008241962E+04  0.00000000000E+00 0. -1.
      99926    2    1    2    0    0  0.00000000000E+00  0.00000000000E+00 -0.14661720297E+04  0.15354763628E+04  0.45610003284E+03 0.  0.
      99925    2    3    3    0    0 -0.21416803338E+02 -0.74417320500E+02 -0.12040357562E+04  0.12348777083E+04  0.26310498916E+03 0.  0.
         25    1    4    4    0    0 -0.43175466315E+02 -0.42032141595E+02 -0.50897774920E+03  0.52757623060E+03  0.12509000000E+03 0.  0.
         25    1    3    3    0    0  0.21416803338E+02  0.74417320500E+02 -0.26213627351E+03  0.30059865443E+03  0.12509000000E+03 0.  0.
         25    1    4    4    0    0  0.21758662977E+02 -0.32385178905E+02 -0.69505800699E+03  0.70730147773E+03  0.12509000000E+03 0.  0.
<mgrwt>
<rscale>  2 0.45610003E+03</rscale>
<asrwt>0</asrwt>
<pdfrwt beam="1">  1       21 0.50959077E-02 0.45610003E+03</pdfrwt>
<pdfrwt beam="2">  1       21 0.22070940E+00 0.45610003E+03</pdfrwt>
<totfact> 0.22728110E+04</totfact>
</mgrwt>
</event>
<event>
 7    0  0.4748297E-002  0.4778492E+03  0.7546771E-02  0.1019728E+00
         21   -1    0    0  502  501  0.00000000000E+00  0.00000000000E+00  0.75309262816E+02  0.75309262816E+02  0.00000000000E+00 0.  1.
         21   -1    0    0  501  502 -0.00000000000E+00 -0.00000000000E+00 -0.75800722411E+03  0.75800722411E+03  0.00000000000E+00 0.  1.
      99926    2    1    2    0    0  0.71054273576E-14  0.14210854715E-13 -0.68269796129E+03  0.83331648692E+03  0.47784920323E+03 0.  0.
      99925    2    3    3    0    0 -0.44049435200E+02 -0.82995962294E+02 -0.25643334315E+03  0.37924852364E+03  0.26314007811E+03 0.  0.
         25    1    4    4    0    0 -0.14488525371E+02 -0.25681540223E+01 -0.94905340048E+02  0.15770556253E+03  0.12509000000E+03 0.  0.
         25    1    4    4    0    0 -0.29560909829E+02 -0.80427808272E+02 -0.16152800310E+03  0.22154296111E+03  0.12509000000E+03 0.  0.
         25    1    3    3    0    0  0.44049435200E+02  0.82995962294E+02 -0.42626461814E+03  0.45406796328E+03  0.12509000000E+03 0.  0.
<mgrwt>
<rscale>  2 0.47784920E+03</rscale>
<asrwt>0</asrwt>
<pdfrwt beam="1">  1       21 0.11074891E-01 0.47784920E+03</pdfrwt>
<pdfrwt beam="2">  1       21 0.11147166E+00 0.47784920E+03</pdfrwt>
<totfact> 0.38764119E+04</totfact>
</mgrwt>
</event>
<event>
 7    0  0.4748297E-002  0.4524602E+03  0.7546771E-02  0.1026991E+00
         21   -1    0    0  502  501  0.00000000000E+00  0.00000000000E+00  0.45221461824E+03  0.45221461824E+03  0.00000000000E+00 0. -1.
         21   -1    0    0  501  502 -0.00000000000E+00 -0.00000000000E+00 -0.11317648821E+03  0.11317648821E+03  0.00000000000E+00 0. -1.
      99926    2    1    2    0    0  0.00000000000E+00  0.00000000000E+00  0.33903813003E+03  0.56539110645E+03  0.45246021884E+03 0.  0.
      99925    2    3    3    0    0  0.37361964878E+02  0.93437718078E+02  0.15540912933E+03  0.32147792194E+03  0.26281083166E+03 0.  0.
         25    1    4    4    0    0 -0.72216228723E+01  0.14527539697E+02  0.57801209960E+02  0.13875045665E+03  0.12509000000E+03 0.  0.
         25    1    4    4    0    0  0.44583587750E+02  0.78910178380E+02  0.97607919369E+02  0.18272746529E+03  0.12509000000E+03 0.  0.
         25    1    3    3    0    0 -0.37361964878E+02 -0.93437718078E+02  0.18362900070E+03  0.24391318451E+03  0.12509000000E+03 0.  0.
<mgrwt>
<rscale>  2 0.45246022E+03</rscale>
<asrwt>0</asrwt>
<pdfrwt beam="1">  1       21 0.66502149E-01 0.45246022E+03</pdfrwt>
<pdfrwt beam="2">  1       21 0.16643601E-01 0.45246022E+03</pdfrwt>
<totfact> 0.62098742E+04</totfact>
</mgrwt>
</event>
<event>
 7    0  0.4748297E-002  0.4507603E+03  0.7546771E-02  0.1027496E+00
         21   -1    0    0  502  501  0.00000000000E+00  0.00000000000E+00  0.28236300128E+03  0.28236300128E+03  0.00000000000E+00 0.  1.
         21   -1    0    0  501  502 -0.00000000000E+00 -0.00000000000E+00 -0.17989683982E+03  0.17989683982E+03  0.00000000000E+00 0.  1.
      99926    2    1    2    0    0  0.00000000000E+00  0.00000000000E+00  0.10246616146E+03  0.46225984110E+03  0.45076029822E+03 0.  0.
      99925    2    3    3    0    0  0.10804595228E+03  0.67838097135E+01  0.50169747114E+02  0.28875949260E+03  0.26295454581E+03 0.  0.
         25    1    4    4    0    0  0.20975522294E+02  0.91151499456E+00  0.49718212354E+02  0.13623586949E+03  0.12509000000E+03 0.  0.
         25    1    4    4    0    0  0.87070429986E+02  0.58722947190E+01  0.45153476032E+00  0.15252362311E+03  0.12509000000E+03 0.  0.
         25    1    3    3    0    0 -0.10804595228E+03 -0.67838097135E+01  0.52296414348E+02  0.17350034851E+03  0.12509000000E+03 0.  0.
<mgrwt>
<rscale>  2 0.45076030E+03</rscale>
<asrwt>0</asrwt>
<pdfrwt beam="1">  1       21 0.41523971E-01 0.45076030E+03</pdfrwt>
<pdfrwt beam="2">  1       21 0.26455417E-01 0.45076030E+03</pdfrwt>
<totfact> 0.70352409E+04</totfact>
</mgrwt>
</event>
<event>
 7    0  0.4748297E-002  0.4545126E+03  0.7546771E-02  0.1026385E+00
         21   -1    0    0  502  501  0.00000000000E+00  0.00000000000E+00  0.77300132873E+03  0.77300132873E+03  0.00000000000E+00 0. -1.
         21   -1    0    0  501  502 -0.00000000000E+00 -0.00000000000E+00 -0.66811557557E+02  0.66811557557E+02  0.00000000000E+00 0. -1.
      99926    2    1    2    0    0  0.00000000000E+00  0.00000000000E+00  0.70618977118E+03  0.83981288629E+03  0.45451258626E+03 0.  0.
      99925    2    3    3    0    0  0.44017645966E+02  0.24856899283E+02  0.63070722046E+03  0.68521488449E+03  0.26300650446E+03 0.  0.
         25    1    4    4    0    0  0.56562345091E+02  0.14605224703E+02  0.27306219759E+03  0.30597889359E+03  0.12509000000E+03 0.  0.
         25    1    3    3    0    0 -0.44017645966E+02 -0.24856899283E+02  0.75482550714E+02  0.15459800180E+03  0.12509000000E+03 0.  0.
         25    1    4    4    0    0 -0.12544699125E+02  0.10251674580E+02  0.35764502287E+03  0.37923599090E+03  0.12509000000E+03 0.  0.
<mgrwt>
<rscale>  2 0.45451259E+03</rscale>
<asrwt>0</asrwt>
<pdfrwt beam="1">  1       21 0.11367666E+00 0.45451259E+03</pdfrwt>
<pdfrwt beam="2">  1       21 0.98252295E-02 0.45451259E+03</pdfrwt>
<totfact> 0.46074513E+04</totfact>
</mgrwt>
</event>
<event>
 7    0  0.4748297E-002  0.4590188E+03  0.7546771E-02  0.1025066E+00
         21   -1    0    0  502  501  0.00000000000E+00  0.00000000000E+00  0.21180366345E+03  0.21180366345E+03  0.00000000000E+00 0.  1.
         21   -1    0    0  501  502 -0.00000000000E+00 -0.00000000000E+00 -0.24869525106E+03  0.24869525106E+03  0.00000000000E+00 0.  1.
      99926    2    1    2    0    0  0.17763568394E-14  0.00000000000E+00 -0.36891587605E+02  0.46049891451E+03  0.45901880248E+03 0.  0.
      99925    2    3    3    0    0  0.15414762841E+02  0.11020033445E+03 -0.58776477608E+02  0.29165524381E+03  0.26310906159E+03 0.  0.
         25    1    4    4    0    0 -0.27700777850E+02  0.33275783239E+02 -0.33366897017E+02  0.13651178982E+03  0.12509000000E+03 0.  0.
         25    1    4    4    0    0  0.43115540691E+02  0.76924551214E+02 -0.25409580591E+02  0.15514345398E+03  0.12509000000E+03 0.  0.
         25    1    3    3    0    0 -0.15414762841E+02 -0.11020033445E+03  0.21884890002E+02  0.16884367071E+03  0.12509000000E+03 0.  0.
<mgrwt>
<rscale>  2 0.45901880E+03</rscale>
<asrwt>0</asrwt>
<pdfrwt beam="1">  1       21 0.31147598E-01 0.45901880E+03</pdfrwt>
<pdfrwt beam="2">  1       21 0.36572831E-01 0.45901880E+03</pdfrwt>
<totfact> 0.66002943E+04</totfact>
</mgrwt>
</event>
<event>
 7    0  0.4748297E-002  0.4567654E+03  0.7546771E-02  0.1025724E+00
         21   -1    0    0  502  501  0.00000000000E+00  0.00000000000E+00  0.72054201223E+03  0.72054201223E+03  0.00000000000E+00 0. -1.
         21   -1    0    0  501  502 -0.00000000000E+00 -0.00000000000E+00 -0.72388080036E+02  0.72388080036E+02  0.00000000000E+00 0. -1.
      99926    2    1    2    0    0  0.00000000000E+00  0.00000000000E+00  0.64815393219E+03  0.79293009226E+03  0.45676537894E+03 0.  0.
      99925    2    3    3    0    0 -0.11037363421E+03  0.19450904985E+02  0.36358127773E+03  0.46249132244E+03  0.26295665230E+03 0.  0.
         25    1    4    4    0    0 -0.75783739707E+02 -0.25526241199E+02  0.18606345736E+03  0.23803756522E+03  0.12509000000E+03 0.  0.
         25    1    3    3    0    0  0.11037363421E+03 -0.19450904985E+02  0.28457265446E+03  0.33043876982E+03  0.12509000000E+03 0.  0.
         25    1    4    4    0    0 -0.34589894499E+02  0.44977146184E+02  0.17751782037E+03  0.22445375722E+03  0.12509000000E+03 0.  0.
<mgrwt>
<rscale>  2 0.45676538E+03</rscale>
<asrwt>0</asrwt>
<pdfrwt beam="1">  1       21 0.10596206E+00 0.45676538E+03</pdfrwt>
<pdfrwt beam="2">  1       21 0.10645306E-01 0.45676538E+03</pdfrwt>
<totfact> 0.47447868E+04</totfact>
</mgrwt>
</event>
<event>
 7    0  0.4748297E-002  0.4549521E+03  0.7546771E-02  0.1026256E+00
         21   -1    0    0  502  501  0.00000000000E+00  0.00000000000E+00  0.24910200012E+03  0.24910200012E+03  0.00000000000E+00 0. -1.
         21   -1    0    0  501  502 -0.00000000000E+00 -0.00000000000E+00 -0.20772752738E+03  0.20772752738E+03  0.00000000000E+00 0. -1.
      99926    2    1    2    0    0  0.00000000000E+00  0.00000000000E+00  0.41374472743E+02  0.45682952750E+03  0.45495205264E+03 0.  0.
      99925    2    3    3    0    0  0.42132325462E+02  0.95622485937E+02 -0.17659217991E+02  0.28347648482E+03  0.26292256807E+03 0.  0.
         25    1    4    4    0    0  0.54664036172E+02  0.73518583655E+02 -0.15382198515E+02  0.15581161422E+03  0.12509000000E+03 0.  0.
         25    1    3    3    0    0 -0.42132325462E+02 -0.95622485937E+02  0.59033690734E+02  0.17335304268E+03  0.12509000000E+03 0.  0.
         25    1    4    4    0    0 -0.12531710710E+02  0.22103902282E+02 -0.22770194762E+01  0.12766487061E+03  0.12509000000E+03 0.  0.
<mgrwt>
<rscale>  2 0.45495205E+03</rscale>
<asrwt>0</asrwt>
<pdfrwt beam="1">  1       21 0.36632647E-01 0.45495205E+03</pdfrwt>
<pdfrwt beam="2">  1       21 0.30548166E-01 0.45495205E+03</pdfrwt>
<totfact> 0.68438164E+04</totfact>
</mgrwt>
</event>
<event>
 7    0  0.4748297E-002  0.4533497E+03  0.7546771E-02  0.1026728E+00
         21   -1    0    0  502  501  0.00000000000E+00  0.00000000000E+00  0.27645114662E+03  0.27645114662E+03  0.00000000000E+00 0.  1.
         21   -1    0    0  501  502 -0.00000000000E+00 -0.00000000000E+00 -0.18586101795E+03  0.18586101795E+03  0.00000000000E+00 0.  1.
      99926    2    1    2    0    0  0.00000000000E+00  0.00000000000E+00  0.90590128666E+02  0.46231216457E+03  0.45334971721E+03 0.  0.
      99925    2    3    3    0    0  0.40783756034E+02 -0.10121592776E+03  0.80767414082E+02  0.29602334170E+03  0.26305601089E+03 0.  0.
         25    1    4    4    0    0  0.43593969968E+02 -0.55424672807E+02  0.76534267806E+02  0.16271856324E+03  0.12509000000E+03 0.  0.
         25    1    4    4    0    0 -0.28102139334E+01 -0.45791254957E+02  0.42331462751E+01  0.13330477846E+03  0.12509000000E+03 0.  0.
         25    1    3    3    0    0 -0.40783756034E+02  0.10121592776E+03  0.98227145847E+01  0.16628882287E+03  0.12509000000E+03 0.  0.
<mgrwt>
<rscale>  2 0.45334972E+03</rscale>
<asrwt>0</asrwt>
<pdfrwt beam="1">  1       21 0.40654580E-01 0.45334972E+03</pdfrwt>
<pdfrwt beam="2">  1       21 0.27332503E-01 0.45334972E+03</pdfrwt>
<totfact> 0.68909786E+04</totfact>
</mgrwt>
</event>
<event>
 7    0  0.4748297E-002  0.4523737E+03  0.7546771E-02  0.1027017E+00
         21   -1    0    0  502  501  0.00000000000E+00  0.00000000000E+00  0.72896527311E+02  0.72896527311E+02  0.00000000000E+00 0.  1.
         21   -1    0    0  501  502 -0.00000000000E+00 -0.00000000000E+00 -0.70182345534E+03  0.70182345534E+03  0.00000000000E+00 0.  1.
      99926    2    1    2    0    0  0.00000000000E+00  0.00000000000E+00 -0.62892692803E+03  0.77471998265E+03  0.45237370692E+03 0.  0.
      99925    2    3    3    0    0  0.39500128313E+02  0.98042311811E+02 -0.34018851227E+03  0.44277128801E+03  0.26295557526E+03 0.  0.
         25    1    4    4    0    0  0.47065676885E+02  0.28044523291E+02 -0.13227676775E+03  0.19012186779E+03  0.12509000000E+03 0.  0.
         25    1    4    4    0    0 -0.75655485724E+01  0.69997788520E+02 -0.20791174453E+03  0.25264942022E+03  0.12509000000E+03 0.  0.
         25    1    3    3    0    0 -0.39500128313E+02 -0.98042311811E+02 -0.28873841575E+03  0.33194869464E+03  0.12509000000E+03 0.  0.
<mgrwt>
<rscale>  2 0.45237371E+03</rscale>
<asrwt>0</asrwt>
<pdfrwt beam="1">  1       21 0.10720078E-01 0.45237371E+03</pdfrwt>
<pdfrwt beam="2">  1       21 0.10320933E+00 0.45237371E+03</pdfrwt>
<totfact> 0.50035459E+04</totfact>
</mgrwt>
</event>
<event>
 7    0  0.4748297E-002  0.4569914E+03  0.7546771E-02  0.1025657E+00
         21   -1    0    0  502  501  0.00000000000E+00  0.00000000000E+00  0.52663593480E+02  0.52663593480E+02  0.00000000000E+00 0. -1.
         21   -1    0    0  501  502 -0.00000000000E+00 -0.00000000000E+00 -0.99139257102E+03  0.99139257102E+03  0.00000000000E+00 0. -1.
      99926    2    1    2    0    0  0.00000000000E+00  0.88817841970E-15 -0.93872897753E+03  0.10440561645E+04  0.45699144561E+03 0.  0.
      99925    2    3    3    0    0 -0.70911481360E+02 -0.18140807905E+01 -0.38296539663E+03  0.46998962215E+03  0.26305136540E+03 0.  0.
         25    1    3    3    0    0  0.70911481360E+02  0.18140807905E+01 -0.55576358091E+03  0.57406654234E+03  0.12509000000E+03 0.  0.
         25    1    4    4    0    0 -0.52063859640E+02 -0.19098069669E+02 -0.14144600075E+03  0.19679903702E+03  0.12509000000E+03 0.  0.
         25    1    4    4    0    0 -0.18847621720E+02  0.17283988878E+02 -0.24151939588E+03  0.27319058513E+03  0.12509000000E+03 0.  0.
<mgrwt>
<rscale>  2 0.45699145E+03</rscale>
<asrwt>0</asrwt>
<pdfrwt beam="1">  1       21 0.77446473E-02 0.45699145E+03</pdfrwt>
<pdfrwt beam="2">  1       21 0.14579300E+00 0.45699145E+03</pdfrwt>
<totfact> 0.36919006E+04</totfact>
</mgrwt>
</event>
<event>
 7    0  0.4748297E-002  0.4568846E+03  0.7546771E-02  0.1025689E+00
         21   -1    0    0  502  501  0.00000000000E+00  0.00000000000E+00  0.37218478019E+02  0.37218478019E+02  0.00000000000E+00 0. -1.
         21   -1    0    0  501  502 -0.00000000000E+00 -0.00000000000E+00 -0.14021499105E+04  0.14021499105E+04  0.00000000000E+00 0. -1.
      99926    2    1    2    0    0  0.00000000000E+00  0.14210854715E-13 -0.13649314325E+04  0.14393683885E+04  0.45688460523E+03 0.  0.
      99925    2    3    3    0    0  0.73755243613E+02  0.87197303693E+02 -0.90097943914E+03  0.94546337138E+03  0.26285705456E+03 0.  0.
         25    1    4    4    0    0  0.44604643325E+02  0.32043453047E+01 -0.43914134430E+03  0.45879458411E+03  0.12509000000E+03 0.  0.
         25    1    4    4    0    0  0.29150600288E+02  0.83992958388E+02 -0.46183809484E+03  0.48666878727E+03  0.12509000000E+03 0.  0.
         25    1    3    3    0    0 -0.73755243613E+02 -0.87197303693E+02 -0.46395199334E+03  0.49390501714E+03  0.12509000000E+03 0.  0.
<mgrwt>
<rscale>  2 0.45688461E+03</rscale>
<asrwt>0</asrwt>
<pdfrwt beam="1">  1       21 0.54733076E-02 0.45688461E+03</pdfrwt>
<pdfrwt beam="2">  1       21 0.20619844E+00 0.45688461E+03</pdfrwt>
<totfact> 0.24934437E+04</totfact>
</mgrwt>
</event>
<event>
 7    0  0.4748297E-002  0.4486868E+03  0.7546771E-02  0.1028114E+00
         21   -1    0    0  502  501  0.00000000000E+00  0.00000000000E+00  0.21426096768E+03  0.21426096768E+03  0.00000000000E+00 0.  1.
         21   -1    0    0  501  502 -0.00000000000E+00 -0.00000000000E+00 -0.23490030911E+03  0.23490030911E+03  0.00000000000E+00 0.  1.
      99926    2    1    2    0    0 -0.14210854715E-13  0.00000000000E+00 -0.20639341428E+02  0.44916127680E+03  0.44868682860E+03 0.  0.
      99925    2    3    3    0    0  0.10269291280E+03  0.15674086027E+02  0.13189507176E+02  0.28307873584E+03  0.26299828188E+03 0.  0.
         25    1    3    3    0    0 -0.10269291280E+03 -0.15674086027E+02 -0.33828848604E+02  0.16608254096E+03  0.12509000000E+03 0.  0.
         25    1    4    4    0    0  0.12826182925E+02  0.24501724412E+01  0.24273869570E+02  0.12809076141E+03  0.12509000000E+03 0.  0.
         25    1    4    4    0    0  0.89866729880E+02  0.13223913586E+02 -0.11084362394E+02  0.15498797444E+03  0.12509000000E+03 0.  0.
<mgrwt>
<rscale>  2 0.44868683E+03</rscale>
<asrwt>0</asrwt>
<pdfrwt beam="1">  1       21 0.31508966E-01 0.44868683E+03</pdfrwt>
<pdfrwt beam="2">  1       21 0.34544163E-01 0.44868683E+03</pdfrwt>
<totfact> 0.72562502E+04</totfact>
</mgrwt>
</event>
<event>
 7    0  0.4748297E-002  0.4562784E+03  0.7546771E-02  0.1025866E+00
         21   -1    0    0  502  501  0.00000000000E+00  0.00000000000E+00  0.78938290015E+03  0.78938290015E+03  0.00000000000E+00 0.  1.
         21   -1    0    0  501  502 -0.00000000000E+00 -0.00000000000E+00 -0.65934402925E+02  0.65934402925E+02  0.00000000000E+00 0.  1.
      99926    2    1    2    0    0  0.35527136788E-14  0.00000000000E+00  0.72344849723E+03  0.85531730308E+03  0.45627838082E+03 0.  0.
      99925    2    3    3    0    0 -0.20612869897E+02 -0.10545008106E+03  0.52954898705E+03  0.60078019744E+03  0.26262160221E+03 0.  0.
         25    1    4    4    0    0  0.11536267787E+02 -0.54279418314E+02  0.19214385445E+03  0.23589427638E+03  0.12509000000E+03 0.  0.
         25    1    3    3    0    0  0.20612869897E+02  0.10545008106E+03  0.19389951017E+03  0.25453710564E+03  0.12509000000E+03 0.  0.
         25    1    4    4    0    0 -0.32149137684E+02 -0.51170662744E+02  0.33740513260E+03  0.36488592106E+03  0.12509000000E+03 0.  0.
<mgrwt>
<rscale>  2 0.45627838E+03</rscale>
<asrwt>0</asrwt>
<pdfrwt beam="1">  1       21 0.11608572E+00 0.45627838E+03</pdfrwt>
<pdfrwt beam="2">  1       21 0.96962362E-02 0.45627838E+03</pdfrwt>
<totfact> 0.44751988E+04</totfact>
</mgrwt>
</event>
<event>
 7    0  0.4748297E-002  0.4511277E+03  0.7546771E-02  0.1027386E+00
         21   -1    0    0  502  501  0.00000000000E+00  0.00000000000E+00  0.25580798595E+03  0.25580798595E+03  0.00000000000E+00 0. -1.
         21   -1    0    0  501  502 -0.00000000000E+00 -0.00000000000E+00 -0.19889550623E+03  0.19889550623E+03  0.00000000000E+00 0. -1.
      99926    2    1    2    0    0  0.00000000000E+00  0.00000000000E+00  0.56912479718E+02  0.45470349217E+03  0.45112773739E+03 0.  0.
      99925    2    3    3    0    0 -0.56171731202E+02 -0.55614408479E+02  0.11250406471E+03  0.29663338672E+03  0.26284211178E+03 0.  0.
         25    1    4    4    0    0 -0.19701504124E+02 -0.66867963376E+02  0.67597470096E+02  0.15835529626E+03  0.12509000000E+03 0.  0.
         25    1    4    4    0    0 -0.36470227078E+02  0.11253554897E+02  0.44906594609E+02  0.13827809046E+03  0.12509000000E+03 0.  0.
         25    1    3    3    0    0  0.56171731202E+02  0.55614408479E+02 -0.55591584987E+02  0.15807010545E+03  0.12509000000E+03 0.  0.
<mgrwt>
<rscale>  2 0.45112774E+03</rscale>
<asrwt>0</asrwt>
<pdfrwt beam="1">  1       21 0.37618822E-01 0.45112774E+03</pdfrwt>
<pdfrwt beam="2">  1       21 0.29249339E-01 0.45112774E+03</pdfrwt>
<totfact> 0.70727282E+04</totfact>
</mgrwt>
</event>
<event>
 7    0  0.4748297E-002  0.4531306E+03  0.7546771E-02  0.1026793E+00
         21   -1    0    0  502  501  0.00000000000E+00  0.00000000000E+00  0.18606938609E+04  0.18606938609E+04  0.00000000000E+00 0. -1.
         21   -1    0    0  501  502 -0.00000000000E+00 -0.00000000000E+00 -0.27587469043E+02  0.27587469043E+02  0.00000000000E+00 0. -1.
      99926    2    1    2    0    0  0.00000000000E+00  0.00000000000E+00  0.18331063918E+04  0.18882813299E+04  0.45313059612E+03 0.  0.
      99925    2    3    3    0    0 -0.22693456622E+02  0.30922304295E+02  0.71995435879E+03  0.76746638594E+03  0.26305739475E+03 0.  0.
         25    1    4    4    0    0 -0.47710667868E+02 -0.26546456841E+01  0.36747859569E+03  0.39111556011E+03  0.12509000000E+03 0.  0.
         25    1    3    3    0    0  0.22693456622E+02 -0.30922304295E+02  0.11131520330E+04  0.11208149440E+04  0.12509000000E+03 0.  0.
         25    1    4    4    0    0  0.25017211246E+02  0.33576949979E+02  0.35247576310E+03  0.37635082583E+03  0.12509000000E+03 0.  0.
<mgrwt>
<rscale>  2 0.45313060E+03</rscale>
<asrwt>0</asrwt>
<pdfrwt beam="1">  1       21 0.27363137E+00 0.45313060E+03</pdfrwt>
<pdfrwt beam="2">  1       21 0.40569820E-02 0.45313060E+03</pdfrwt>
<totfact> 0.15849420E+04</totfact>
</mgrwt>
</event>
<event>
 7    0  0.4748297E-002  0.4540904E+03  0.7546771E-02  0.1026509E+00
         21   -1    0    0  502  501  0.00000000000E+00  0.00000000000E+00  0.17988416565E+03  0.17988416565E+03  0.00000000000E+00 0. -1.
         21   -1    0    0  501  502 -0.00000000000E+00 -0.00000000000E+00 -0.28657067807E+03  0.28657067807E+03  0.00000000000E+00 0. -1.
      99926    2    1    2    0    0  0.00000000000E+00  0.00000000000E+00 -0.10668651242E+03  0.46645484372E+03  0.45409041973E+03 0.  0.
      99925    2    3    3    0    0  0.37316185559E+02 -0.16380621777E+02  0.40447257960E+02  0.26908038498E+03  0.26288295957E+03 0.  0.
         25    1    4    4    0    0  0.58773447018E+02 -0.28448427213E+01  0.16550219061E+02  0.13922582036E+03  0.12509000000E+03 0.  0.
         25    1    3    3    0    0 -0.37316185559E+02  0.16380621777E+02 -0.14713377038E+03  0.19737445874E+03  0.12509000000E+03 0.  0.
         25    1    4    4    0    0 -0.21457261459E+02 -0.13535779056E+02  0.23897038899E+02  0.12985456462E+03  0.12509000000E+03 0.  0.
<mgrwt>
<rscale>  2 0.45409042E+03</rscale>
<asrwt>0</asrwt>
<pdfrwt beam="1">  1       21 0.26453554E-01 0.45409042E+03</pdfrwt>
<pdfrwt beam="2">  1       21 0.42142747E-01 0.45409042E+03</pdfrwt>
<totfact> 0.68191182E+04</totfact>
</mgrwt>
</event>
<event>
 7    0  0.4748297E-002  0.4659517E+03  0.7546771E-02  0.1023069E+00
         21   -1    0    0  502  501  0.00000000000E+00  0.00000000000E+00  0.12688143083E+04  0.12688143083E+04  0.00000000000E+00 0. -1.
         21   -1    0    0  501  502 -0.00000000000E+00 -0.00000000000E+00 -0.42778327302E+02  0.42778327302E+02  0.00000000000E+00 0. -1.
      99926    2    1    2    0    0  0.14210854715E-13  0.00000000000E+00  0.12260359810E+04  0.13115926356E+04  0.46595173040E+03 0.  0.
      99925    2    3    3    0    0  0.91791963061E+02 -0.74165341023E+02  0.86392413544E+03  0.91072013831E+03  0.26290682044E+03 0.  0.
         25    1    4    4    0    0  0.81770726505E+02 -0.56530592050E+02  0.43254251054E+03  0.46111028081E+03  0.12509000000E+03 0.  0.
         25    1    4    4    0    0  0.10021236556E+02 -0.17634748972E+02  0.43138162490E+03  0.44960985749E+03  0.12509000000E+03 0.  0.
         25    1    3    3    0    0 -0.91791963061E+02  0.74165341023E+02  0.36211184557E+03  0.40087249730E+03  0.12509000000E+03 0.  0.
<mgrwt>
<rscale>  2 0.46595173E+03</rscale>
<asrwt>0</asrwt>
<pdfrwt beam="1">  1       21 0.18659032E+00 0.46595173E+03</pdfrwt>
<pdfrwt beam="2">  1       21 0.62909313E-02 0.46595173E+03</pdfrwt>
<totfact> 0.26453478E+04</totfact>
</mgrwt>
</event>
<event>
 7    0  0.4748297E-002  0.4619616E+03  0.7546771E-02  0.1024214E+00
         21   -1    0    0  502  501  0.00000000000E+00  0.00000000000E+00  0.11427775647E+03  0.11427775647E+03  0.00000000000E+00 0. -1.
         21   -1    0    0  501  502 -0.00000000000E+00 -0.00000000000E+00 -0.46686368545E+03  0.46686368545E+03  0.00000000000E+00 0. -1.
      99926    2    1    2    0    0  0.00000000000E+00  0.00000000000E+00 -0.35258592898E+03  0.58114144193E+03  0.46196161984E+03 0.  0.
      99925    2    3    3    0    0  0.34163187729E+02  0.11276650295E+03 -0.24598478263E+03  0.37891701193E+03  0.26303266159E+03 0.  0.
         25    1    4    4    0    0  0.44039821847E+02  0.83680123140E+02 -0.16011292720E+03  0.22411052290E+03  0.12509000000E+03 0.  0.
         25    1    4    4    0    0 -0.98766341183E+01  0.29086379809E+02 -0.85871855434E+02  0.15480648904E+03  0.12509000000E+03 0.  0.
         25    1    3    3    0    0 -0.34163187729E+02 -0.11276650295E+03 -0.10660114635E+03  0.20222442999E+03  0.12509000000E+03 0.  0.
<mgrwt>
<rscale>  2 0.46196162E+03</rscale>
<asrwt>0</asrwt>
<pdfrwt beam="1">  1       21 0.16805553E-01 0.46196162E+03</pdfrwt>
<pdfrwt beam="2">  1       21 0.68656424E-01 0.46196162E+03</pdfrwt>
<totfact> 0.56670419E+04</totfact>
</mgrwt>
</event>
<event>
 7    0  0.4748297E-002  0.4571777E+03  0.7546771E-02  0.1025603E+00
         21   -1    0    0  502  501  0.00000000000E+00  0.00000000000E+00  0.22556840149E+04  0.22556840149E+04  0.00000000000E+00 0. -1.
         21   -1    0    0  501  502 -0.00000000000E+00 -0.00000000000E+00 -0.23164975995E+02  0.23164975995E+02  0.00000000000E+00 0. -1.
      99926    2    1    2    0    0  0.71054273576E-14  0.00000000000E+00  0.22325190389E+04  0.22788489909E+04  0.45717771625E+03 0.  0.
      99925    2    3    3    0    0 -0.32921725326E+02  0.97322191358E+02  0.11422981522E+04  0.11766763462E+04  0.26299563899E+03 0.  0.
         25    1    4    4    0    0  0.43502719926E+01  0.50756760522E+02  0.70919314415E+03  0.72194016194E+03  0.12509000000E+03 0.  0.
         25    1    3    3    0    0  0.32921725326E+02 -0.97322191358E+02  0.10902208867E+04  0.11021726447E+04  0.12509000000E+03 0.  0.
         25    1    4    4    0    0 -0.37271997319E+02  0.46565430836E+02  0.43310500808E+03  0.45473618424E+03  0.12509000000E+03 0.  0.
<mgrwt>
<rscale>  2 0.45717772E+03</rscale>
<asrwt>0</asrwt>
<pdfrwt beam="1">  1       21 0.33171809E+00 0.45717772E+03</pdfrwt>
<pdfrwt beam="2">  1       21 0.34066157E-02 0.45717772E+03</pdfrwt>
<totfact> 0.95060197E+03</totfact>
</mgrwt>
</event>
<event>
 7    0  0.4748297E-002  0.4709525E+03  0.7546771E-02  0.1021652E+00
         21   -1    0    0  502  501  0.00000000000E+00  0.00000000000E+00  0.28204156512E+02  0.28204156512E+02  0.00000000000E+00 0.  1.
         21   -1    0    0  501  502 -0.00000000000E+00 -0.00000000000E+00 -0.19659892855E+04  0.19659892855E+04  0.00000000000E+00 0.  1.
      99926    2    1    2    0    0  0.14210854715E-13  0.00000000000E+00 -0.19377851290E+04  0.19941934420E+04  0.47095252206E+03 0.  0.
      99925    2    3    3    0    0 -0.75676686630E+02  0.64375694575E+02 -0.86475623450E+03  0.90933874784E+03  0.26310154366E+03 0.  0.
         25    1    3    3    0    0  0.75676686630E+02 -0.64375694575E+02 -0.10730288945E+04  0.10848546942E+04  0.12509000000E+03 0.  0.
         25    1    4    4    0    0 -0.45065249957E+02  0.65062827899E+02 -0.54166711393E+03  0.56152900080E+03  0.12509000000E+03 0.  0.
         25    1    4    4    0    0 -0.30611436673E+02 -0.68713332426E+00 -0.32308912057E+03  0.34780974704E+03  0.12509000000E+03 0.  0.
<mgrwt>
<rscale>  2 0.47095252E+03</rscale>
<asrwt>0</asrwt>
<pdfrwt beam="1">  1       21 0.41476698E-02 0.47095252E+03</pdfrwt>
<pdfrwt beam="2">  1       21 0.28911609E+00 0.47095252E+03</pdfrwt>
<totfact> 0.12220204E+04</totfact>
</mgrwt>
</event>
<event>
 7    0  0.4748297E-002  0.4224589E+03  0.7546771E-02  0.1036269E+00
         21   -1    0    0  502  501  0.00000000000E+00  0.00000000000E+00  0.43053165238E+02  0.43053165238E+02  0.00000000000E+00 0.  1.
         21   -1    0    0  501  502 -0.00000000000E+00 -0.00000000000E+00 -0.10363436031E+04  0.10363436031E+04  0.00000000000E+00 0.  1.
      99926    2    1    2    0    0  0.00000000000E+00  0.35527136788E-14 -0.99329043785E+03  0.10793967683E+04  0.42245886137E+03 0.  0.
      99925    2    3    3    0    0  0.10612597387E+02  0.28406270553E+02 -0.45944455589E+03  0.53025336519E+03  0.26298248596E+03 0.  0.
         25    1    4    4    0    0  0.24862972601E+02 -0.88957860706E+01 -0.17268860362E+03  0.21486312931E+03  0.12509000000E+03 0.  0.
         25    1    3    3    0    0 -0.10612597387E+02 -0.28406270553E+02 -0.53384588196E+03  0.54914340314E+03  0.12509000000E+03 0.  0.
         25    1    4    4    0    0 -0.14250375213E+02  0.37302056624E+02 -0.28675595227E+03  0.31539023588E+03  0.12509000000E+03 0.  0.
<mgrwt>
<rscale>  2 0.42245886E+03</rscale>
<asrwt>0</asrwt>
<pdfrwt beam="1">  1       21 0.63313482E-02 0.42245886E+03</pdfrwt>
<pdfrwt beam="2">  1       21 0.15240346E+00 0.42245886E+03</pdfrwt>
<totfact> 0.47083054E+04</totfact>
</mgrwt>
</event>
<event>
 7    0  0.4748297E-002  0.4502299E+03  0.7546771E-02  0.1027653E+00
         21   -1    0    0  502  501  0.00000000000E+00  0.00000000000E+00  0.15845271728E+03  0.15845271728E+03  0.00000000000E+00 0.  1.
         21   -1    0    0  501  502 -0.00000000000E+00 -0.00000000000E+00 -0.31982253957E+03  0.31982253957E+03  0.00000000000E+00 0.  1.
      99926    2    1    2    0    0 -0.35527136788E-14  0.14210854715E-13 -0.16136982228E+03  0.47827525685E+03  0.45022994322E+03 0.  0.
      99925    2    3    3    0    0 -0.20275060241E+02  0.94306726418E+02 -0.15521816903E+03  0.32019240625E+03  0.26291759224E+03 0.  0.
         25    1    4    4    0    0  0.20723583450E+02  0.69454200767E+02 -0.63885877901E+02  0.15805779453E+03  0.12509000000E+03 0.  0.
         25    1    4    4    0    0 -0.40998643691E+02  0.24852525651E+02 -0.91332291134E+02  0.16213461173E+03  0.12509000000E+03 0.  0.
         25    1    3    3    0    0  0.20275060241E+02 -0.94306726418E+02 -0.61516532485E+01  0.15808285060E+03  0.12509000000E+03 0.  0.
<mgrwt>
<rscale>  2 0.45022994E+03</rscale>
<asrwt>0</asrwt>
<pdfrwt beam="1">  1       21 0.23301871E-01 0.45022994E+03</pdfrwt>
<pdfrwt beam="2">  1       21 0.47032725E-01 0.45022994E+03</pdfrwt>
<totfact> 0.69417217E+04</totfact>
</mgrwt>
</event>
<event>
 6    0  0.4748297E-002  0.4496734E+03  0.7546771E-02  0.1027819E+00
         21   -1    0    0  502  501  0.00000000000E+00  0.00000000000E+00  0.11650237628E+03  0.11650237628E+03  0.00000000000E+00 0. -1.
         21   -1    0    0  501  502 -0.00000000000E+00 -0.00000000000E+00 -0.43390992514E+03  0.43390992514E+03  0.00000000000E+00 0. -1.
      99926    2    1    2    0    0  0.71054273576E-14 -0.71054273576E-14 -0.31740754887E+03  0.55041230142E+03  0.44967338089E+03 0.  0.
         25    1    3    3    0    0 -0.46073899309E+02 -0.50848782378E+02 -0.59435373657E+02  0.15455896806E+03  0.12509000000E+03 0.  0.
         25    1    3    3    0    0 -0.11938954860E+02  0.82135263338E+01 -0.35799172453E+02  0.13091634545E+03  0.12509000000E+03 0.  0.
         25    1    3    3    0    0  0.58012854169E+02  0.42635256045E+02 -0.22217300275E+03  0.26493698790E+03  0.12509000000E+03 0.  0.
<mgrwt>
<rscale>  2 0.44967338E+03</rscale>
<asrwt>0</asrwt>
<pdfrwt beam="1">  1       21 0.17132703E-01 0.44967338E+03</pdfrwt>
<pdfrwt beam="2">  1       21 0.63810283E-01 0.44967338E+03</pdfrwt>
<totfact> 0.64515455E+04</totfact>
</mgrwt>
</event>
<event>
 7    0  0.4748297E-002  0.4544541E+03  0.7546771E-02  0.1026402E+00
         21   -1    0    0  502  501  0.00000000000E+00  0.00000000000E+00  0.47530406933E+03  0.47530406933E+03  0.00000000000E+00 0.  1.
         21   -1    0    0  501  502 -0.00000000000E+00 -0.00000000000E+00 -0.10862968146E+03  0.10862968146E+03  0.00000000000E+00 0.  1.
      99926    2    1    2    0    0  0.00000000000E+00  0.00000000000E+00  0.36667438787E+03  0.58393375079E+03  0.45445408855E+03 0.  0.
      99925    2    3    3    0    0 -0.10050008701E+03  0.50342176353E+02  0.23992095034E+03  0.37334281027E+03  0.26303647913E+03 0.  0.
         25    1    3    3    0    0  0.10050008701E+03 -0.50342176353E+02  0.12675343752E+03  0.21059094053E+03  0.12509000000E+03 0.  0.
         25    1    4    4    0    0 -0.33292112565E+02  0.62079773939E+02  0.12051071699E+03  0.18743693366E+03  0.12509000000E+03 0.  0.
         25    1    4    4    0    0 -0.67207974443E+02 -0.11737597585E+02  0.11941023335E+03  0.18590587660E+03  0.12509000000E+03 0.  0.
<mgrwt>
<rscale>  2 0.45445409E+03</rscale>
<asrwt>0</asrwt>
<pdfrwt beam="1">  1       21 0.69897657E-01 0.45445409E+03</pdfrwt>
<pdfrwt beam="2">  1       21 0.15974953E-01 0.45445409E+03</pdfrwt>
<totfact> 0.59936474E+04</totfact>
</mgrwt>
</event>
<event>
 7    0  0.4748297E-002  0.4549739E+03  0.7546771E-02  0.1026249E+00
         21   -1    0    0  502  501  0.00000000000E+00  0.00000000000E+00  0.11247256153E+03  0.11247256153E+03  0.00000000000E+00 0. -1.
         21   -1    0    0  501  502 -0.00000000000E+00 -0.00000000000E+00 -0.46011492986E+03  0.46011492986E+03  0.00000000000E+00 0. -1.
      99926    2    1    2    0    0  0.35527136788E-14 -0.71054273576E-14 -0.34764236833E+03  0.57258749139E+03  0.45497386632E+03 0.  0.
      99925    2    3    3    0    0  0.25859989319E+02 -0.51298660015E+02 -0.95879125584E+02  0.28565103489E+03  0.26287528496E+03 0.  0.
         25    1    4    4    0    0  0.43417529955E+02 -0.50644782156E+02 -0.38424924212E+02  0.14688076378E+03  0.12509000000E+03 0.  0.
         25    1    3    3    0    0 -0.25859989319E+02  0.51298660015E+02 -0.25176324275E+03  0.28693645650E+03  0.12509000000E+03 0.  0.
         25    1    4    4    0    0 -0.17557540636E+02 -0.65387785869E+00 -0.57454201371E+02  0.13877027111E+03  0.12509000000E+03 0.  0.
<mgrwt>
<rscale>  2 0.45497387E+03</rscale>
<asrwt>0</asrwt>
<pdfrwt beam="1">  1       21 0.16540083E-01 0.45497387E+03</pdfrwt>
<pdfrwt beam="2">  1       21 0.67663960E-01 0.45497387E+03</pdfrwt>
<totfact> 0.60410607E+04</totfact>
</mgrwt>
</event>
<event>
 7    0  0.4748297E-002  0.4594435E+03  0.7546771E-02  0.1024943E+00
         21   -1    0    0  502  501  0.00000000000E+00  0.00000000000E+00  0.18251804090E+03  0.18251804090E+03  0.00000000000E+00 0.  1.
         21   -1    0    0  501  502 -0.00000000000E+00 -0.00000000000E+00 -0.28913347627E+03  0.28913347627E+03  0.00000000000E+00 0.  1.
      99926    2    1    2    0    0 -0.14210854715E-13  0.00000000000E+00 -0.10661543537E+03  0.47165151717E+03  0.45944347051E+03 0.  0.
      99925    2    3    3    0    0 -0.74966917168E+02  0.74928650725E+02 -0.11837830165E+03  0.30727325069E+03  0.26300016525E+03 0.  0.
         25    1    4    4    0    0 -0.36616040316E+02 -0.46279419057E+01 -0.53301823087E+02  0.14089267085E+03  0.12509000000E+03 0.  0.
         25    1    3    3    0    0  0.74966917168E+02 -0.74928650725E+02  0.11762866282E+02  0.16437826648E+03  0.12509000000E+03 0.  0.
         25    1    4    4    0    0 -0.38350876851E+02  0.79556592631E+02 -0.65076478561E+02  0.16638057984E+03  0.12509000000E+03 0.  0.
<mgrwt>
<rscale>  2 0.45944347E+03</rscale>
<asrwt>0</asrwt>
<pdfrwt beam="1">  1       21 0.26840889E-01 0.45944347E+03</pdfrwt>
<pdfrwt beam="2">  1       21 0.42519629E-01 0.45944347E+03</pdfrwt>
<totfact> 0.64991999E+04</totfact>
</mgrwt>
</event>
<event>
 7    0  0.4748297E-002  0.4513806E+03  0.7546771E-02  0.1027311E+00
         21   -1    0    0  502  501  0.00000000000E+00  0.00000000000E+00  0.56510628201E+02  0.56510628201E+02  0.00000000000E+00 0. -1.
         21   -1    0    0  501  502 -0.00000000000E+00 -0.00000000000E+00 -0.90135471164E+03  0.90135471164E+03  0.00000000000E+00 0. -1.
      99926    2    1    2    0    0  0.00000000000E+00  0.00000000000E+00 -0.84484408344E+03  0.95786533984E+03  0.45138064197E+03 0.  0.
      99925    2    3    3    0    0 -0.62383762362E+02 -0.38959532337E+02 -0.70634692232E+03  0.75726984960E+03  0.26291076714E+03 0.  0.
         25    1    4    4    0    0 -0.16544428145E+02 -0.33563344970E+02 -0.44667495601E+03  0.46536678078E+03  0.12509000000E+03 0.  0.
         25    1    3    3    0    0  0.62383762362E+02  0.38959532337E+02 -0.13849716112E+03  0.20059549024E+03  0.12509000000E+03 0.  0.
         25    1    4    4    0    0 -0.45839334216E+02 -0.53961873672E+01 -0.25967196630E+03  0.29190306881E+03  0.12509000000E+03 0.  0.
<mgrwt>
<rscale>  2 0.45138064E+03</rscale>
<asrwt>0</asrwt>
<pdfrwt beam="1">  1       21 0.83103866E-02 0.45138064E+03</pdfrwt>
<pdfrwt beam="2">  1       21 0.13255216E+00 0.45138064E+03</pdfrwt>
<totfact> 0.42000026E+04</totfact>
</mgrwt>
</event>
<event>
 7    0  0.4748297E-002  0.4466242E+03  0.7546771E-02  0.1028734E+00
         21   -1    0    0  502  501  0.00000000000E+00  0.00000000000E+00  0.42647003693E+03  0.42647003693E+03  0.00000000000E+00 0. -1.
         21   -1    0    0  501  502 -0.00000000000E+00 -0.00000000000E+00 -0.11693272297E+03  0.11693272297E+03  0.00000000000E+00 0. -1.
      99926    2    1    2    0    0  0.00000000000E+00 -0.35527136788E-14  0.30953731396E+03  0.54340275990E+03  0.44662423886E+03 0.  0.
      99925    2    3    3    0    0 -0.10205106363E+03 -0.13861119879E+02  0.17094711026E+03  0.33018619654E+03  0.26304649712E+03 0.  0.
         25    1    4    4    0    0 -0.58327664094E+02  0.21144350609E+02  0.52951351383E+02  0.14933369906E+03  0.12509000000E+03 0.  0.
         25    1    3    3    0    0  0.10205106363E+03  0.13861119879E+02  0.13859020369E+03  0.21321656336E+03  0.12509000000E+03 0.  0.
         25    1    4    4    0    0 -0.43723399536E+02 -0.35005470488E+02  0.11799575888E+03  0.18085249748E+03  0.12509000000E+03 0.  0.
<mgrwt>
<rscale>  2 0.44662424E+03</rscale>
<asrwt>0</asrwt>
<pdfrwt beam="1">  1       21 0.62716181E-01 0.44662424E+03</pdfrwt>
<pdfrwt beam="2">  1       21 0.17195989E-01 0.44662424E+03</pdfrwt>
<totfact> 0.66610881E+04</totfact>
</mgrwt>
</event>
<event>
 7    0  0.4748297E-002  0.4621820E+03  0.7546771E-02  0.1024150E+00
         21   -1    0    0  502  501  0.00000000000E+00  0.00000000000E+00  0.16185754562E+03  0.16185754562E+03  0.00000000000E+00 0. -1.
         21   -1    0    0  501  502 -0.00000000000E+00 -0.00000000000E+00 -0.32993855643E+03  0.32993855643E+03  0.00000000000E+00 0. -1.
      99926    2    1    2    0    0  0.00000000000E+00  0.35527136788E-14 -0.16808101081E+03  0.49179610206E+03  0.46218197694E+03 0.  0.
      99925    2    3    3    0    0 -0.40470004871E+02 -0.15821038417E+02  0.13548952914E+02  0.26701825979E+03  0.26311033881E+03 0.  0.
         25    1    4    4    0    0 -0.22285518530E+02  0.20005539213E+02  0.36367864874E+02  0.13366748158E+03  0.12509000000E+03 0.  0.
         25    1    4    4    0    0 -0.18184486341E+02 -0.35826577630E+02 -0.22818911960E+02  0.13335077822E+03  0.12509000000E+03 0.  0.
         25    1    3    3    0    0  0.40470004871E+02  0.15821038417E+02 -0.18162996372E+03  0.22477784226E+03  0.12509000000E+03 0.  0.
<mgrwt>
<rscale>  2 0.46218198E+03</rscale>
<asrwt>0</asrwt>
<pdfrwt beam="1">  1       21 0.23802580E-01 0.46218198E+03</pdfrwt>
<pdfrwt beam="2">  1       21 0.48520375E-01 0.46218198E+03</pdfrwt>
<totfact> 0.62226717E+04</totfact>
</mgrwt>
</event>
<event>
 7    0  0.4748297E-002  0.4500326E+03  0.7546771E-02  0.1027712E+00
         21   -1    0    0  502  501  0.00000000000E+00  0.00000000000E+00  0.54747010507E+03  0.54747010507E+03  0.00000000000E+00 0.  1.
         21   -1    0    0  501  502 -0.00000000000E+00 -0.00000000000E+00 -0.92484193277E+02  0.92484193277E+02  0.00000000000E+00 0.  1.
      99926    2    1    2    0    0 -0.35527136788E-14  0.17763568394E-14  0.45498591179E+03  0.63995429834E+03  0.45003258109E+03 0.  0.
      99925    2    3    3    0    0 -0.30440514343E+02  0.12338337570E+02  0.43481350603E+03  0.50906009090E+03  0.26267952269E+03 0.  0.
         25    1    4    4    0    0  0.10012082505E+02  0.31593764177E+02  0.18005464532E+03  0.22173315298E+03  0.12509000000E+03 0.  0.
         25    1    3    3    0    0  0.30440514343E+02 -0.12338337570E+02  0.20172405766E+02  0.13089420744E+03  0.12509000000E+03 0.  0.
         25    1    4    4    0    0 -0.40452596848E+02 -0.19255426606E+02  0.25475886071E+03  0.28732693792E+03  0.12509000000E+03 0.  0.
<mgrwt>
<rscale>  2 0.45003258E+03</rscale>
<asrwt>0</asrwt>
<pdfrwt beam="1">  1       21 0.80510308E-01 0.45003258E+03</pdfrwt>
<pdfrwt beam="2">  1       21 0.13600617E-01 0.45003258E+03</pdfrwt>
<totfact> 0.58545356E+04</totfact>
</mgrwt>
</event>
<event>
 7    0  0.4748297E-002  0.4608993E+03  0.7546771E-02  0.1024521E+00
         21   -1    0    0  502  501  0.00000000000E+00  0.00000000000E+00  0.63767517164E+03  0.63767517164E+03  0.00000000000E+00 0. -1.
         21   -1    0    0  501  502 -0.00000000000E+00 -0.00000000000E+00 -0.83282288376E+02  0.83282288376E+02  0.00000000000E+00 0. -1.
      99926    2    1    2    0    0  0.00000000000E+00  0.00000000000E+00  0.55439288326E+03  0.72095746001E+03  0.46089932755E+03 0.  0.
      99925    2    3    3    0    0 -0.86813153853E+02  0.72493818241E+02  0.40259326088E+03  0.49405988219E+03  0.26310065778E+03 0.  0.
         25    1    3    3    0    0  0.86813153853E+02 -0.72493818241E+02  0.15179962238E+03  0.22689757782E+03  0.12509000000E+03 0.  0.
         25    1    4    4    0    0 -0.79318346229E+02  0.28220723803E+02  0.24747639471E+03  0.28979282831E+03  0.12509000000E+03 0.  0.
         25    1    4    4    0    0 -0.74948076245E+01  0.44273094438E+02  0.15511686617E+03  0.20426705389E+03  0.12509000000E+03 0.  0.
<mgrwt>
<rscale>  2 0.46089933E+03</rscale>
<asrwt>0</asrwt>
<pdfrwt beam="1">  1       21 0.93775758E-01 0.46089933E+03</pdfrwt>
<pdfrwt beam="2">  1       21 0.12247396E-01 0.46089933E+03</pdfrwt>
<totfact> 0.49445300E+04</totfact>
</mgrwt>
</event>
<event>
 7    0  0.4748297E-002  0.4543999E+03  0.7546771E-02  0.1026418E+00
         21   -1    0    0  502  501  0.00000000000E+00  0.00000000000E+00  0.11495996930E+03  0.11495996930E+03  0.00000000000E+00 0. -1.
         21   -1    0    0  501  502 -0.00000000000E+00 -0.00000000000E+00 -0.44902418254E+03  0.44902418254E+03  0.00000000000E+00 0. -1.
      99926    2    1    2    0    0  0.00000000000E+00  0.00000000000E+00 -0.33406421324E+03  0.56398415184E+03  0.45439985140E+03 0.  0.
      99925    2    3    3    0    0  0.33136549545E+02  0.96186536975E+02 -0.15045558481E+03  0.31962884220E+03  0.26301299009E+03 0.  0.
         25    1    3    3    0    0 -0.33136549545E+02 -0.96186536975E+02 -0.18360862844E+03  0.24435530964E+03  0.12509000000E+03 0.  0.
         25    1    4    4    0    0 -0.14162548928E+00  0.19072163017E+02 -0.98143023169E+02  0.16013534450E+03  0.12509000000E+03 0.  0.
         25    1    4    4    0    0  0.33278175035E+02  0.77114373958E+02 -0.52312561638E+02  0.15949349770E+03  0.12509000000E+03 0.  0.
<mgrwt>
<rscale>  2 0.45439985E+03</rscale>
<asrwt>0</asrwt>
<pdfrwt beam="1">  1       21 0.16905878E-01 0.45439985E+03</pdfrwt>
<pdfrwt beam="2">  1       21 0.66032968E-01 0.45439985E+03</pdfrwt>
<totfact> 0.61241952E+04</totfact>
</mgrwt>
</event>
<event>
 7    0  0.4748297E-002  0.4506005E+03  0.7546771E-02  0.1027543E+00
         21   -1    0    0  502  501  0.00000000000E+00  0.00000000000E+00  0.26851598323E+04  0.26851598323E+04  0.00000000000E+00 0.  1.
         21   -1    0    0  501  502 -0.00000000000E+00 -0.00000000000E+00 -0.18903974860E+02  0.18903974860E+02  0.00000000000E+00 0.  1.
      99926    2    1    2    0    0  0.00000000000E+00  0.00000000000E+00  0.26662558574E+04  0.27040638071E+04  0.45060046145E+03 0.  0.
      99925    2    3    3    0    0 -0.45862792570E+02  0.94225370486E+02  0.18656708170E+04  0.18870168494E+04  0.26291286797E+03 0.  0.
         25    1    3    3    0    0  0.45862792570E+02 -0.94225370486E+02  0.80058504036E+03  0.81704695773E+03  0.12509000000E+03 0.  0.
         25    1    4    4    0    0 -0.34821420506E+01  0.35828297336E+02  0.65871606482E+03  0.67145376189E+03  0.12509000000E+03 0.  0.
         25    1    4    4    0    0 -0.42380650519E+02  0.58397073151E+02  0.12069547522E+04  0.12155630875E+04  0.12509000000E+03 0.  0.
<mgrwt>
<rscale>  2 0.45060046E+03</rscale>
<asrwt>0</asrwt>
<pdfrwt beam="1">  1       21 0.39487618E+00 0.45060046E+03</pdfrwt>
<pdfrwt beam="2">  1       21 0.27799982E-02 0.45060046E+03</pdfrwt>
<totfact> 0.54452234E+03</totfact>
</mgrwt>
</event>
<event>
 6    0  0.4748297E-002  0.4631552E+03  0.7546771E-02  0.1023870E+00
         21   -1    0    0  502  501  0.00000000000E+00  0.00000000000E+00  0.58518771595E+03  0.58518771595E+03  0.00000000000E+00 0. -1.
         21   -1    0    0  501  502 -0.00000000000E+00 -0.00000000000E+00 -0.91642704558E+02  0.91642704558E+02  0.00000000000E+00 0. -1.
      99926    2    1    2    0    0  0.00000000000E+00  0.00000000000E+00  0.49354501140E+03  0.67683042051E+03  0.46315520061E+03 0.  0.
         25    1    3    3    0    0 -0.54058097606E+02  0.15169823114E+02  0.46166580898E+02  0.14467640700E+03  0.12509000000E+03 0.  0.
         25    1    3    3    0    0  0.53523233764E+02 -0.43570498322E+02  0.32433716389E+03  0.35440827989E+03  0.12509000000E+03 0.  0.
         25    1    3    3    0    0  0.53486384235E+00  0.28400675208E+02  0.12304126661E+03  0.17774573362E+03  0.12509000000E+03 0.  0.
<mgrwt>
<rscale>  2 0.46315520E+03</rscale>
<asrwt>0</asrwt>
<pdfrwt beam="1">  1       21 0.86057015E-01 0.46315520E+03</pdfrwt>
<pdfrwt beam="2">  1       21 0.13476869E-01 0.46315520E+03</pdfrwt>
<totfact> 0.50832520E+04</totfact>
</mgrwt>
</event>
<event>
 7    0  0.4748297E-002  0.4635237E+03  0.7546771E-02  0.1023764E+00
         21   -1    0    0  502  501  0.00000000000E+00  0.00000000000E+00  0.11892031573E+03  0.11892031573E+03  0.00000000000E+00 0.  1.
         21   -1    0    0  501  502 -0.00000000000E+00 -0.00000000000E+00 -0.45167690929E+03  0.45167690929E+03  0.00000000000E+00 0.  1.
      99926    2    1    2    0    0 -0.14210854715E-13  0.00000000000E+00 -0.33275659356E+03  0.57059722502E+03  0.46352372393E+03 0.  0.
      99925    2    3    3    0    0  0.10900521168E+03 -0.35844835395E+02 -0.16179926243E+03  0.32968042286E+03  0.26333095431E+03 0.  0.
         25    1    4    4    0    0  0.88144394939E+02 -0.46506208931E+02 -0.92973300863E+02  0.18499676917E+03  0.12509000000E+03 0.  0.
         25    1    4    4    0    0  0.20860816740E+02  0.10661373536E+02 -0.68825961571E+02  0.14468365370E+03  0.12509000000E+03 0.  0.
         25    1    3    3    0    0 -0.10900521168E+03  0.35844835395E+02 -0.17095733113E+03  0.24091680216E+03  0.12509000000E+03 0.  0.
<mgrwt>
<rscale>  2 0.46352372E+03</rscale>
<asrwt>0</asrwt>
<pdfrwt beam="1">  1       21 0.17488282E-01 0.46352372E+03</pdfrwt>
<pdfrwt beam="2">  1       21 0.66423073E-01 0.46352372E+03</pdfrwt>
<totfact> 0.56612079E+04</totfact>
</mgrwt>
</event>
<event>
 7    0  0.4748297E-002  0.4588199E+03  0.7546771E-02  0.1025124E+00
         21   -1    0    0  502  501  0.00000000000E+00  0.00000000000E+00  0.41981222583E+03  0.41981222583E+03  0.00000000000E+00 0.  1.
         21   -1    0    0  501  502 -0.00000000000E+00 -0.00000000000E+00 -0.12536303736E+03  0.12536303736E+03  0.00000000000E+00 0.  1.
      99926    2    1    2    0    0  0.00000000000E+00  0.00000000000E+00  0.29444918847E+03  0.54517526318E+03  0.45881994616E+03 0.  0.
      99925    2    3    3    0    0 -0.28112292645E+02  0.95882727179E+02  0.25632066306E+03  0.38059977619E+03  0.26300591050E+03 0.  0.
         25    1    4    4    0    0 -0.10134606476E+02  0.80798572684E+01  0.94621096747E+02  0.15738060361E+03  0.12509000000E+03 0.  0.
         25    1    4    4    0    0 -0.17977686169E+02  0.87802869911E+02  0.16169956631E+03  0.22321917258E+03  0.12509000000E+03 0.  0.
         25    1    3    3    0    0  0.28112292645E+02 -0.95882727179E+02  0.38128525412E+02  0.16457548699E+03  0.12509000000E+03 0.  0.
<mgrwt>
<rscale>  2 0.45881995E+03</rscale>
<asrwt>0</asrwt>
<pdfrwt beam="1">  1       21 0.61737092E-01 0.45881995E+03</pdfrwt>
<pdfrwt beam="2">  1       21 0.18435741E-01 0.45881995E+03</pdfrwt>
<totfact> 0.60341723E+04</totfact>
</mgrwt>
</event>
<event>
 7    0  0.4748297E-002  0.4544023E+03  0.7546771E-02  0.1026417E+00
         21   -1    0    0  502  501  0.00000000000E+00  0.00000000000E+00  0.25628678391E+03  0.25628678391E+03  0.00000000000E+00 0. -1.
         21   -1    0    0  501  502 -0.00000000000E+00 -0.00000000000E+00 -0.20141643782E+03  0.20141643782E+03  0.00000000000E+00 0. -1.
      99926    2    1    2    0    0  0.00000000000E+00  0.00000000000E+00  0.54870346087E+02  0.45770322174E+03  0.45440233748E+03 0.  0.
      99925    2    3    3    0    0  0.93269019477E+02  0.63137759255E+02  0.32145715850E+02  0.28785209999E+03  0.26294485693E+03 0.  0.
         25    1    3    3    0    0 -0.93269019477E+02 -0.63137759255E+02  0.22724630237E+02  0.16985112174E+03  0.12509000000E+03 0.  0.
         25    1    4    4    0    0  0.61531324401E+02  0.41420606241E+02 -0.20355751894E+02  0.14684561702E+03  0.12509000000E+03 0.  0.
         25    1    4    4    0    0  0.31737695077E+02  0.21717153015E+02  0.52501467744E+02  0.14100648297E+03  0.12509000000E+03 0.  0.
<mgrwt>
<rscale>  2 0.45440234E+03</rscale>
<asrwt>0</asrwt>
<pdfrwt beam="1">  1       21 0.37689233E-01 0.45440234E+03</pdfrwt>
<pdfrwt beam="2">  1       21 0.29620065E-01 0.45440234E+03</pdfrwt>
<totfact> 0.68674968E+04</totfact>
</mgrwt>
</event>
<event>
 7    0  0.4748297E-002  0.4529281E+03  0.7546771E-02  0.1026852E+00
         21   -1    0    0  502  501  0.00000000000E+00  0.00000000000E+00  0.10810266308E+04  0.10810266308E+04  0.00000000000E+00 0.  1.
         21   -1    0    0  501  502 -0.00000000000E+00 -0.00000000000E+00 -0.47441899643E+02  0.47441899643E+02  0.00000000000E+00 0.  1.
      99926    2    1    2    0    0  0.00000000000E+00  0.00000000000E+00  0.10335847311E+04  0.11284685304E+04  0.45292806020E+03 0.  0.
      99925    2    3    3    0    0  0.42333475027E+02 -0.27714254859E+02  0.40428765534E+03  0.48486731792E+03  0.26284521052E+03 0.  0.
         25    1    4    4    0    0 -0.16008799669E+02 -0.26138667570E+02  0.17594808026E+03  0.21804757888E+03  0.12509000000E+03 0.  0.
         25    1    3    3    0    0 -0.42333475027E+02  0.27714254859E+02  0.62929707579E+03  0.64360121250E+03  0.12509000000E+03 0.  0.
         25    1    4    4    0    0  0.58342274697E+02 -0.15755872891E+01  0.22833957509E+03  0.26681973904E+03  0.12509000000E+03 0.  0.
<mgrwt>
<rscale>  2 0.45292806E+03</rscale>
<asrwt>0</asrwt>
<pdfrwt beam="1">  1       21 0.15897449E+00 0.45292806E+03</pdfrwt>
<pdfrwt beam="2">  1       21 0.69767506E-02 0.45292806E+03</pdfrwt>
<totfact> 0.35072511E+04</totfact>
</mgrwt>
</event>
<event>
 7    0  0.4748297E-002  0.4531706E+03  0.7546771E-02  0.1026781E+00
         21   -1    0    0  502  501  0.00000000000E+00  0.00000000000E+00  0.63120858333E+02  0.63120858333E+02  0.00000000000E+00 0. -1.
         21   -1    0    0  501  502 -0.00000000000E+00 -0.00000000000E+00 -0.81337445498E+03  0.81337445498E+03  0.00000000000E+00 0. -1.
      99926    2    1    2    0    0 -0.71054273576E-14  0.00000000000E+00 -0.75025359664E+03  0.87649531331E+03  0.45317058044E+03 0.  0.
      99925    2    3    3    0    0  0.53536251462E+02  0.26963947953E+02 -0.28623117255E+03  0.39218394356E+03  0.26131738698E+03 0.  0.
         25    1    4    4    0    0 -0.13741306467E+01 -0.51079240141E+01 -0.10804025690E+03  0.16537286456E+03  0.12509000000E+03 0.  0.
         25    1    4    4    0    0  0.54910382108E+02  0.32071871967E+02 -0.17819091565E+03  0.22681107900E+03  0.12509000000E+03 0.  0.
         25    1    3    3    0    0 -0.53536251462E+02 -0.26963947953E+02 -0.46402242409E+03  0.48431136975E+03  0.12509000000E+03 0.  0.
<mgrwt>
<rscale>  2 0.45317058E+03</rscale>
<asrwt>0</asrwt>
<pdfrwt beam="1">  1       21 0.92824799E-02 0.45317058E+03</pdfrwt>
<pdfrwt beam="2">  1       21 0.11961388E+00 0.45317058E+03</pdfrwt>
<totfact> 0.44905576E+04</totfact>
</mgrwt>
</event>
<event>
 7    0  0.4748297E-002  0.4068890E+03  0.7546771E-02  0.1041420E+00
         21   -1    0    0  502  501  0.00000000000E+00  0.00000000000E+00  0.15626398818E+03  0.15626398818E+03  0.00000000000E+00 0. -1.
         21   -1    0    0  501  502 -0.00000000000E+00 -0.00000000000E+00 -0.26487014710E+03  0.26487014710E+03  0.00000000000E+00 0. -1.
      99926    2    1    2    0    0  0.00000000000E+00  0.88817841970E-15 -0.10860615891E+03  0.42113413528E+03  0.40688900470E+03 0.  0.
      99925    2    3    3    0    0 -0.57263954843E+02 -0.62210416452E+01 -0.66390923244E+02  0.27709422378E+03  0.26278430752E+03 0.  0.
         25    1    4    4    0    0  0.10443501334E+02 -0.67701497054E+00 -0.43898286260E+02  0.13298155025E+03  0.12509000000E+03 0.  0.
         25    1    3    3    0    0  0.57263954843E+02  0.62210416452E+01 -0.42215235670E+02  0.14403991150E+03  0.12509000000E+03 0.  0.
         25    1    4    4    0    0 -0.67707456177E+02 -0.55440266747E+01 -0.22492636984E+02  0.14411267353E+03  0.12509000000E+03 0.  0.
<mgrwt>
<rscale>  2 0.40688900E+03</rscale>
<asrwt>0</asrwt>
<pdfrwt beam="1">  1       21 0.22979998E-01 0.40688900E+03</pdfrwt>
<pdfrwt beam="2">  1       21 0.38951492E-01 0.40688900E+03</pdfrwt>
<totfact> 0.10642104E+05</totfact>
</mgrwt>
</event>
<event>
 7    0  0.4748297E-002  0.4501298E+03  0.7546771E-02  0.1027683E+00
         21   -1    0    0  502  501  0.00000000000E+00  0.00000000000E+00  0.33018608115E+03  0.33018608115E+03  0.00000000000E+00 0.  1.
         21   -1    0    0  501  502 -0.00000000000E+00 -0.00000000000E+00 -0.15341107475E+03  0.15341107475E+03  0.00000000000E+00 0.  1.
      99926    2    1    2    0    0  0.14210854715E-13  0.00000000000E+00  0.17677500640E+03  0.48359715589E+03  0.45012976607E+03 0.  0.
      99925    2    3    3    0    0  0.89530075524E+02  0.38822673830E+02  0.60451847024E+02  0.28687039123E+03  0.26290180891E+03 0.  0.
         25    1    3    3    0    0 -0.89530075524E+02 -0.38822673830E+02  0.11632315938E+03  0.19672676466E+03  0.12509000000E+03 0.  0.
         25    1    4    4    0    0  0.67636842624E+02 -0.70389240105E+01  0.99874641391E+01  0.14272892654E+03  0.12509000000E+03 0.  0.
         25    1    4    4    0    0  0.21893232901E+02  0.45861597840E+02  0.50464382885E+02  0.14414146469E+03  0.12509000000E+03 0.  0.
<mgrwt>
<rscale>  2 0.45012977E+03</rscale>
<asrwt>0</asrwt>
<pdfrwt beam="1">  1       21 0.48556777E-01 0.45012977E+03</pdfrwt>
<pdfrwt beam="2">  1       21 0.22560452E-01 0.45012977E+03</pdfrwt>
<totfact> 0.69071250E+04</totfact>
</mgrwt>
</event>
<event>
 7    0  0.4748297E-002  0.4519941E+03  0.7546771E-02  0.1027129E+00
         21   -1    0    0  502  501  0.00000000000E+00  0.00000000000E+00  0.65166811450E+03  0.65166811450E+03  0.00000000000E+00 0. -1.
         21   -1    0    0  501  502 -0.00000000000E+00 -0.00000000000E+00 -0.78375281458E+02  0.78375281458E+02  0.00000000000E+00 0. -1.
      99926    2    1    2    0    0  0.00000000000E+00  0.00000000000E+00  0.57329283305E+03  0.73004339596E+03  0.45199412338E+03 0.  0.
      99925    2    3    3    0    0 -0.98368347967E+02 -0.49244711758E+02  0.34963251389E+03  0.45116560914E+03  0.26307059620E+03 0.  0.
         25    1    3    3    0    0  0.98368347967E+02  0.49244711758E+02  0.22366031916E+03  0.27887778682E+03  0.12509000000E+03 0.  0.
         25    1    4    4    0    0 -0.47556545787E+02 -0.21610551472E+02  0.10934654179E+03  0.17416318579E+03  0.12509000000E+03 0.  0.
         25    1    4    4    0    0 -0.50811802180E+02 -0.27634160286E+02  0.24028597210E+03  0.27700242335E+03  0.12509000000E+03 0.  0.
<mgrwt>
<rscale>  2 0.45199412E+03</rscale>
<asrwt>0</asrwt>
<pdfrwt beam="1">  1       21 0.95833544E-01 0.45199412E+03</pdfrwt>
<pdfrwt beam="2">  1       21 0.11525777E-01 0.45199412E+03</pdfrwt>
<totfact> 0.52532730E+04</totfact>
</mgrwt>
</event>
<event>
 7    0  0.4748297E-002  0.4564232E+03  0.7546771E-02  0.1025824E+00
         21   -1    0    0  502  501  0.00000000000E+00  0.00000000000E+00  0.40107635772E+02  0.40107635772E+02  0.00000000000E+00 0. -1.
         21   -1    0    0  501  502 -0.00000000000E+00 -0.00000000000E+00 -0.12985191609E+04  0.12985191609E+04  0.00000000000E+00 0. -1.
      99926    2    1    2    0    0  0.00000000000E+00 -0.71054273576E-14 -0.12584115252E+04  0.13386267967E+04  0.45642319639E+03 0.  0.
      99925    2    3    3    0    0 -0.60547584244E+01  0.54282496560E+02 -0.10859751784E+04  0.11187062399E+04  0.26301770570E+03 0.  0.
         25    1    3    3    0    0  0.60547584244E+01 -0.54282496560E+02 -0.17243634679E+03  0.21992055685E+03  0.12509000000E+03 0.  0.
         25    1    4    4    0    0  0.24089243979E+02  0.50125054461E+02 -0.64255855284E+03  0.65697931070E+03  0.12509000000E+03 0.  0.
         25    1    4    4    0    0 -0.30144002403E+02  0.41574420992E+01 -0.44341662554E+03  0.46172692916E+03  0.12509000000E+03 0.  0.
<mgrwt>
<rscale>  2 0.45642320E+03</rscale>
<asrwt>0</asrwt>
<pdfrwt beam="1">  1       21 0.58981829E-02 0.45642320E+03</pdfrwt>
<pdfrwt beam="2">  1       21 0.19095866E+00 0.45642320E+03</pdfrwt>
<totfact> 0.27705421E+04</totfact>
</mgrwt>
</event>
<event>
 7    0  0.4748297E-002  0.4563770E+03  0.7546771E-02  0.1025837E+00
         21   -1    0    0  502  501  0.00000000000E+00  0.00000000000E+00  0.23808986938E+03  0.23808986938E+03  0.00000000000E+00 0.  1.
         21   -1    0    0  501  502 -0.00000000000E+00 -0.00000000000E+00 -0.21869893204E+03  0.21869893204E+03  0.00000000000E+00 0.  1.
      99926    2    1    2    0    0  0.00000000000E+00 -0.14210854715E-13  0.19390937340E+02  0.45678880142E+03  0.45637703782E+03 0.  0.
      99925    2    3    3    0    0 -0.11602809171E+01 -0.10691480937E+03 -0.29298152796E+02  0.28517802578E+03  0.26274703027E+03 0.  0.
         25    1    3    3    0    0  0.11602809171E+01  0.10691480937E+03  0.48689090136E+02  0.17161077563E+03  0.12509000000E+03 0.  0.
         25    1    4    4    0    0  0.10511366836E+02 -0.15687602650E+02 -0.29565882827E+02  0.12991627780E+03  0.12509000000E+03 0.  0.
         25    1    4    4    0    0 -0.11671647754E+02 -0.91227206723E+02  0.26773003156E+00  0.15526174798E+03  0.12509000000E+03 0.  0.
<mgrwt>
<rscale>  2 0.45637704E+03</rscale>
<asrwt>0</asrwt>
<pdfrwt beam="1">  1       21 0.35013216E-01 0.45637704E+03</pdfrwt>
<pdfrwt beam="2">  1       21 0.32161608E-01 0.45637704E+03</pdfrwt>
<totfact> 0.67668415E+04</totfact>
</mgrwt>
</event>
<event>
 7    0  0.4748297E-002  0.4589182E+03  0.7546771E-02  0.1025095E+00
         21   -1    0    0  502  501  0.00000000000E+00  0.00000000000E+00  0.33039095005E+02  0.33039095005E+02  0.00000000000E+00 0.  1.
         21   -1    0    0  501  502 -0.00000000000E+00 -0.00000000000E+00 -0.15936113383E+04  0.15936113383E+04  0.00000000000E+00 0.  1.
      99926    2    1    2    0    0  0.00000000000E+00  0.35527136788E-14 -0.15605722433E+04  0.16266504333E+04  0.45891819056E+03 0.  0.
      99925    2    3    3    0    0  0.99741714240E+02  0.31412045581E+02 -0.79426770954E+03  0.84319317683E+03  0.26301789458E+03 0.  0.
         25    1    4    4    0    0  0.38741478047E+02 -0.23966208970E+02 -0.38663728699E+03  0.40891463790E+03  0.12509000000E+03 0.  0.
         25    1    4    4    0    0  0.61000236194E+02  0.55378254551E+02 -0.40763042254E+03  0.43427853893E+03  0.12509000000E+03 0.  0.
         25    1    3    3    0    0 -0.99741714240E+02 -0.31412045581E+02 -0.76630453373E+03  0.78345725645E+03  0.12509000000E+03 0.  0.
<mgrwt>
<rscale>  2 0.45891819E+03</rscale>
<asrwt>0</asrwt>
<pdfrwt beam="1">  1       21 0.48586905E-02 0.45891819E+03</pdfrwt>
<pdfrwt beam="2">  1       21 0.23435460E+00 0.45891819E+03</pdfrwt>
<totfact> 0.20212242E+04</totfact>
</mgrwt>
</event>
<event>
 7    0  0.4748297E-002  0.4491174E+03  0.7546771E-02  0.1027986E+00
         21   -1    0    0  502  501  0.00000000000E+00  0.00000000000E+00  0.82378310493E+02  0.82378310493E+02  0.00000000000E+00 0.  1.
         21   -1    0    0  501  502 -0.00000000000E+00 -0.00000000000E+00 -0.61213462318E+03  0.61213462318E+03  0.00000000000E+00 0.  1.
      99926    2    1    2    0    0 -0.35527136788E-14 -0.14210854715E-13 -0.52975631269E+03  0.69451293367E+03  0.44911742808E+03 0.  0.
      99925    2    3    3    0    0  0.27448157371E+02  0.10083934691E+03 -0.37345497159E+03  0.46868203996E+03  0.26319624530E+03 0.  0.
         25    1    3    3    0    0 -0.27448157371E+02 -0.10083934691E+03 -0.15630134109E+03  0.22583089372E+03  0.12509000000E+03 0.  0.
         25    1    4    4    0    0  0.32700422201E+02  0.37236599973E+02 -0.12696415005E+03  0.18499536612E+03  0.12509000000E+03 0.  0.
         25    1    4    4    0    0 -0.52522648304E+01  0.63602746941E+02 -0.24649082155E+03  0.28368667383E+03  0.12509000000E+03 0.  0.
<mgrwt>
<rscale>  2 0.44911743E+03</rscale>
<asrwt>0</asrwt>
<pdfrwt beam="1">  1       21 0.12114457E-01 0.44911743E+03</pdfrwt>
<pdfrwt beam="2">  1       21 0.90019802E-01 0.44911743E+03</pdfrwt>
<totfact> 0.55738158E+04</totfact>
</mgrwt>
</event>
<event>
 7    0  0.4748297E-002  0.4501101E+03  0.7546771E-02  0.1027689E+00
         21   -1    0    0  502  501  0.00000000000E+00  0.00000000000E+00  0.29823237283E+03  0.29823237283E+03  0.00000000000E+00 0. -1.
         21   -1    0    0  501  502 -0.00000000000E+00 -0.00000000000E+00 -0.16983325927E+03  0.16983325927E+03  0.00000000000E+00 0. -1.
      99926    2    1    2    0    0  0.00000000000E+00  0.71054273576E-14  0.12839911356E+03  0.46806563210E+03  0.45011010163E+03 0.  0.
      99925    2    3    3    0    0 -0.99290882183E+02  0.41722445144E+02  0.94958289735E+02  0.29964580396E+03  0.26300397208E+03 0.  0.
         25    1    4    4    0    0 -0.27425081773E+02  0.10600960436E+02  0.89058428969E+01  0.12880736629E+03  0.12509000000E+03 0.  0.
         25    1    3    3    0    0  0.99290882183E+02 -0.41722445144E+02  0.33440823823E+02  0.16841982814E+03  0.12509000000E+03 0.  0.
         25    1    4    4    0    0 -0.71865800409E+02  0.31121484709E+02  0.86052446838E+02  0.17083843767E+03  0.12509000000E+03 0.  0.
<mgrwt>
<rscale>  2 0.45011010E+03</rscale>
<asrwt>0</asrwt>
<pdfrwt beam="1">  1       21 0.43857702E-01 0.45011010E+03</pdfrwt>
<pdfrwt beam="2">  1       21 0.24975479E-01 0.45011010E+03</pdfrwt>
<totfact> 0.70266504E+04</totfact>
</mgrwt>
</event>
<event>
 7    0  0.4748297E-002  0.4586401E+03  0.7546771E-02  0.1025176E+00
         21   -1    0    0  502  501  0.00000000000E+00  0.00000000000E+00  0.13006044172E+03  0.13006044172E+03  0.00000000000E+00 0.  1.
         21   -1    0    0  501  502 -0.00000000000E+00 -0.00000000000E+00 -0.40433268386E+03  0.40433268386E+03  0.00000000000E+00 0.  1.
      99926    2    1    2    0    0  0.00000000000E+00 -0.71054273576E-14 -0.27427224214E+03  0.53439312558E+03  0.45864010929E+03 0.  0.
      99925    2    3    3    0    0  0.94467887551E+02 -0.46528499734E+02 -0.11384452420E+03  0.30532186188E+03  0.26300528624E+03 0.  0.
         25    1    3    3    0    0 -0.94467887551E+02  0.46528499734E+02 -0.16042771794E+03  0.22907126369E+03  0.12509000000E+03 0.  0.
         25    1    4    4    0    0  0.14340674327E+02 -0.36943451461E+01 -0.30169524915E+02  0.12952610339E+03  0.12509000000E+03 0.  0.
         25    1    4    4    0    0  0.80127213224E+02 -0.42834154588E+02 -0.83674999286E+02  0.17579575849E+03  0.12509000000E+03 0.  0.
<mgrwt>
<rscale>  2 0.45864011E+03</rscale>
<asrwt>0</asrwt>
<pdfrwt beam="1">  1       21 0.19126536E-01 0.45864011E+03</pdfrwt>
<pdfrwt beam="2">  1       21 0.59460687E-01 0.45864011E+03</pdfrwt>
<totfact> 0.61127452E+04</totfact>
</mgrwt>
</event>
<event>
 7    0  0.4748297E-002  0.4555279E+03  0.7546771E-02  0.1026086E+00
         21   -1    0    0  502  501  0.00000000000E+00  0.00000000000E+00  0.20149536836E+03  0.20149536836E+03  0.00000000000E+00 0.  1.
         21   -1    0    0  501  502 -0.00000000000E+00 -0.00000000000E+00 -0.25745714773E+03  0.25745714773E+03  0.00000000000E+00 0.  1.
      99926    2    1    2    0    0  0.00000000000E+00 -0.62172489379E-14 -0.55961779372E+02  0.45895251608E+03  0.45552792590E+03 0.  0.
      99925    2    3    3    0    0  0.11326373080E+03 -0.72829839652E+01 -0.28861996765E+02  0.28788638592E+03  0.26299019330E+03 0.  0.
         25    1    3    3    0    0 -0.11326373080E+03  0.72829839652E+01 -0.27099782607E+02  0.17106613016E+03  0.12509000000E+03 0.  0.
         25    1    4    4    0    0  0.69561670969E+02  0.34699818033E+02 -0.99924849269E+01  0.14761524750E+03  0.12509000000E+03 0.  0.
         25    1    4    4    0    0  0.43702059835E+02 -0.41982801998E+02 -0.18869511838E+02  0.14027113842E+03  0.12509000000E+03 0.  0.
<mgrwt>
<rscale>  2 0.45552793E+03</rscale>
<asrwt>0</asrwt>
<pdfrwt beam="1">  1       21 0.29631672E-01 0.45552793E+03</pdfrwt>
<pdfrwt beam="2">  1       21 0.37861345E-01 0.45552793E+03</pdfrwt>
<totfact> 0.67970315E+04</totfact>
</mgrwt>
</event>
<event>
 7    0  0.4748297E-002  0.4734550E+03  0.7546771E-02  0.1020950E+00
         21   -1    0    0  502  501  0.00000000000E+00  0.00000000000E+00  0.98851444169E+03  0.98851444169E+03  0.00000000000E+00 0. -1.
         21   -1    0    0  501  502 -0.00000000000E+00 -0.00000000000E+00 -0.56691026825E+02  0.56691026825E+02  0.00000000000E+00 0. -1.
      99926    2    1    2    0    0  0.00000000000E+00 -0.14210854715E-13  0.93182341487E+03  0.10452054685E+04  0.47345495554E+03 0.  0.
      99925    2    3    3    0    0 -0.79205877799E+02 -0.98441676881E+02  0.64227999349E+03  0.70543019604E+03  0.26295215652E+03 0.  0.
         25    1    3    3    0    0  0.79205877799E+02  0.98441676881E+02  0.28954342138E+03  0.33977527248E+03  0.12509000000E+03 0.  0.
         25    1    4    4    0    0 -0.45282415456E+02 -0.83471556481E+01  0.31654261937E+03  0.34346311321E+03  0.12509000000E+03 0.  0.
         25    1    4    4    0    0 -0.33923462344E+02 -0.90094521233E+02  0.32573737412E+03  0.36196708283E+03  0.12509000000E+03 0.  0.
<mgrwt>
<rscale>  2 0.47345496E+03</rscale>
<asrwt>0</asrwt>
<pdfrwt beam="1">  1       21 0.14536976E+00 0.47345496E+03</pdfrwt>
<pdfrwt beam="2">  1       21 0.83369163E-02 0.47345496E+03</pdfrwt>
<totfact> 0.32511599E+04</totfact>
</mgrwt>
</event>
<event>
 7    0  0.4748297E-002  0.4477028E+03  0.7546771E-02  0.1028409E+00
         21   -1    0    0  502  501  0.00000000000E+00  0.00000000000E+00  0.17693944422E+03  0.17693944422E+03  0.00000000000E+00 0.  1.
         21   -1    0    0  501  502 -0.00000000000E+00 -0.00000000000E+00 -0.28320108314E+03  0.28320108314E+03  0.00000000000E+00 0.  1.
      99926    2    1    2    0    0  0.00000000000E+00  0.00000000000E+00 -0.10626163892E+03  0.46014052736E+03  0.44770276860E+03 0.  0.
      99925    2    3    3    0    0 -0.59378239757E+02 -0.29781288173E+02  0.17807264630E+02  0.27185005652E+03  0.26300694682E+03 0.  0.
         25    1    4    4    0    0 -0.55527336852E+02 -0.10157205585E+02  0.40645382262E+02  0.14312934417E+03  0.12509000000E+03 0.  0.
         25    1    4    4    0    0 -0.38509029058E+01 -0.19624082588E+02 -0.22838117632E+02  0.12872071235E+03  0.12509000000E+03 0.  0.
         25    1    3    3    0    0  0.59378239757E+02  0.29781288173E+02 -0.12406890355E+03  0.18829047084E+03  0.12509000000E+03 0.  0.
<mgrwt>
<rscale>  2 0.44770277E+03</rscale>
<asrwt>0</asrwt>
<pdfrwt beam="1">  1       21 0.26020507E-01 0.44770277E+03</pdfrwt>
<pdfrwt beam="2">  1       21 0.41647218E-01 0.44770277E+03</pdfrwt>
<totfact> 0.72269706E+04</totfact>
</mgrwt>
</event>
<event>
 7    0  0.4748297E-002  0.4531132E+03  0.7546771E-02  0.1026798E+00
         21   -1    0    0  502  501  0.00000000000E+00  0.00000000000E+00  0.39138880397E+03  0.39138880397E+03  0.00000000000E+00 0.  1.
         21   -1    0    0  501  502 -0.00000000000E+00 -0.00000000000E+00 -0.13114295101E+03  0.13114295101E+03  0.00000000000E+00 0.  1.
      99926    2    1    2    0    0  0.00000000000E+00 -0.17763568394E-14  0.26024585295E+03  0.52253175498E+03  0.45311315472E+03 0.  0.
      99925    2    3    3    0    0 -0.72532523958E+02 -0.12593556932E+02  0.67053376403E+02  0.28089068686E+03  0.26264778310E+03 0.  0.
         25    1    4    4    0    0 -0.23783281063E+02 -0.46456566171E+01  0.71923906351E+02  0.14631398767E+03  0.12509000000E+03 0.  0.
         25    1    3    3    0    0  0.72532523958E+02  0.12593556932E+02  0.19319247655E+03  0.24164106812E+03  0.12509000000E+03 0.  0.
         25    1    4    4    0    0 -0.48749242895E+02 -0.79479003146E+01 -0.48705299481E+01  0.13457669919E+03  0.12509000000E+03 0.  0.
<mgrwt>
<rscale>  2 0.45311315E+03</rscale>
<asrwt>0</asrwt>
<pdfrwt beam="1">  1       21 0.57557177E-01 0.45311315E+03</pdfrwt>
<pdfrwt beam="2">  1       21 0.19285728E-01 0.45311315E+03</pdfrwt>
<totfact> 0.64676923E+04</totfact>
</mgrwt>
</event>
<event>
 7    0  0.4748297E-002  0.4404398E+03  0.7546771E-02  0.1030612E+00
         21   -1    0    0  502  501  0.00000000000E+00  0.00000000000E+00  0.14175413818E+04  0.14175413818E+04  0.00000000000E+00 0. -1.
         21   -1    0    0  501  502 -0.00000000000E+00 -0.00000000000E+00 -0.34211916006E+02  0.34211916006E+02  0.00000000000E+00 0. -1.
      99926    2    1    2    0    0  0.00000000000E+00  0.00000000000E+00  0.13833294658E+04  0.14517532979E+04  0.44043981060E+03 0.  0.
      99925    2    3    3    0    0 -0.79225202724E+02  0.57934398963E+02  0.84682842755E+03  0.89218748446E+03  0.26314842654E+03 0.  0.
         25    1    3    3    0    0  0.79225202724E+02 -0.57934398963E+02  0.53650103829E+03  0.55956581339E+03  0.12509000000E+03 0.  0.
         25    1    4    4    0    0 -0.46789645288E+02  0.12480684941E+02  0.30285589310E+03  0.33123139720E+03  0.12509000000E+03 0.  0.
         25    1    4    4    0    0 -0.32435557436E+02  0.45453714021E+02  0.54397253445E+03  0.56095608727E+03  0.12509000000E+03 0.  0.
<mgrwt>
<rscale>  2 0.44043981E+03</rscale>
<asrwt>0</asrwt>
<pdfrwt beam="1">  1       21 0.20846193E+00 0.44043981E+03</pdfrwt>
<pdfrwt beam="2">  1       21 0.50311651E-02 0.44043981E+03</pdfrwt>
<totfact> 0.28023606E+04</totfact>
</mgrwt>
</event>
<event>
 7    0  0.4748297E-002  0.4517833E+03  0.7546771E-02  0.1027192E+00
         21   -1    0    0  502  501  0.00000000000E+00  0.00000000000E+00  0.74079904486E+02  0.74079904486E+02  0.00000000000E+00 0. -1.
         21   -1    0    0  501  502 -0.00000000000E+00 -0.00000000000E+00 -0.68881067864E+03  0.68881067864E+03  0.00000000000E+00 0. -1.
      99926    2    1    2    0    0  0.00000000000E+00  0.88817841970E-15 -0.61473077415E+03  0.76289058313E+03  0.45178326345E+03 0.  0.
      99925    2    3    3    0    0  0.39574981762E+02 -0.52881713244E+01 -0.21477588703E+03  0.34193267101E+03  0.26304966436E+03 0.  0.
         25    1    4    4    0    0 -0.13559956289E+02 -0.26045828399E+02 -0.99347423069E+02  0.16241821376E+03  0.12509000000E+03 0.  0.
         25    1    4    4    0    0  0.53134938051E+02  0.20757657074E+02 -0.11542846396E+03  0.17951445725E+03  0.12509000000E+03 0.  0.
         25    1    3    3    0    0 -0.39574981762E+02  0.52881713244E+01 -0.39995488712E+03  0.42095791211E+03  0.12509000000E+03 0.  0.
<mgrwt>
<rscale>  2 0.45178326E+03</rscale>
<asrwt>0</asrwt>
<pdfrwt beam="1">  1       21 0.10894104E-01 0.45178326E+03</pdfrwt>
<pdfrwt beam="2">  1       21 0.10129569E+00 0.45178326E+03</pdfrwt>
<totfact> 0.50884786E+04</totfact>
</mgrwt>
</event>
<event>
 7    0  0.4748297E-002  0.4601808E+03  0.7546771E-02  0.1024729E+00
         21   -1    0    0  502  501  0.00000000000E+00  0.00000000000E+00  0.12130733710E+03  0.12130733710E+03  0.00000000000E+00 0. -1.
         21   -1    0    0  501  502 -0.00000000000E+00 -0.00000000000E+00 -0.43642525477E+03  0.43642525477E+03  0.00000000000E+00 0. -1.
      99926    2    1    2    0    0 -0.14210854715E-13  0.00000000000E+00 -0.31511791767E+03  0.55773259187E+03  0.46018077100E+03 0.  0.
      99925    2    3    3    0    0  0.70441513062E+02 -0.90628660640E+02 -0.16395308854E+03  0.33041370889E+03  0.26290120367E+03 0.  0.
         25    1    4    4    0    0 -0.14460302395E+01 -0.23121467399E+02 -0.81069651937E+02  0.15085254331E+03  0.12509000000E+03 0.  0.
         25    1    3    3    0    0 -0.70441513062E+02  0.90628660640E+02 -0.15116482913E+03  0.22731888298E+03  0.12509000000E+03 0.  0.
         25    1    4    4    0    0  0.71887543302E+02 -0.67507193242E+02 -0.82883436603E+02  0.17956116558E+03  0.12509000000E+03 0.  0.
<mgrwt>
<rscale>  2 0.46018077E+03</rscale>
<asrwt>0</asrwt>
<pdfrwt beam="1">  1       21 0.17839315E-01 0.46018077E+03</pdfrwt>
<pdfrwt beam="2">  1       21 0.64180183E-01 0.46018077E+03</pdfrwt>
<totfact> 0.58906901E+04</totfact>
</mgrwt>
</event>
<event>
 7    0  0.4748297E-002  0.4539113E+03  0.7546771E-02  0.1026562E+00
         21   -1    0    0  502  501  0.00000000000E+00  0.00000000000E+00  0.45453618895E+03  0.45453618895E+03  0.00000000000E+00 0.  1.
         21   -1    0    0  501  502 -0.00000000000E+00 -0.00000000000E+00 -0.11332182832E+03  0.11332182832E+03  0.00000000000E+00 0.  1.
      99926    2    1    2    0    0  0.00000000000E+00  0.00000000000E+00  0.34121436063E+03  0.56785801728E+03  0.45391132161E+03 0.  0.
      99925    2    3    3    0    0  0.85510402723E+02  0.39176632296E+02  0.29104479674E+03  0.40350677532E+03  0.26318017882E+03 0.  0.
         25    1    4    4    0    0  0.23413798614E+01  0.22191080486E+02  0.11406928240E+03  0.17075489861E+03  0.12509000000E+03 0.  0.
         25    1    4    4    0    0  0.83169022862E+02  0.16985551810E+02  0.17697551435E+03  0.23275187671E+03  0.12509000000E+03 0.  0.
         25    1    3    3    0    0 -0.85510402723E+02 -0.39176632296E+02  0.50169563882E+02  0.16435124195E+03  0.12509000000E+03 0.  0.
<mgrwt>
<rscale>  2 0.45391132E+03</rscale>
<asrwt>0</asrwt>
<pdfrwt beam="1">  1       21 0.66843557E-01 0.45391132E+03</pdfrwt>
<pdfrwt beam="2">  1       21 0.16664975E-01 0.45391132E+03</pdfrwt>
<totfact> 0.61227073E+04</totfact>
</mgrwt>
</event>
<event>
 7    0  0.4748297E-002  0.4558034E+03  0.7546771E-02  0.1026005E+00
         21   -1    0    0  502  501  0.00000000000E+00  0.00000000000E+00  0.35981731008E+03  0.35981731008E+03  0.00000000000E+00 0. -1.
         21   -1    0    0  501  502 -0.00000000000E+00 -0.00000000000E+00 -0.14434877817E+03  0.14434877817E+03  0.00000000000E+00 0. -1.
      99926    2    1    2    0    0 -0.14210854715E-13  0.00000000000E+00  0.21546853191E+03  0.50416608825E+03  0.45580341848E+03 0.  0.
      99925    2    3    3    0    0 -0.85173755866E+02 -0.64052514735E+02  0.18013577565E+03  0.33607919079E+03  0.26295062556E+03 0.  0.
         25    1    3    3    0    0  0.85173755866E+02  0.64052514735E+02  0.35332756264E+02  0.16808689746E+03  0.12509000000E+03 0.  0.
         25    1    4    4    0    0 -0.13880374179E+02 -0.36107564070E+02  0.11985310169E+03  0.17750688735E+03  0.12509000000E+03 0.  0.
         25    1    4    4    0    0 -0.71293381686E+02 -0.27944950665E+02  0.60282673955E+02  0.15857230344E+03  0.12509000000E+03 0.  0.
<mgrwt>
<rscale>  2 0.45580342E+03</rscale>
<asrwt>0</asrwt>
<pdfrwt beam="1">  1       21 0.52914310E-01 0.45580342E+03</pdfrwt>
<pdfrwt beam="2">  1       21 0.21227762E-01 0.45580342E+03</pdfrwt>
<totfact> 0.64566231E+04</totfact>
</mgrwt>
</event>
<event>
 7    0  0.4748297E-002  0.4531834E+03  0.7546771E-02  0.1026777E+00
         21   -1    0    0  502  501  0.00000000000E+00  0.00000000000E+00  0.13770729828E+04  0.13770729828E+04  0.00000000000E+00 0.  1.
         21   -1    0    0  501  502 -0.00000000000E+00 -0.00000000000E+00 -0.37284727543E+02  0.37284727543E+02  0.00000000000E+00 0.  1.
      99926    2    1    2    0    0  0.71054273576E-14  0.71054273576E-14  0.13397882552E+04  0.14143577103E+04  0.45318336673E+03 0.  0.
      99925    2    3    3    0    0 -0.33792299821E+02  0.35034354905E+02  0.53273901079E+03  0.59622244240E+03  0.26325087209E+03 0.  0.
         25    1    4    4    0    0 -0.15788135894E+02 -0.23783453368E+02  0.25258919227E+03  0.28330853507E+03  0.12509000000E+03 0.  0.
         25    1    4    4    0    0 -0.18004163927E+02  0.58817808273E+02  0.28014981852E+03  0.31291390734E+03  0.12509000000E+03 0.  0.
         25    1    3    3    0    0  0.33792299821E+02 -0.35034354905E+02  0.80704924446E+03  0.81813526793E+03  0.12509000000E+03 0.  0.
<mgrwt>
<rscale>  2 0.45318337E+03</rscale>
<asrwt>0</asrwt>
<pdfrwt beam="1">  1       21 0.20251070E+00 0.45318337E+03</pdfrwt>
<pdfrwt beam="2">  1       21 0.54830491E-02 0.45318337E+03</pdfrwt>
<totfact> 0.26321520E+04</totfact>
</mgrwt>
</event>
<event>
 7    0  0.4748297E-002  0.4767081E+03  0.7546771E-02  0.1020044E+00
         21   -1    0    0  502  501  0.00000000000E+00  0.00000000000E+00  0.46316484149E+03  0.46316484149E+03  0.00000000000E+00 0.  1.
         21   -1    0    0  501  502 -0.00000000000E+00 -0.00000000000E+00 -0.12266185162E+03  0.12266185162E+03  0.00000000000E+00 0.  1.
      99926    2    1    2    0    0  0.17763568394E-14  0.00000000000E+00  0.34050298987E+03  0.58582669312E+03  0.47670811642E+03 0.  0.
      99925    2    3    3    0    0 -0.15900500832E+02 -0.11924841034E+03  0.27854713447E+03  0.40154689115E+03  0.26301785182E+03 0.  0.
         25    1    4    4    0    0 -0.42215618106E+02 -0.42501156926E+02  0.15424259478E+03  0.20742900689E+03  0.12509000000E+03 0.  0.
         25    1    4    4    0    0  0.26315117274E+02 -0.76747253416E+02  0.12430453968E+03  0.19411788426E+03  0.12509000000E+03 0.  0.
         25    1    3    3    0    0  0.15900500832E+02  0.11924841034E+03  0.61955855402E+02  0.18427980197E+03  0.12509000000E+03 0.  0.
<mgrwt>
<rscale>  2 0.47670812E+03</rscale>
<asrwt>0</asrwt>
<pdfrwt beam="1">  1       21 0.68112476E-01 0.47670812E+03</pdfrwt>
<pdfrwt beam="2">  1       21 0.18038508E-01 0.47670812E+03</pdfrwt>
<totfact> 0.50346944E+04</totfact>
</mgrwt>
</event>
<event>
 7    0  0.4748297E-002  0.4531900E+03  0.7546771E-02  0.1026775E+00
         21   -1    0    0  502  501  0.00000000000E+00  0.00000000000E+00  0.48927031646E+03  0.48927031646E+03  0.00000000000E+00 0.  1.
         21   -1    0    0  501  502 -0.00000000000E+00 -0.00000000000E+00 -0.10494261122E+03  0.10494261122E+03  0.00000000000E+00 0.  1.
      99926    2    1    2    0    0  0.00000000000E+00  0.00000000000E+00  0.38432770525E+03  0.59421292768E+03  0.45319004667E+03 0.  0.
      99925    2    3    3    0    0 -0.94849521928E+02  0.30040375483E+02  0.30804367122E+03  0.41710951744E+03  0.26304104280E+03 0.  0.
         25    1    3    3    0    0  0.94849521928E+02 -0.30040375483E+02  0.76284034030E+02  0.17710341024E+03  0.12509000000E+03 0.  0.
         25    1    4    4    0    0 -0.29239787560E+02  0.26247890169E+02  0.96860859573E+02  0.16301365321E+03  0.12509000000E+03 0.  0.
         25    1    4    4    0    0 -0.65609734369E+02  0.37924853143E+01  0.21118281164E+03  0.25409586424E+03  0.12509000000E+03 0.  0.
<mgrwt>
<rscale>  2 0.45319005E+03</rscale>
<asrwt>0</asrwt>
<pdfrwt beam="1">  1       21 0.71951516E-01 0.45319005E+03</pdfrwt>
<pdfrwt beam="2">  1       21 0.15432737E-01 0.45319005E+03</pdfrwt>
<totfact> 0.59887898E+04</totfact>
</mgrwt>
</event>
<event>
 7    0  0.4748297E-002  0.4584008E+03  0.7546771E-02  0.1025246E+00
         21   -1    0    0  502  501  0.00000000000E+00  0.00000000000E+00  0.68041613664E+03  0.68041613664E+03  0.00000000000E+00 0.  1.
         21   -1    0    0  501  502 -0.00000000000E+00 -0.00000000000E+00 -0.77206906415E+02  0.77206906415E+02  0.00000000000E+00 0.  1.
      99926    2    1    2    0    0  0.00000000000E+00  0.14210854715E-13  0.60320923023E+03  0.75762304306E+03  0.45840080709E+03 0.  0.
      99925    2    3    3    0    0  0.79825329952E+02  0.83164568863E+02  0.35284753973E+03  0.45494018430E+03  0.26302234921E+03 0.  0.
         25    1    4    4    0    0  0.15563784118E+02  0.35732829299E+02  0.11367109211E+03  0.17345804031E+03  0.12509000000E+03 0.  0.
         25    1    3    3    0    0 -0.79825329952E+02 -0.83164568863E+02  0.25036169049E+03  0.30268285875E+03  0.12509000000E+03 0.  0.
         25    1    4    4    0    0  0.64261545834E+02  0.47431739563E+02  0.23917644762E+03  0.28148214399E+03  0.12509000000E+03 0.  0.
<mgrwt>
<rscale>  2 0.45840081E+03</rscale>
<asrwt>0</asrwt>
<pdfrwt beam="1">  1       21 0.10006119E+00 0.45840081E+03</pdfrwt>
<pdfrwt beam="2">  1       21 0.11353957E-01 0.45840081E+03</pdfrwt>
<totfact> 0.48572193E+04</totfact>
</mgrwt>
</event>
<event>
 7    0  0.4748297E-002  0.4000647E+03  0.7546771E-02  0.1043757E+00
         21   -1    0    0  502  501  0.00000000000E+00  0.00000000000E+00  0.10411144516E+03  0.10411144516E+03  0.00000000000E+00 0. -1.
         21   -1    0    0  501  502 -0.00000000000E+00 -0.00000000000E+00 -0.38432800406E+03  0.38432800406E+03  0.00000000000E+00 0. -1.
      99926    2    1    2    0    0  0.35527136788E-14  0.00000000000E+00 -0.28021655891E+03  0.48843944922E+03  0.40006471435E+03 0.  0.
      99925    2    3    3    0    0 -0.31884687365E+02 -0.16849637566E+02 -0.15287420373E+03  0.30632924331E+03  0.26299532233E+03 0.  0.
         25    1    3    3    0    0  0.31884687365E+02  0.16849637566E+02 -0.12734235518E+03  0.18211020591E+03  0.12509000000E+03 0.  0.
         25    1    4    4    0    0 -0.23620867079E+02 -0.10908755612E+02 -0.31187182784E+02  0.13151841993E+03  0.12509000000E+03 0.  0.
         25    1    4    4    0    0 -0.82638202860E+01 -0.59408819539E+01 -0.12168702094E+03  0.17481082338E+03  0.12509000000E+03 0.  0.
<mgrwt>
<rscale>  2 0.40006471E+03</rscale>
<asrwt>0</asrwt>
<pdfrwt beam="1">  1       21 0.15310507E-01 0.40006471E+03</pdfrwt>
<pdfrwt beam="2">  1       21 0.56518824E-01 0.40006471E+03</pdfrwt>
<totfact> 0.10484573E+05</totfact>
</mgrwt>
</event>
<event>
 7    0  0.4748297E-002  0.4557399E+03  0.7546771E-02  0.1026024E+00
         21   -1    0    0  502  501  0.00000000000E+00  0.00000000000E+00  0.10347350769E+04  0.10347350769E+04  0.00000000000E+00 0. -1.
         21   -1    0    0  501  502 -0.00000000000E+00 -0.00000000000E+00 -0.50181652609E+02  0.50181652609E+02  0.00000000000E+00 0. -1.
      99926    2    1    2    0    0  0.00000000000E+00  0.14210854715E-13  0.98455342425E+03  0.10849167295E+04  0.45573990902E+03 0.  0.
      99925    2    3    3    0    0  0.84682887806E+02  0.75940884930E+02  0.59880597185E+03  0.66374358856E+03  0.26277128827E+03 0.  0.
         25    1    3    3    0    0 -0.84682887806E+02 -0.75940884930E+02  0.38574745240E+03  0.42117314091E+03  0.12509000000E+03 0.  0.
         25    1    4    4    0    0  0.58083382240E+02  0.10215414824E+02  0.23678216495E+03  0.27421038589E+03  0.12509000000E+03 0.  0.
         25    1    4    4    0    0  0.26599505566E+02  0.65725470106E+02  0.36202380690E+03  0.38953320267E+03  0.12509000000E+03 0.  0.
<mgrwt>
<rscale>  2 0.45573991E+03</rscale>
<asrwt>0</asrwt>
<pdfrwt beam="1">  1       21 0.15216691E+00 0.45573991E+03</pdfrwt>
<pdfrwt beam="2">  1       21 0.73796554E-02 0.45573991E+03</pdfrwt>
<totfact> 0.35814459E+04</totfact>
</mgrwt>
</event>
<event>
 7    0  0.4748297E-002  0.4518367E+03  0.7546771E-02  0.1027176E+00
         21   -1    0    0  502  501  0.00000000000E+00  0.00000000000E+00  0.26720732556E+04  0.26720732556E+04  0.00000000000E+00 0.  1.
         21   -1    0    0  501  502 -0.00000000000E+00 -0.00000000000E+00 -0.19100933312E+02  0.19100933312E+02  0.00000000000E+00 0.  1.
      99926    2    1    2    0    0  0.71054273576E-14  0.00000000000E+00  0.26529723223E+04  0.26911741890E+04  0.45183666545E+03 0.  0.
      99925    2    3    3    0    0  0.59466904105E+02 -0.44158099205E+02  0.21601537290E+04  0.21773610669E+04  0.26296545806E+03 0.  0.
         25    1    4    4    0    0  0.70436040980E+02 -0.15864476309E+02  0.11217389544E+04  0.11309989865E+04  0.12509000000E+03 0.  0.
         25    1    4    4    0    0 -0.10969136875E+02 -0.28293622896E+02  0.10384147746E+04  0.10463620804E+04  0.12509000000E+03 0.  0.
         25    1    3    3    0    0 -0.59466904105E+02  0.44158099205E+02  0.49281859333E+03  0.51381312210E+03  0.12509000000E+03 0.  0.
<mgrwt>
<rscale>  2 0.45183667E+03</rscale>
<asrwt>0</asrwt>
<pdfrwt beam="1">  1       21 0.39295169E+00 0.45183667E+03</pdfrwt>
<pdfrwt beam="2">  1       21 0.28089626E-02 0.45183667E+03</pdfrwt>
<totfact> 0.55011292E+03</totfact>
</mgrwt>
</event>
<event>
 7    0  0.4748297E-002  0.4579103E+03  0.7546771E-02  0.1025389E+00
         21   -1    0    0  502  501  0.00000000000E+00  0.00000000000E+00  0.55936608033E+03  0.55936608033E+03  0.00000000000E+00 0. -1.
         21   -1    0    0  501  502 -0.00000000000E+00 -0.00000000000E+00 -0.93714063095E+02  0.93714063095E+02  0.00000000000E+00 0. -1.
      99926    2    1    2    0    0  0.00000000000E+00  0.00000000000E+00  0.46565201723E+03  0.65308014342E+03  0.45791033247E+03 0.  0.
      99925    2    3    3    0    0 -0.71246645824E+02 -0.89176224662E+02  0.32036656763E+03  0.42995718730E+03  0.26305885589E+03 0.  0.
         25    1    3    3    0    0  0.71246645824E+02  0.89176224662E+02  0.14528544960E+03  0.22312295613E+03  0.12509000000E+03 0.  0.
         25    1    4    4    0    0 -0.71856660178E+02 -0.69350167748E+02  0.17534033511E+03  0.23741222925E+03  0.12509000000E+03 0.  0.
         25    1    4    4    0    0  0.61001435406E+00 -0.19826056914E+02  0.14502623252E+03  0.19254495805E+03  0.12509000000E+03 0.  0.
<mgrwt>
<rscale>  2 0.45791033E+03</rscale>
<asrwt>0</asrwt>
<pdfrwt beam="1">  1       21 0.82259716E-01 0.45791033E+03</pdfrwt>
<pdfrwt beam="2">  1       21 0.13781480E-01 0.45791033E+03</pdfrwt>
<totfact> 0.54267757E+04</totfact>
</mgrwt>
</event>
<event>
 7    0  0.4748297E-002  0.4532921E+03  0.7546771E-02  0.1026745E+00
         21   -1    0    0  502  501  0.00000000000E+00  0.00000000000E+00  0.62073930490E+03  0.62073930490E+03  0.00000000000E+00 0.  1.
         21   -1    0    0  501  502 -0.00000000000E+00 -0.00000000000E+00 -0.82753643812E+02  0.82753643812E+02  0.00000000000E+00 0.  1.
      99926    2    1    2    0    0  0.14210854715E-13 -0.35527136788E-14  0.53798566109E+03  0.70349294871E+03  0.45329213246E+03 0.  0.
      99925    2    3    3    0    0 -0.10601318681E+03  0.25339258802E+02  0.37505704906E+03  0.47095453354E+03  0.26315301403E+03 0.  0.
         25    1    4    4    0    0 -0.69620490329E+02 -0.24240773516E+02  0.20111208319E+03  0.24804879738E+03  0.12509000000E+03 0.  0.
         25    1    3    3    0    0  0.10601318681E+03 -0.25339258802E+02  0.16292861202E+03  0.23253841517E+03  0.12509000000E+03 0.  0.
         25    1    4    4    0    0 -0.36392696483E+02  0.49580032318E+02  0.17394496587E+03  0.22290573616E+03  0.12509000000E+03 0.  0.
<mgrwt>
<rscale>  2 0.45329213E+03</rscale>
<asrwt>0</asrwt>
<pdfrwt beam="1">  1       21 0.91285190E-01 0.45329213E+03</pdfrwt>
<pdfrwt beam="2">  1       21 0.12169654E-01 0.45329213E+03</pdfrwt>
<totfact> 0.53428140E+04</totfact>
</mgrwt>
</event>
<event>
 7    0  0.4748297E-002  0.4486070E+03  0.7546771E-02  0.1028138E+00
         21   -1    0    0  502  501  0.00000000000E+00  0.00000000000E+00  0.65091679869E+03  0.65091679869E+03  0.00000000000E+00 0. -1.
         21   -1    0    0  501  502 -0.00000000000E+00 -0.00000000000E+00 -0.77294141243E+02  0.77294141243E+02  0.00000000000E+00 0. -1.
      99926    2    1    2    0    0  0.00000000000E+00  0.00000000000E+00  0.57362265745E+03  0.72821093994E+03  0.44860697710E+03 0.  0.
      99925    2    3    3    0    0 -0.10711446103E+03 -0.24958460462E+01  0.35950991179E+03  0.45807854098E+03  0.26288559494E+03 0.  0.
         25    1    4    4    0    0 -0.96598623213E+02 -0.20642125125E+01  0.21059482301E+03  0.26331206307E+03  0.12509000000E+03 0.  0.
         25    1    3    3    0    0  0.10711446103E+03  0.24958460462E+01  0.21411274566E+03  0.27013239896E+03  0.12509000000E+03 0.  0.
         25    1    4    4    0    0 -0.10515837820E+02 -0.43163353370E+00  0.14891508878E+03  0.19476647791E+03  0.12509000000E+03 0.  0.
<mgrwt>
<rscale>  2 0.44860698E+03</rscale>
<asrwt>0</asrwt>
<pdfrwt beam="1">  1       21 0.95723055E-01 0.44860698E+03</pdfrwt>
<pdfrwt beam="2">  1       21 0.11366786E-01 0.44860698E+03</pdfrwt>
<totfact> 0.54065158E+04</totfact>
</mgrwt>
</event>
<event>
 7    0  0.4748297E-002  0.4581452E+03  0.7546771E-02  0.1025321E+00
         21   -1    0    0  502  501  0.00000000000E+00  0.00000000000E+00  0.14621587623E+03  0.14621587623E+03  0.00000000000E+00 0. -1.
         21   -1    0    0  501  502 -0.00000000000E+00 -0.00000000000E+00 -0.35888211611E+03  0.35888211611E+03  0.00000000000E+00 0. -1.
      99926    2    1    2    0    0  0.00000000000E+00 -0.88817841970E-15 -0.21266623987E+03  0.50509799234E+03  0.45814523056E+03 0.  0.
      99925    2    3    3    0    0  0.27196126922E+02 -0.75270917683E+01 -0.25723032032E+03  0.36934177040E+03  0.26353295665E+03 0.  0.
         25    1    4    4    0    0  0.15436335477E+02  0.70065387167E+01 -0.18416497316E+03  0.22327475781E+03  0.12509000000E+03 0.  0.
         25    1    3    3    0    0 -0.27196126922E+02  0.75270917683E+01  0.44564080442E+02  0.13575622194E+03  0.12509000000E+03 0.  0.
         25    1    4    4    0    0  0.11759791445E+02 -0.14533630485E+02 -0.73065347156E+02  0.14606701258E+03  0.12509000000E+03 0.  0.
<mgrwt>
<rscale>  2 0.45814523E+03</rscale>
<asrwt>0</asrwt>
<pdfrwt beam="1">  1       21 0.21502335E-01 0.45814523E+03</pdfrwt>
<pdfrwt beam="2">  1       21 0.52776780E-01 0.45814523E+03</pdfrwt>
<totfact> 0.63318376E+04</totfact>
</mgrwt>
</event>
<event>
 7    0  0.4748297E-002  0.4419150E+03  0.7546771E-02  0.1030161E+00
         21   -1    0    0  502  501  0.00000000000E+00  0.00000000000E+00  0.20423763504E+03  0.20423763504E+03  0.00000000000E+00 0.  1.
         21   -1    0    0  501  502 -0.00000000000E+00 -0.00000000000E+00 -0.23904616491E+03  0.23904616491E+03  0.00000000000E+00 0.  1.
      99926    2    1    2    0    0  0.00000000000E+00  0.00000000000E+00 -0.34808529872E+02  0.44328379995E+03  0.44191502978E+03 0.  0.
      99925    2    3    3    0    0  0.35988046900E+02  0.92524004712E+02 -0.82621976336E+01  0.28139480458E+03  0.26317093526E+03 0.  0.
         25    1    4    4    0    0  0.35222844268E+02  0.53704320721E+02 -0.40843791517E+02  0.14642583866E+03  0.12509000000E+03 0.  0.
         25    1    4    4    0    0  0.76520263233E+00  0.38819683991E+02  0.32581593884E+02  0.13496896592E+03  0.12509000000E+03 0.  0.
         25    1    3    3    0    0 -0.35988046900E+02 -0.92524004712E+02 -0.26546332239E+02  0.16188899537E+03  0.12509000000E+03 0.  0.
<mgrwt>
<rscale>  2 0.44191503E+03</rscale>
<asrwt>0</asrwt>
<pdfrwt beam="1">  1       21 0.30034947E-01 0.44191503E+03</pdfrwt>
<pdfrwt beam="2">  1       21 0.35153847E-01 0.44191503E+03</pdfrwt>
<totfact> 0.77159097E+04</totfact>
</mgrwt>
</event>
<event>
 7    0  0.4748297E-002  0.4577930E+03  0.7546771E-02  0.1025423E+00
         21   -1    0    0  502  501  0.00000000000E+00  0.00000000000E+00  0.26508623234E+03  0.26508623234E+03  0.00000000000E+00 0.  1.
         21   -1    0    0  501  502 -0.00000000000E+00 -0.00000000000E+00 -0.19764741719E+03  0.19764741719E+03  0.00000000000E+00 0.  1.
      99926    2    1    2    0    0 -0.88817841970E-15  0.00000000000E+00  0.67438815150E+02  0.46273364953E+03  0.45779300630E+03 0.  0.
      99925    2    3    3    0    0 -0.68050872101E+01 -0.10293763051E+03 -0.11241728713E+02  0.28250989674E+03  0.26276034767E+03 0.  0.
         25    1    4    4    0    0 -0.13917196354E+02 -0.14909988276E+02 -0.23476771178E+02  0.12889787814E+03  0.12509000000E+03 0.  0.
         25    1    4    4    0    0  0.71121091444E+01 -0.88027642236E+02  0.12235042465E+02  0.15361201860E+03  0.12509000000E+03 0.  0.
         25    1    3    3    0    0  0.68050872101E+01  0.10293763051E+03  0.78680543863E+02  0.18022375279E+03  0.12509000000E+03 0.  0.
<mgrwt>
<rscale>  2 0.45779301E+03</rscale>
<asrwt>0</asrwt>
<pdfrwt beam="1">  1       21 0.38983269E-01 0.45779301E+03</pdfrwt>
<pdfrwt beam="2">  1       21 0.29065797E-01 0.45779301E+03</pdfrwt>
<totfact> 0.66488500E+04</totfact>
</mgrwt>
</event>
<event>
 7    0  0.4748297E-002  0.4598707E+03  0.7546771E-02  0.1024819E+00
         21   -1    0    0  502  501  0.00000000000E+00  0.00000000000E+00  0.14601078201E+03  0.14601078201E+03  0.00000000000E+00 0. -1.
         21   -1    0    0  501  502 -0.00000000000E+00 -0.00000000000E+00 -0.36209841385E+03  0.36209841385E+03  0.00000000000E+00 0. -1.
      99926    2    1    2    0    0  0.00000000000E+00  0.00000000000E+00 -0.21608763184E+03  0.50810919585E+03  0.45987073214E+03 0.  0.
      99925    2    3    3    0    0  0.28087418800E+02 -0.99273554655E+02 -0.73303097412E+02  0.29205579245E+03  0.26320923249E+03 0.  0.
         25    1    4    4    0    0  0.52688007060E+02 -0.54605640937E+02 -0.24033838032E+02  0.14826643444E+03  0.12509000000E+03 0.  0.
         25    1    3    3    0    0 -0.28087418800E+02  0.99273554655E+02 -0.14278453443E+03  0.21605340340E+03  0.12509000000E+03 0.  0.
         25    1    4    4    0    0 -0.24600588260E+02 -0.44667913718E+02 -0.49269259380E+02  0.14378935802E+03  0.12509000000E+03 0.  0.
<mgrwt>
<rscale>  2 0.45987073E+03</rscale>
<asrwt>0</asrwt>
<pdfrwt beam="1">  1       21 0.21472174E-01 0.45987073E+03</pdfrwt>
<pdfrwt beam="2">  1       21 0.53249766E-01 0.45987073E+03</pdfrwt>
<totfact> 0.62262522E+04</totfact>
</mgrwt>
</event>
<event>
 7    0  0.4748297E-002  0.4540301E+03  0.7546771E-02  0.1026527E+00
         21   -1    0    0  502  501  0.00000000000E+00  0.00000000000E+00  0.18916887008E+03  0.18916887008E+03  0.00000000000E+00 0. -1.
         21   -1    0    0  501  502 -0.00000000000E+00 -0.00000000000E+00 -0.27243294211E+03  0.27243294211E+03  0.00000000000E+00 0. -1.
      99926    2    1    2    0    0  0.00000000000E+00  0.00000000000E+00 -0.83264072031E+02  0.46160181218E+03  0.45403009517E+03 0.  0.
      99925    2    3    3    0    0 -0.11695270249E+02 -0.50089999059E+02  0.48974467491E+02  0.27244492813E+03  0.26302462440E+03 0.  0.
         25    1    4    4    0    0  0.12415986422E+02 -0.78100571949E+01 -0.89278255017E+01  0.12626308994E+03  0.12509000000E+03 0.  0.
         25    1    4    4    0    0 -0.24111256672E+02 -0.42279941864E+02  0.57902292993E+02  0.14618183819E+03  0.12509000000E+03 0.  0.
         25    1    3    3    0    0  0.11695270249E+02  0.50089999059E+02 -0.13223853952E+03  0.18915688406E+03  0.12509000000E+03 0.  0.
<mgrwt>
<rscale>  2 0.45403010E+03</rscale>
<asrwt>0</asrwt>
<pdfrwt beam="1">  1       21 0.27818952E-01 0.45403010E+03</pdfrwt>
<pdfrwt beam="2">  1       21 0.40063668E-01 0.45403010E+03</pdfrwt>
<totfact> 0.68590450E+04</totfact>
</mgrwt>
</event>
<event>
 7    0  0.4748297E-002  0.4521814E+03  0.7546771E-02  0.1027074E+00
         21   -1    0    0  502  501  0.00000000000E+00  0.00000000000E+00  0.14042408717E+03  0.14042408717E+03  0.00000000000E+00 0. -1.
         21   -1    0    0  501  502 -0.00000000000E+00 -0.00000000000E+00 -0.36401884621E+03  0.36401884621E+03  0.00000000000E+00 0. -1.
      99926    2    1    2    0    0  0.35527136788E-14  0.00000000000E+00 -0.22359475904E+03  0.50444293338E+03  0.45218144230E+03 0.  0.
      99925    2    3    3    0    0 -0.31920208078E+02 -0.70015828406E+02 -0.52654402262E+02  0.27907827424E+03  0.26304197605E+03 0.  0.
         25    1    3    3    0    0  0.31920208078E+02  0.70015828406E+02 -0.17094035678E+03  0.22536465913E+03  0.12509000000E+03 0.  0.
         25    1    4    4    0    0 -0.12191335441E+02 -0.76478329948E+02 -0.23793452956E+02  0.14903422464E+03  0.12509000000E+03 0.  0.
         25    1    4    4    0    0 -0.19728872637E+02  0.64625015423E+01 -0.28860949306E+02  0.13004404960E+03  0.12509000000E+03 0.  0.
<mgrwt>
<rscale>  2 0.45218144E+03</rscale>
<asrwt>0</asrwt>
<pdfrwt beam="1">  1       21 0.20650601E-01 0.45218144E+03</pdfrwt>
<pdfrwt beam="2">  1       21 0.53532183E-01 0.45218144E+03</pdfrwt>
<totfact> 0.66433446E+04</totfact>
</mgrwt>
</event>
<event>
 7    0  0.4748297E-002  0.4546474E+03  0.7546771E-02  0.1026345E+00
         21   -1    0    0  502  501  0.00000000000E+00  0.00000000000E+00  0.58645993234E+02  0.58645993234E+02  0.00000000000E+00 0.  1.
         21   -1    0    0  501  502 -0.00000000000E+00 -0.00000000000E+00 -0.88115240029E+03  0.88115240029E+03  0.00000000000E+00 0.  1.
      99926    2    1    2    0    0 -0.14210854715E-13  0.00000000000E+00 -0.82250640705E+03  0.93979839352E+03  0.45464736975E+03 0.  0.
      99925    2    3    3    0    0  0.10846619718E+03  0.29685885818E+02 -0.49937872090E+03  0.57551117523E+03  0.26303581161E+03 0.  0.
         25    1    4    4    0    0  0.90729046640E+02  0.61093516580E+01 -0.31292274112E+03  0.34905190745E+03  0.12509000000E+03 0.  0.
         25    1    3    3    0    0 -0.10846619718E+03 -0.29685885818E+02 -0.32312768616E+03  0.36428721829E+03  0.12509000000E+03 0.  0.
         25    1    4    4    0    0  0.17737150537E+02  0.23576534160E+02 -0.18645597977E+03  0.22645926778E+03  0.12509000000E+03 0.  0.
<mgrwt>
<rscale>  2 0.45464737E+03</rscale>
<asrwt>0</asrwt>
<pdfrwt beam="1">  1       21 0.86244108E-02 0.45464737E+03</pdfrwt>
<pdfrwt beam="2">  1       21 0.12958123E+00 0.45464737E+03</pdfrwt>
<totfact> 0.41671480E+04</totfact>
</mgrwt>
</event>
<event>
 7    0  0.4748297E-002  0.4527891E+03  0.7546771E-02  0.1026894E+00
         21   -1    0    0  502  501  0.00000000000E+00  0.00000000000E+00  0.12481093808E+04  0.12481093808E+04  0.00000000000E+00 0.  1.
         21   -1    0    0  501  502 -0.00000000000E+00 -0.00000000000E+00 -0.41065712995E+02  0.41065712995E+02  0.00000000000E+00 0.  1.
      99926    2    1    2    0    0 -0.14210854715E-13  0.00000000000E+00  0.12070436678E+04  0.12891750938E+04  0.45278914129E+03 0.  0.
      99925    2    3    3    0    0 -0.75426800472E+02 -0.15171494923E+02  0.98917195227E+03  0.10264300291E+04  0.26301725610E+03 0.  0.
         25    1    4    4    0    0 -0.68306162335E+02  0.13949518885E+02  0.45584792091E+03  0.47781288805E+03  0.12509000000E+03 0.  0.
         25    1    4    4    0    0 -0.71206381371E+01 -0.29121013809E+02  0.53332403136E+03  0.54861714105E+03  0.12509000000E+03 0.  0.
         25    1    3    3    0    0  0.75426800472E+02  0.15171494923E+02  0.21787171553E+03  0.26274506469E+03  0.12509000000E+03 0.  0.
<mgrwt>
<rscale>  2 0.45278914E+03</rscale>
<asrwt>0</asrwt>
<pdfrwt beam="1">  1       21 0.18354547E+00 0.45278914E+03</pdfrwt>
<pdfrwt beam="2">  1       21 0.60390762E-02 0.45278914E+03</pdfrwt>
<totfact> 0.29942317E+04</totfact>
</mgrwt>
</event>
<event>
 7    0  0.4748297E-002  0.4516989E+03  0.7546771E-02  0.1027217E+00
         21   -1    0    0  502  501  0.00000000000E+00  0.00000000000E+00  0.33395985454E+03  0.33395985454E+03  0.00000000000E+00 0.  1.
         21   -1    0    0  501  502 -0.00000000000E+00 -0.00000000000E+00 -0.15273683199E+03  0.15273683199E+03  0.00000000000E+00 0.  1.
      99926    2    1    2    0    0  0.35527136788E-14  0.00000000000E+00  0.18122302254E+03  0.48669668653E+03  0.45169888286E+03 0.  0.
      99925    2    3    3    0    0  0.31508729426E+02  0.91451198418E+02  0.57860230418E+02  0.28614243376E+03  0.26300867745E+03 0.  0.
         25    1    3    3    0    0 -0.31508729426E+02 -0.91451198418E+02  0.12336279213E+03  0.20055425277E+03  0.12509000000E+03 0.  0.
         25    1    4    4    0    0  0.64324919231E+01  0.16400360489E+02  0.55830154360E+02  0.13811177724E+03  0.12509000000E+03 0.  0.
         25    1    4    4    0    0  0.25076237503E+02  0.75050837929E+02  0.20300760580E+01  0.14803065652E+03  0.12509000000E+03 0.  0.
<mgrwt>
<rscale>  2 0.45169888E+03</rscale>
<asrwt>0</asrwt>
<pdfrwt beam="1">  1       21 0.49111743E-01 0.45169888E+03</pdfrwt>
<pdfrwt beam="2">  1       21 0.22461299E-01 0.45169888E+03</pdfrwt>
<totfact> 0.67979884E+04</totfact>
</mgrwt>
</event>
<event>
 7    0  0.4748297E-002  0.4460463E+03  0.7546771E-02  0.1028908E+00
         21   -1    0    0  502  501  0.00000000000E+00  0.00000000000E+00  0.18771315477E+03  0.18771315477E+03  0.00000000000E+00 0.  1.
         21   -1    0    0  501  502 -0.00000000000E+00 -0.00000000000E+00 -0.26497519508E+03  0.26497519508E+03  0.00000000000E+00 0.  1.
      99926    2    1    2    0    0  0.00000000000E+00  0.35527136788E-14 -0.77262040316E+02  0.45268834985E+03  0.44604631959E+03 0.  0.
      99925    2    3    3    0    0  0.63095270387E+02  0.27088468670E+02  0.30941239626E+02  0.27360664735E+03  0.26303695346E+03 0.  0.
         25    1    3    3    0    0 -0.63095270387E+02 -0.27088468670E+02 -0.10820327994E+03  0.17908170250E+03  0.12509000000E+03 0.  0.
         25    1    4    4    0    0  0.53796358583E+02  0.48534662784E+02  0.18727054186E+02  0.14576649940E+03  0.12509000000E+03 0.  0.
         25    1    4    4    0    0  0.92989118045E+01 -0.21446194114E+02  0.12214185440E+02  0.12784014795E+03  0.12509000000E+03 0.  0.
<mgrwt>
<rscale>  2 0.44604632E+03</rscale>
<asrwt>0</asrwt>
<pdfrwt beam="1">  1       21 0.27604876E-01 0.44604632E+03</pdfrwt>
<pdfrwt beam="2">  1       21 0.38966941E-01 0.44604632E+03</pdfrwt>
<totfact> 0.73850309E+04</totfact>
</mgrwt>
</event>
<event>
 7    0  0.4748297E-002  0.4408110E+03  0.7546771E-02  0.1030498E+00
         21   -1    0    0  502  501  0.00000000000E+00  0.00000000000E+00  0.90717397947E+03  0.90717397947E+03  0.00000000000E+00 0.  1.
         21   -1    0    0  501  502 -0.00000000000E+00 -0.00000000000E+00 -0.53549364468E+02  0.53549364468E+02  0.00000000000E+00 0.  1.
      99926    2    1    2    0    0  0.00000000000E+00  0.00000000000E+00  0.85362461501E+03  0.96072334394E+03  0.44081102555E+03 0.  0.
      99925    2    3    3    0    0 -0.20342901168E+02 -0.93827955733E+02  0.60080653499E+03  0.66276024456E+03  0.26280245507E+03 0.  0.
         25    1    4    4    0    0 -0.45975670344E+02 -0.59908512307E+02  0.28050254594E+03  0.31627832441E+03  0.12509000000E+03 0.  0.
         25    1    3    3    0    0  0.20342901168E+02  0.93827955733E+02  0.25281808002E+03  0.29796309938E+03  0.12509000000E+03 0.  0.
         25    1    4    4    0    0  0.25632769175E+02 -0.33919443426E+02  0.32030398905E+03  0.34648192016E+03  0.12509000000E+03 0.  0.
<mgrwt>
<rscale>  2 0.44081103E+03</rscale>
<asrwt>0</asrwt>
<pdfrwt beam="1">  1       21 0.13340793E+00 0.44081103E+03</pdfrwt>
<pdfrwt beam="2">  1       21 0.78749071E-02 0.44081103E+03</pdfrwt>
<totfact> 0.45557656E+04</totfact>
</mgrwt>
</event>
<event>
 7    0  0.4748297E-002  0.4530691E+03  0.7546771E-02  0.1026811E+00
         21   -1    0    0  502  501  0.00000000000E+00  0.00000000000E+00  0.33611171215E+02  0.33611171215E+02  0.00000000000E+00 0. -1.
         21   -1    0    0  501  502 -0.00000000000E+00 -0.00000000000E+00 -0.15268110879E+04  0.15268110879E+04  0.00000000000E+00 0. -1.
      99926    2    1    2    0    0  0.00000000000E+00  0.00000000000E+00 -0.14931999167E+04  0.15604222592E+04  0.45306912890E+03 0.  0.
      99925    2    3    3    0    0 -0.65722457227E+02  0.54797939018E+02 -0.69560023491E+03  0.74855095406E+03  0.26295738916E+03 0.  0.
         25    1    4    4    0    0 -0.20611273722E+02  0.35576000478E+02 -0.44669725775E+03  0.46569992978E+03  0.12509000000E+03 0.  0.
         25    1    3    3    0    0  0.65722457227E+02 -0.54797939018E+02 -0.79759968181E+03  0.81187130509E+03  0.12509000000E+03 0.  0.
         25    1    4    4    0    0 -0.45111183505E+02  0.19221938540E+02 -0.24890297716E+03  0.28285102429E+03  0.12509000000E+03 0.  0.
<mgrwt>
<rscale>  2 0.45306913E+03</rscale>
<asrwt>0</asrwt>
<pdfrwt beam="1">  1       21 0.49428182E-02 0.45306913E+03</pdfrwt>
<pdfrwt beam="2">  1       21 0.22453109E+00 0.45306913E+03</pdfrwt>
<totfact> 0.22674498E+04</totfact>
</mgrwt>
</event>
<event>
 7    0  0.4748297E-002  0.4483153E+03  0.7546771E-02  0.1028226E+00
         21   -1    0    0  502  501  0.00000000000E+00  0.00000000000E+00  0.44257208860E+02  0.44257208860E+02  0.00000000000E+00 0.  1.
         21   -1    0    0  501  502 -0.00000000000E+00 -0.00000000000E+00 -0.11353326657E+04  0.11353326657E+04  0.00000000000E+00 0.  1.
      99926    2    1    2    0    0  0.00000000000E+00  0.00000000000E+00 -0.10910754568E+04  0.11795898746E+04  0.44831531275E+03 0.  0.
      99925    2    3    3    0    0 -0.32160039197E+02 -0.70878821613E+02 -0.88248378576E+03  0.92421550462E+03  0.26332221970E+03 0.  0.
         25    1    3    3    0    0  0.32160039197E+02  0.70878821613E+02 -0.20859167107E+03  0.25537436993E+03  0.12509000000E+03 0.  0.
         25    1    4    4    0    0  0.88812882903E+01 -0.51031012969E+02 -0.34826857571E+03  0.37365967202E+03  0.12509000000E+03 0.  0.
         25    1    4    4    0    0 -0.41041327487E+02 -0.19847808644E+02 -0.53421521004E+03  0.55055583260E+03  0.12509000000E+03 0.  0.
<mgrwt>
<rscale>  2 0.44831531E+03</rscale>
<asrwt>0</asrwt>
<pdfrwt beam="1">  1       21 0.65084132E-02 0.44831531E+03</pdfrwt>
<pdfrwt beam="2">  1       21 0.16696068E+00 0.44831531E+03</pdfrwt>
<totfact> 0.34575642E+04</totfact>
</mgrwt>
</event>
<event>
 7    0  0.4748297E-002  0.4523569E+03  0.7546771E-02  0.1027022E+00
         21   -1    0    0  502  501  0.00000000000E+00  0.00000000000E+00  0.82547150671E+03  0.82547150671E+03  0.00000000000E+00 0.  1.
         21   -1    0    0  501  502 -0.00000000000E+00 -0.00000000000E+00 -0.61972681811E+02  0.61972681811E+02  0.00000000000E+00 0.  1.
      99926    2    1    2    0    0  0.00000000000E+00  0.00000000000E+00  0.76349882490E+03  0.88744418852E+03  0.45235686368E+03 0.  0.
      99925    2    3    3    0    0  0.77868914810E+02 -0.67164215434E+02  0.55971340417E+03  0.62715472364E+03  0.26357039447E+03 0.  0.
         25    1    4    4    0    0  0.10987385043E+02  0.93009099395E+00  0.24802869297E+03  0.27800598615E+03  0.12509000000E+03 0.  0.
         25    1    4    4    0    0  0.66881529767E+02 -0.68094306428E+02  0.31168471120E+03  0.34914873749E+03  0.12509000000E+03 0.  0.
         25    1    3    3    0    0 -0.77868914810E+02  0.67164215434E+02  0.20378542072E+03  0.26028946488E+03  0.12509000000E+03 0.  0.
<mgrwt>
<rscale>  2 0.45235686E+03</rscale>
<asrwt>0</asrwt>
<pdfrwt beam="1">  1       21 0.12139286E+00 0.45235686E+03</pdfrwt>
<pdfrwt beam="2">  1       21 0.91136301E-02 0.45235686E+03</pdfrwt>
<totfact> 0.44699054E+04</totfact>
</mgrwt>
</event>
<event>
 7    0  0.4748297E-002  0.4450870E+03  0.7546771E-02  0.1029197E+00
         21   -1    0    0  502  501  0.00000000000E+00  0.00000000000E+00  0.31531372026E+03  0.31531372026E+03  0.00000000000E+00 0.  1.
         21   -1    0    0  501  502 -0.00000000000E+00 -0.00000000000E+00 -0.15706773044E+03  0.15706773044E+03  0.00000000000E+00 0.  1.
      99926    2    1    2    0    0  0.00000000000E+00  0.00000000000E+00  0.15824598982E+03  0.47238145070E+03  0.44508700461E+03 0.  0.
      99925    2    3    3    0    0  0.71046670596E+02  0.54927324390E+02  0.15534511198E+03  0.31836663466E+03  0.26298397267E+03 0.  0.
         25    1    4    4    0    0  0.61182358931E+02  0.46358335706E+02  0.52405678736E+02  0.15584042992E+03  0.12509000000E+03 0.  0.
         25    1    4    4    0    0  0.98643116654E+01  0.85689886845E+01  0.10293943325E+03  0.16252620474E+03  0.12509000000E+03 0.  0.
         25    1    3    3    0    0 -0.71046670596E+02 -0.54927324390E+02  0.29008778353E+01  0.15401481604E+03  0.12509000000E+03 0.  0.
<mgrwt>
<rscale>  2 0.44508700E+03</rscale>
<asrwt>0</asrwt>
<pdfrwt beam="1">  1       21 0.46369665E-01 0.44508700E+03</pdfrwt>
<pdfrwt beam="2">  1       21 0.23098196E-01 0.44508700E+03</pdfrwt>
<totfact> 0.72822028E+04</totfact>
</mgrwt>
</event>
<event>
 7    0  0.4748297E-002  0.4550513E+03  0.7546771E-02  0.1026226E+00
         21   -1    0    0  502  501  0.00000000000E+00  0.00000000000E+00  0.48900942282E+03  0.48900942282E+03  0.00000000000E+00 0. -1.
         21   -1    0    0  501  502 -0.00000000000E+00 -0.00000000000E+00 -0.10586281612E+03  0.10586281612E+03  0.00000000000E+00 0. -1.
      99926    2    1    2    0    0  0.35527136788E-14 -0.35527136788E-14  0.38314660670E+03  0.59487223894E+03  0.45505127013E+03 0.  0.
      99925    2    3    3    0    0 -0.14937754550E+02  0.31732430914E+02  0.38189332584E+03  0.46495240791E+03  0.26288428180E+03 0.  0.
         25    1    4    4    0    0 -0.47764237538E+02  0.19399353147E+02  0.19349093338E+03  0.23610168718E+03  0.12509000000E+03 0.  0.
         25    1    4    4    0    0  0.32826482988E+02  0.12333077767E+02  0.18840239246E+03  0.22885072073E+03  0.12509000000E+03 0.  0.
         25    1    3    3    0    0  0.14937754550E+02 -0.31732430914E+02  0.12532808547E+01  0.12991983103E+03  0.12509000000E+03 0.  0.
<mgrwt>
<rscale>  2 0.45505127E+03</rscale>
<asrwt>0</asrwt>
<pdfrwt beam="1">  1       21 0.71913149E-01 0.45505127E+03</pdfrwt>
<pdfrwt beam="2">  1       21 0.15568061E-01 0.45505127E+03</pdfrwt>
<totfact> 0.58971112E+04</totfact>
</mgrwt>
</event>
<event>
 7    0  0.4748297E-002  0.4146640E+03  0.7546771E-02  0.1038817E+00
         21   -1    0    0  502  501  0.00000000000E+00  0.00000000000E+00  0.67026970776E+02  0.67026970776E+02  0.00000000000E+00 0. -1.
         21   -1    0    0  501  502 -0.00000000000E+00 -0.00000000000E+00 -0.64133214961E+03  0.64133214961E+03  0.00000000000E+00 0. -1.
      99926    2    1    2    0    0 -0.71054273576E-14  0.00000000000E+00 -0.57430517883E+03  0.70835912039E+03  0.41466396636E+03 0.  0.
      99925    2    3    3    0    0  0.35568646028E+02  0.28323970440E+02 -0.46487979716E+03  0.53605474396E+03  0.26300967060E+03 0.  0.
         25    1    3    3    0    0 -0.35568646028E+02 -0.28323970440E+02 -0.10942538168E+03  0.17230437643E+03  0.12509000000E+03 0.  0.
         25    1    4    4    0    0 -0.51347191957E+01  0.32106995750E+02 -0.28724330196E+03  0.31498166159E+03  0.12509000000E+03 0.  0.
         25    1    4    4    0    0  0.40703365224E+02 -0.37830253093E+01 -0.17763649520E+03  0.22107308237E+03  0.12509000000E+03 0.  0.
<mgrwt>
<rscale>  2 0.41466397E+03</rscale>
<asrwt>0</asrwt>
<pdfrwt beam="1">  1       21 0.98569068E-02 0.41466397E+03</pdfrwt>
<pdfrwt beam="2">  1       21 0.94313558E-01 0.41466397E+03</pdfrwt>
<totfact> 0.73006281E+04</totfact>
</mgrwt>
</event>
<event>
 7    0  0.4748297E-002  0.4525390E+03  0.7546771E-02  0.1026968E+00
         21   -1    0    0  502  501  0.00000000000E+00  0.00000000000E+00  0.26064072364E+04  0.26064072364E+04  0.00000000000E+00 0.  1.
         21   -1    0    0  501  502 -0.00000000000E+00 -0.00000000000E+00 -0.19643084830E+02  0.19643084830E+02  0.00000000000E+00 0.  1.
      99926    2    1    2    0    0  0.00000000000E+00 -0.14210854715E-13  0.25867641515E+04  0.26260503212E+04  0.45253896383E+03 0.  0.
      99925    2    3    3    0    0  0.60642280859E+02 -0.71865433785E+02  0.12903613818E+04  0.13202364844E+04  0.26296340503E+03 0.  0.
         25    1    4    4    0    0 -0.15737828681E+01 -0.19021473717E+02  0.69488732213E+03  0.70631451338E+03  0.12509000000E+03 0.  0.
         25    1    3    3    0    0 -0.60642280859E+02  0.71865433785E+02  0.12964027697E+04  0.13058138368E+04  0.12509000000E+03 0.  0.
         25    1    4    4    0    0  0.62216063727E+02 -0.52843960068E+02  0.59547405967E+03  0.61392197105E+03  0.12509000000E+03 0.  0.
<mgrwt>
<rscale>  2 0.45253896E+03</rscale>
<asrwt>0</asrwt>
<pdfrwt beam="1">  1       21 0.38329494E+00 0.45253896E+03</pdfrwt>
<pdfrwt beam="2">  1       21 0.28886907E-02 0.45253896E+03</pdfrwt>
<totfact> 0.60410012E+03</totfact>
</mgrwt>
</event>
<event>
 7    0  0.4748297E-002  0.4574887E+03  0.7546771E-02  0.1025512E+00
         21   -1    0    0  502  501  0.00000000000E+00  0.00000000000E+00  0.15952054553E+03  0.15952054553E+03  0.00000000000E+00 0.  1.
         21   -1    0    0  501  502 -0.00000000000E+00 -0.00000000000E+00 -0.32800782404E+03  0.32800782404E+03  0.00000000000E+00 0.  1.
      99926    2    1    2    0    0  0.35527136788E-14  0.00000000000E+00 -0.16848727851E+03  0.48752836957E+03  0.45748874097E+03 0.  0.
      99925    2    3    3    0    0  0.31418852954E+02 -0.96740586229E+02 -0.47735171962E+02  0.28609732757E+03  0.26311052593E+03 0.  0.
         25    1    4    4    0    0  0.10382812616E+02 -0.15655206703E+02 -0.48705549465E+02  0.13554566368E+03  0.12509000000E+03 0.  0.
         25    1    3    3    0    0 -0.31418852954E+02  0.96740586229E+02 -0.12075210655E+03  0.20143104200E+03  0.12509000000E+03 0.  0.
         25    1    4    4    0    0  0.21036040338E+02 -0.81085379526E+02  0.97037750300E+00  0.15055166388E+03  0.12509000000E+03 0.  0.
<mgrwt>
<rscale>  2 0.45748874E+03</rscale>
<asrwt>0</asrwt>
<pdfrwt beam="1">  1       21 0.23458904E-01 0.45748874E+03</pdfrwt>
<pdfrwt beam="2">  1       21 0.48236443E-01 0.45748874E+03</pdfrwt>
<totfact> 0.64865014E+04</totfact>
</mgrwt>
</event>
<event>
 7    0  0.4748297E-002  0.4471483E+03  0.7546771E-02  0.1028576E+00
         21   -1    0    0  502  501  0.00000000000E+00  0.00000000000E+00  0.10152963653E+03  0.10152963653E+03  0.00000000000E+00 0.  1.
         21   -1    0    0  501  502 -0.00000000000E+00 -0.00000000000E+00 -0.49232320325E+03  0.49232320325E+03  0.00000000000E+00 0.  1.
      99926    2    1    2    0    0  0.00000000000E+00 -0.44408920985E-15 -0.39079356672E+03  0.59385283978E+03  0.44714827912E+03 0.  0.
      99925    2    3    3    0    0 -0.99971394939E+02 -0.28828411266E+01 -0.29290720010E+03  0.40615137615E+03  0.26298616293E+03 0.  0.
         25    1    3    3    0    0  0.99971394939E+02  0.28828411266E+01 -0.97886366616E+02  0.18770146363E+03  0.12509000000E+03 0.  0.
         25    1    4    4    0    0 -0.50660886267E+02  0.11485480120E+02 -0.91118959814E+02  0.16324403385E+03  0.12509000000E+03 0.  0.
         25    1    4    4    0    0 -0.49310508672E+02 -0.14368321246E+02 -0.20178824029E+03  0.24290734229E+03  0.12509000000E+03 0.  0.
<mgrwt>
<rscale>  2 0.44714828E+03</rscale>
<asrwt>0</asrwt>
<pdfrwt beam="1">  1       21 0.14930829E-01 0.44714828E+03</pdfrwt>
<pdfrwt beam="2">  1       21 0.72400470E-01 0.44714828E+03</pdfrwt>
<totfact> 0.62869247E+04</totfact>
</mgrwt>
</event>
<event>
 7    0  0.4748297E-002  0.4444977E+03  0.7546771E-02  0.1029376E+00
         21   -1    0    0  502  501  0.00000000000E+00  0.00000000000E+00  0.32936975438E+03  0.32936975438E+03  0.00000000000E+00 0.  1.
         21   -1    0    0  501  502 -0.00000000000E+00 -0.00000000000E+00 -0.14996688159E+03  0.14996688159E+03  0.00000000000E+00 0.  1.
      99926    2    1    2    0    0 -0.14016565686E-14  0.00000000000E+00  0.17940287279E+03  0.47933663596E+03  0.44449771631E+03 0.  0.
      99925    2    3    3    0    0 -0.90813399385E-01  0.35101867575E+02  0.95247807525E+01  0.26547167013E+03  0.26296831908E+03 0.  0.
         25    1    4    4    0    0  0.31588918113E+02  0.42997323972E+02  0.67786696158E+01  0.13616199205E+03  0.12509000000E+03 0.  0.
         25    1    3    3    0    0  0.90813399385E-01 -0.35101867575E+02  0.16987809204E+03  0.21386496583E+03  0.12509000000E+03 0.  0.
         25    1    4    4    0    0 -0.31679731512E+02 -0.78954563970E+01  0.27461111367E+01  0.12930967809E+03  0.12509000000E+03 0.  0.
<mgrwt>
<rscale>  2 0.44449772E+03</rscale>
<asrwt>0</asrwt>
<pdfrwt beam="1">  1       21 0.48436729E-01 0.44449772E+03</pdfrwt>
<pdfrwt beam="2">  1       21 0.22053953E-01 0.44449772E+03</pdfrwt>
<totfact> 0.72616252E+04</totfact>
</mgrwt>
</event>
<event>
 7    0  0.4748297E-002  0.4504825E+03  0.7546771E-02  0.1027578E+00
         21   -1    0    0  502  501  0.00000000000E+00  0.00000000000E+00  0.62404126287E+03  0.62404126287E+03  0.00000000000E+00 0. -1.
         21   -1    0    0  501  502 -0.00000000000E+00 -0.00000000000E+00 -0.81298497383E+02  0.81298497383E+02  0.00000000000E+00 0. -1.
      99926    2    1    2    0    0  0.00000000000E+00 -0.17763568394E-14  0.54274276549E+03  0.70533976025E+03  0.45048248346E+03 0.  0.
      99925    2    3    3    0    0  0.10017628396E+03 -0.96196285879E+01  0.27778740528E+03  0.39553873358E+03  0.26297760762E+03 0.  0.
         25    1    4    4    0    0  0.43788834509E+02 -0.41301080875E+02  0.11476684285E+03  0.18011712197E+03  0.12509000000E+03 0.  0.
         25    1    4    4    0    0  0.56387449454E+02  0.31681452287E+02  0.16302056244E+03  0.21542161162E+03  0.12509000000E+03 0.  0.
         25    1    3    3    0    0 -0.10017628396E+03  0.96196285879E+01  0.26495536021E+03  0.30980102667E+03  0.12509000000E+03 0.  0.
<mgrwt>
<rscale>  2 0.45048248E+03</rscale>
<asrwt>0</asrwt>
<pdfrwt beam="1">  1       21 0.91770772E-01 0.45048248E+03</pdfrwt>
<pdfrwt beam="2">  1       21 0.11955662E-01 0.45048248E+03</pdfrwt>
<totfact> 0.54526526E+04</totfact>
</mgrwt>
</event>
<event>
 7    0  0.4748297E-002  0.4521657E+03  0.7546771E-02  0.1027078E+00
         21   -1    0    0  502  501  0.00000000000E+00  0.00000000000E+00  0.17960555629E+04  0.17960555629E+04  0.00000000000E+00 0. -1.
         21   -1    0    0  501  502 -0.00000000000E+00 -0.00000000000E+00 -0.28458722109E+02  0.28458722109E+02  0.00000000000E+00 0. -1.
      99926    2    1    2    0    0  0.35527136788E-14  0.00000000000E+00  0.17675968408E+04  0.18245142850E+04  0.45216566061E+03 0.  0.
      99925    2    3    3    0    0  0.19612346376E+02 -0.46430416903E+02  0.72444158897E+03  0.77267740828E+03  0.26395896214E+03 0.  0.
         25    1    3    3    0    0 -0.19612346376E+02  0.46430416903E+02  0.10431552519E+04  0.10518368768E+04  0.12509000000E+03 0.  0.
         25    1    4    4    0    0  0.47037873869E+01 -0.59192125152E+02  0.31466174406E+03  0.34378096889E+03  0.12509000000E+03 0.  0.
         25    1    4    4    0    0  0.14908558990E+02  0.12761708249E+02  0.40977984490E+03  0.42889643939E+03  0.12509000000E+03 0.  0.
<mgrwt>
<rscale>  2 0.45216566E+03</rscale>
<asrwt>0</asrwt>
<pdfrwt beam="1">  1       21 0.26412574E+00 0.45216566E+03</pdfrwt>
<pdfrwt beam="2">  1       21 0.41851074E-02 0.45216566E+03</pdfrwt>
<totfact> 0.17167729E+04</totfact>
</mgrwt>
</event>
<event>
 7    0  0.4748297E-002  0.4537272E+03  0.7546771E-02  0.1026616E+00
         21   -1    0    0  502  501  0.00000000000E+00  0.00000000000E+00  0.86623273843E+03  0.86623273843E+03  0.00000000000E+00 0. -1.
         21   -1    0    0  501  502 -0.00000000000E+00 -0.00000000000E+00 -0.59414865339E+02  0.59414865339E+02  0.00000000000E+00 0. -1.
      99926    2    1    2    0    0  0.35527136788E-14  0.00000000000E+00  0.80681787309E+03  0.92564760377E+03  0.45372723747E+03 0.  0.
      99925    2    3    3    0    0  0.31930918994E+02 -0.10669625836E+03  0.48485590404E+03  0.56272792567E+03  0.26300911678E+03 0.  0.
         25    1    3    3    0    0 -0.31930918994E+02  0.10669625836E+03  0.32196196905E+03  0.36291967810E+03  0.12509000000E+03 0.  0.
         25    1    4    4    0    0  0.24353952374E+02 -0.44104721340E+02  0.31437417691E+03  0.34207743663E+03  0.12509000000E+03 0.  0.
         25    1    4    4    0    0  0.75769666203E+01 -0.62591537022E+02  0.17048172713E+03  0.22065048904E+03  0.12509000000E+03 0.  0.
<mgrwt>
<rscale>  2 0.45372724E+03</rscale>
<asrwt>0</asrwt>
<pdfrwt beam="1">  1       21 0.12738716E+00 0.45372724E+03</pdfrwt>
<pdfrwt beam="2">  1       21 0.87374807E-02 0.45372724E+03</pdfrwt>
<totfact> 0.42565189E+04</totfact>
</mgrwt>
</event>
<event>
 7    0  0.4748297E-002  0.4500064E+03  0.7546771E-02  0.1027720E+00
         21   -1    0    0  502  501  0.00000000000E+00  0.00000000000E+00  0.46420215501E+03  0.46420215501E+03  0.00000000000E+00 0. -1.
         21   -1    0    0  501  502 -0.00000000000E+00 -0.00000000000E+00 -0.10906118576E+03  0.10906118576E+03  0.00000000000E+00 0. -1.
      99926    2    1    2    0    0  0.00000000000E+00  0.71054273576E-14  0.35514096925E+03  0.57326334078E+03  0.45000638866E+03 0.  0.
      99925    2    3    3    0    0  0.30792726479E+02 -0.57089327500E+02  0.33444399571E+03  0.43084404387E+03  0.26375447020E+03 0.  0.
         25    1    3    3    0    0 -0.30792726479E+02  0.57089327500E+02  0.20696973545E+02  0.14241929691E+03  0.12509000000E+03 0.  0.
         25    1    4    4    0    0 -0.24616572525E+02 -0.17311694857E+02  0.17146415164E+03  0.21436682071E+03  0.12509000000E+03 0.  0.
         25    1    4    4    0    0  0.55409299003E+02 -0.39777632644E+02  0.16297984407E+03  0.21647722316E+03  0.12509000000E+03 0.  0.
<mgrwt>
<rscale>  2 0.45000639E+03</rscale>
<asrwt>0</asrwt>
<pdfrwt beam="1">  1       21 0.68265022E-01 0.45000639E+03</pdfrwt>
<pdfrwt beam="2">  1       21 0.16038410E-01 0.45000639E+03</pdfrwt>
<totfact> 0.62797986E+04</totfact>
</mgrwt>
</event>
<event>
 7    0  0.4748297E-002  0.4486849E+03  0.7546771E-02  0.1028115E+00
         21   -1    0    0  502  501  0.00000000000E+00  0.00000000000E+00  0.93827421617E+02  0.93827421617E+02  0.00000000000E+00 0. -1.
         21   -1    0    0  501  502 -0.00000000000E+00 -0.00000000000E+00 -0.53640544628E+03  0.53640544628E+03  0.00000000000E+00 0. -1.
      99926    2    1    2    0    0 -0.14210854715E-13  0.00000000000E+00 -0.44257802466E+03  0.63023286789E+03  0.44868492270E+03 0.  0.
      99925    2    3    3    0    0  0.10167352789E+03  0.17317564131E+02 -0.23399655968E+03  0.36605274008E+03  0.26192138949E+03 0.  0.
         25    1    3    3    0    0 -0.10167352789E+03 -0.17317564131E+02 -0.20858146498E+03  0.26418012782E+03  0.12509000000E+03 0.  0.
         25    1    4    4    0    0  0.10367712342E+02  0.13282255845E+02 -0.11423293029E+03  0.17023682987E+03  0.12509000000E+03 0.  0.
         25    1    4    4    0    0  0.91305815552E+02  0.40353082859E+01 -0.11976362939E+03  0.19581591021E+03  0.12509000000E+03 0.  0.
<mgrwt>
<rscale>  2 0.44868492E+03</rscale>
<asrwt>0</asrwt>
<pdfrwt beam="1">  1       21 0.13798150E-01 0.44868492E+03</pdfrwt>
<pdfrwt beam="2">  1       21 0.78883155E-01 0.44868492E+03</pdfrwt>
<totfact> 0.59779577E+04</totfact>
</mgrwt>
</event>
<event>
 7    0  0.4748297E-002  0.4573525E+03  0.7546771E-02  0.1025552E+00
         21   -1    0    0  502  501  0.00000000000E+00  0.00000000000E+00  0.10127185291E+04  0.10127185291E+04  0.00000000000E+00 0. -1.
         21   -1    0    0  501  502 -0.00000000000E+00 -0.00000000000E+00 -0.51636086241E+02  0.51636086241E+02  0.00000000000E+00 0. -1.
      99926    2    1    2    0    0 -0.71054273576E-14  0.00000000000E+00  0.96108244281E+03  0.10643546153E+04  0.45735247372E+03 0.  0.
      99925    2    3    3    0    0 -0.36792362314E+02  0.43947790193E+02  0.37042818774E+03  0.45788528935E+03  0.26297682357E+03 0.  0.
         25    1    4    4    0    0 -0.28596241941E+02 -0.23670735082E+01  0.23414875992E+03  0.26701404076E+03  0.12509000000E+03 0.  0.
         25    1    4    4    0    0 -0.81961203734E+01  0.46314863701E+02  0.13627942782E+03  0.19087124859E+03  0.12509000000E+03 0.  0.
         25    1    3    3    0    0  0.36792362314E+02 -0.43947790193E+02  0.59065425507E+03  0.60646932595E+03  0.12509000000E+03 0.  0.
<mgrwt>
<rscale>  2 0.45735247E+03</rscale>
<asrwt>0</asrwt>
<pdfrwt beam="1">  1       21 0.14892918E+00 0.45735247E+03</pdfrwt>
<pdfrwt beam="2">  1       21 0.75935427E-02 0.45735247E+03</pdfrwt>
<totfact> 0.36087949E+04</totfact>
</mgrwt>
</event>
<event>
 7    0  0.4748297E-002  0.4349247E+03  0.7546771E-02  0.1032315E+00
         21   -1    0    0  502  501  0.00000000000E+00  0.00000000000E+00  0.40991927776E+03  0.40991927776E+03  0.00000000000E+00 0.  1.
         21   -1    0    0  501  502 -0.00000000000E+00 -0.00000000000E+00 -0.11536385687E+03  0.11536385687E+03  0.00000000000E+00 0.  1.
      99926    2    1    2    0    0  0.00000000000E+00 -0.35527136788E-14  0.29455542089E+03  0.52528313463E+03  0.43492467803E+03 0.  0.
      99925    2    3    3    0    0 -0.82865634677E+02 -0.23045801903E+02  0.23191291380E+03  0.36105946341E+03  0.26302569102E+03 0.  0.
         25    1    4    4    0    0 -0.67651378655E+02 -0.17345291318E+02  0.81759668444E+02  0.16495368941E+03  0.12509000000E+03 0.  0.
         25    1    3    3    0    0  0.82865634677E+02  0.23045801903E+02  0.62642507085E+02  0.16422367122E+03  0.12509000000E+03 0.  0.
         25    1    4    4    0    0 -0.15214256022E+02 -0.57005105856E+01  0.15015324536E+03  0.19610577401E+03  0.12509000000E+03 0.  0.
<mgrwt>
<rscale>  2 0.43492468E+03</rscale>
<asrwt>0</asrwt>
<pdfrwt beam="1">  1       21 0.60282246E-01 0.43492468E+03</pdfrwt>
<pdfrwt beam="2">  1       21 0.16965273E-01 0.43492468E+03</pdfrwt>
<totfact> 0.74715190E+04</totfact>
</mgrwt>
</event>
<event>
 7    0  0.4748297E-002  0.4584677E+03  0.7546771E-02  0.1025227E+00
         21   -1    0    0  502  501  0.00000000000E+00  0.00000000000E+00  0.10328037776E+04  0.10328037776E+04  0.00000000000E+00 0.  1.
         21   -1    0    0  501  502 -0.00000000000E+00 -0.00000000000E+00 -0.50879139086E+02  0.50879139086E+02  0.00000000000E+00 0.  1.
      99926    2    1    2    0    0  0.00000000000E+00  0.14210854715E-13  0.98192463848E+03  0.10836829167E+04  0.45846773953E+03 0.  0.
      99925    2    3    3    0    0 -0.29090149628E+02  0.11200943658E+03  0.64089423435E+03  0.70244598858E+03  0.26323486957E+03 0.  0.
         25    1    4    4    0    0 -0.50990515853E+02  0.62070555818E+02  0.28841391546E+03  0.32447323670E+03  0.12509000000E+03 0.  0.
         25    1    3    3    0    0  0.29090149628E+02 -0.11200943658E+03  0.34103040413E+03  0.38123692808E+03  0.12509000000E+03 0.  0.
         25    1    4    4    0    0  0.21900366226E+02  0.49938880762E+02  0.35248031890E+03  0.37797275188E+03  0.12509000000E+03 0.  0.
<mgrwt>
<rscale>  2 0.45846774E+03</rscale>
<asrwt>0</asrwt>
<pdfrwt beam="1">  1       21 0.15188290E+00 0.45846774E+03</pdfrwt>
<pdfrwt beam="2">  1       21 0.74822270E-02 0.45846774E+03</pdfrwt>
<totfact> 0.35105678E+04</totfact>
</mgrwt>
</event>
<event>
 7    0  0.4748297E-002  0.4558035E+03  0.7546771E-02  0.1026005E+00
         21   -1    0    0  502  501  0.00000000000E+00  0.00000000000E+00  0.58818711801E+03  0.58818711801E+03  0.00000000000E+00 0.  1.
         21   -1    0    0  501  502 -0.00000000000E+00 -0.00000000000E+00 -0.88303896912E+02  0.88303896912E+02  0.00000000000E+00 0.  1.
      99926    2    1    2    0    0  0.00000000000E+00  0.00000000000E+00  0.49988322110E+03  0.67649101492E+03  0.45580353063E+03 0.  0.
      99925    2    3    3    0    0 -0.41463544282E+02 -0.33407891265E+02  0.16577700555E+03  0.31578367639E+03  0.26344259717E+03 0.  0.
         25    1    3    3    0    0  0.41463544282E+02  0.33407891265E+02  0.33410621554E+03  0.36070733853E+03  0.12509000000E+03 0.  0.
         25    1    4    4    0    0 -0.50129357469E+02 -0.18132321116E+02  0.12022963126E+03  0.18150593897E+03  0.12509000000E+03 0.  0.
         25    1    4    4    0    0  0.86658131875E+01 -0.15275570150E+02  0.45547374292E+02  0.13427773742E+03  0.12509000000E+03 0.  0.
<mgrwt>
<rscale>  2 0.45580353E+03</rscale>
<asrwt>0</asrwt>
<pdfrwt beam="1">  1       21 0.86498104E-01 0.45580353E+03</pdfrwt>
<pdfrwt beam="2">  1       21 0.12985867E-01 0.45580353E+03</pdfrwt>
<totfact> 0.53856657E+04</totfact>
</mgrwt>
</event>
<event>
 7    0  0.4748297E-002  0.4486745E+03  0.7546771E-02  0.1028118E+00
         21   -1    0    0  502  501  0.00000000000E+00  0.00000000000E+00  0.70913625612E+02  0.70913625612E+02  0.00000000000E+00 0.  1.
         21   -1    0    0  501  502 -0.00000000000E+00 -0.00000000000E+00 -0.70969719294E+03  0.70969719294E+03  0.00000000000E+00 0.  1.
      99926    2    1    2    0    0  0.00000000000E+00  0.17763568394E-14 -0.63878356733E+03  0.78061081855E+03  0.44867449688E+03 0.  0.
      99925    2    3    3    0    0 -0.32095522690E+02 -0.15176408542E+02 -0.22782165853E+03  0.34956830959E+03  0.26274483633E+03 0.  0.
         25    1    3    3    0    0  0.32095522690E+02  0.15176408542E+02 -0.41096190879E+03  0.43104250896E+03  0.12509000000E+03 0.  0.
         25    1    4    4    0    0  0.19792330057E+02 -0.17558568339E+02 -0.90184665657E+02  0.15646348351E+03  0.12509000000E+03 0.  0.
         25    1    4    4    0    0 -0.51887852747E+02  0.23821597974E+01 -0.13763699288E+03  0.19310482608E+03  0.12509000000E+03 0.  0.
<mgrwt>
<rscale>  2 0.44867450E+03</rscale>
<asrwt>0</asrwt>
<pdfrwt beam="1">  1       21 0.10428474E-01 0.44867450E+03</pdfrwt>
<pdfrwt beam="2">  1       21 0.10436724E+00 0.44867450E+03</pdfrwt>
<totfact> 0.51212757E+04</totfact>
</mgrwt>
</event>
<event>
 7    0  0.4748297E-002  0.4497322E+03  0.7546771E-02  0.1027802E+00
         21   -1    0    0  502  501  0.00000000000E+00  0.00000000000E+00  0.17016701323E+03  0.17016701323E+03  0.00000000000E+00 0.  1.
         21   -1    0    0  501  502 -0.00000000000E+00 -0.00000000000E+00 -0.29714788749E+03  0.29714788749E+03  0.00000000000E+00 0.  1.
      99926    2    1    2    0    0  0.00000000000E+00 -0.71054273576E-14 -0.12698087426E+03  0.46731490071E+03  0.44973222478E+03 0.  0.
      99925    2    3    3    0    0  0.68922474278E+02 -0.53918017123E+02 -0.14358151781E+02  0.27760763741E+03  0.26306345963E+03 0.  0.
         25    1    4    4    0    0  0.23950022402E+02 -0.42990350425E+02  0.28701637198E+02  0.13745204939E+03  0.12509000000E+03 0.  0.
         25    1    3    3    0    0 -0.68922474278E+02  0.53918017123E+02 -0.11262272248E+03  0.18970726330E+03  0.12509000000E+03 0.  0.
         25    1    4    4    0    0  0.44972451877E+02 -0.10927666698E+02 -0.43059788979E+02  0.14015558802E+03  0.12509000000E+03 0.  0.
<mgrwt>
<rscale>  2 0.44973222E+03</rscale>
<asrwt>0</asrwt>
<pdfrwt beam="1">  1       21 0.25024561E-01 0.44973222E+03</pdfrwt>
<pdfrwt beam="2">  1       21 0.43698218E-01 0.44973222E+03</pdfrwt>
<totfact> 0.70538065E+04</totfact>
</mgrwt>
</event>
<event>
 7    0  0.4748297E-002  0.4481862E+03  0.7546771E-02  0.1028264E+00
         21   -1    0    0  502  501  0.00000000000E+00  0.00000000000E+00  0.18258855963E+03  0.18258855963E+03  0.00000000000E+00 0.  1.
         21   -1    0    0  501  502 -0.00000000000E+00 -0.00000000000E+00 -0.27503212470E+03  0.27503212470E+03  0.00000000000E+00 0.  1.
      99926    2    1    2    0    0  0.17763568394E-14  0.00000000000E+00 -0.92443565071E+02  0.45762068432E+03  0.44818620907E+03 0.  0.
      99925    2    3    3    0    0 -0.15584044665E+02 -0.10559621547E+03 -0.58027025703E+02  0.28961643006E+03  0.26290134591E+03 0.  0.
         25    1    4    4    0    0 -0.23053998288E+02 -0.69981990042E+02 -0.65194616361E+02  0.15914399728E+03  0.12509000000E+03 0.  0.
         25    1    3    3    0    0  0.15584044665E+02  0.10559621547E+03 -0.34416539368E+02  0.16800425426E+03  0.12509000000E+03 0.  0.
         25    1    4    4    0    0  0.74699536236E+01 -0.35614225424E+02  0.71675906579E+01  0.13047243278E+03  0.12509000000E+03 0.  0.
<mgrwt>
<rscale>  2 0.44818621E+03</rscale>
<asrwt>0</asrwt>
<pdfrwt beam="1">  1       21 0.26851259E-01 0.44818621E+03</pdfrwt>
<pdfrwt beam="2">  1       21 0.40445901E-01 0.44818621E+03</pdfrwt>
<totfact> 0.72191816E+04</totfact>
</mgrwt>
</event>
<event>
 7    0  0.4748297E-002  0.4266828E+03  0.7546771E-02  0.1034913E+00
         21   -1    0    0  502  501  0.00000000000E+00  0.00000000000E+00  0.24141615130E+03  0.24141615130E+03  0.00000000000E+00 0.  1.
         21   -1    0    0  501  502 -0.00000000000E+00 -0.00000000000E+00 -0.18853147208E+03  0.18853147208E+03  0.00000000000E+00 0.  1.
      99926    2    1    2    0    0  0.00000000000E+00  0.00000000000E+00  0.52884679225E+02  0.42994762338E+03  0.42668275048E+03 0.  0.
      99925    2    3    3    0    0  0.39381244394E+02 -0.47724259830E+02 -0.22834214972E+02  0.27117310898E+03  0.26303035238E+03 0.  0.
         25    1    4    4    0    0 -0.19473547828E+02 -0.13324768521E+02 -0.18625533158E+02  0.12865141704E+03  0.12509000000E+03 0.  0.
         25    1    3    3    0    0 -0.39381244394E+02  0.47724259830E+02  0.75718894197E+02  0.15877451441E+03  0.12509000000E+03 0.  0.
         25    1    4    4    0    0  0.58854792221E+02 -0.34399491309E+02 -0.42086818146E+01  0.14252169194E+03  0.12509000000E+03 0.  0.
<mgrwt>
<rscale>  2 0.42668275E+03</rscale>
<asrwt>0</asrwt>
<pdfrwt beam="1">  1       21 0.35502375E-01 0.42668275E+03</pdfrwt>
<pdfrwt beam="2">  1       21 0.27725216E-01 0.42668275E+03</pdfrwt>
<totfact> 0.88863818E+04</totfact>
</mgrwt>
</event>
<event>
 7    0  0.4748297E-002  0.4534985E+03  0.7546771E-02  0.1026684E+00
         21   -1    0    0  502  501  0.00000000000E+00  0.00000000000E+00  0.23534237172E+03  0.23534237172E+03  0.00000000000E+00 0. -1.
         21   -1    0    0  501  502 -0.00000000000E+00 -0.00000000000E+00 -0.21846993569E+03  0.21846993569E+03  0.00000000000E+00 0. -1.
      99926    2    1    2    0    0 -0.71054273576E-14  0.35527136788E-14  0.16872436029E+02  0.45381230742E+03  0.45349854605E+03 0.  0.
      99925    2    3    3    0    0 -0.49042808509E+02  0.31881184129E+02  0.10573822906E+03  0.28959828780E+03  0.26318242389E+03 0.  0.
         25    1    4    4    0    0 -0.20635717433E+02  0.70879571578E+01  0.95066743309E+01  0.12733403680E+03  0.12509000000E+03 0.  0.
         25    1    4    4    0    0 -0.28407091075E+02  0.24793226971E+02  0.96231554730E+02  0.16226425100E+03  0.12509000000E+03 0.  0.
         25    1    3    3    0    0  0.49042808509E+02 -0.31881184129E+02 -0.88865793032E+02  0.16421401962E+03  0.12509000000E+03 0.  0.
<mgrwt>
<rscale>  2 0.45349855E+03</rscale>
<asrwt>0</asrwt>
<pdfrwt beam="1">  1       21 0.34609173E-01 0.45349855E+03</pdfrwt>
<pdfrwt beam="2">  1       21 0.32127932E-01 0.45349855E+03</pdfrwt>
<totfact> 0.69461327E+04</totfact>
</mgrwt>
</event>
<event>
 7    0  0.4748297E-002  0.4577477E+03  0.7546771E-02  0.1025436E+00
         21   -1    0    0  502  501  0.00000000000E+00  0.00000000000E+00  0.85840617812E+03  0.85840617812E+03  0.00000000000E+00 0. -1.
         21   -1    0    0  501  502 -0.00000000000E+00 -0.00000000000E+00 -0.61023827435E+02  0.61023827435E+02  0.00000000000E+00 0. -1.
      99926    2    1    2    0    0  0.00000000000E+00  0.00000000000E+00  0.79738235069E+03  0.91943000556E+03  0.45774766185E+03 0.  0.
      99925    2    3    3    0    0  0.66703835828E+02 -0.79410408555E+02  0.60512869626E+03  0.66770716106E+03  0.26248180736E+03 0.  0.
         25    1    4    4    0    0 -0.17000125642E+01 -0.49899402021E+02  0.25182969283E+03  0.28558456305E+03  0.12509000000E+03 0.  0.
         25    1    3    3    0    0 -0.66703835828E+02  0.79410408555E+02  0.19225365443E+03  0.25172284450E+03  0.12509000000E+03 0.  0.
         25    1    4    4    0    0  0.68403848392E+02 -0.29511006534E+02  0.35329900343E+03  0.38212259800E+03  0.12509000000E+03 0.  0.
<mgrwt>
<rscale>  2 0.45774766E+03</rscale>
<asrwt>0</asrwt>
<pdfrwt beam="1">  1       21 0.12623619E+00 0.45774766E+03</pdfrwt>
<pdfrwt beam="2">  1       21 0.89740928E-02 0.45774766E+03</pdfrwt>
<totfact> 0.41504542E+04</totfact>
</mgrwt>
</event>
<event>
 7    0  0.4748297E-002  0.4636572E+03  0.7546771E-02  0.1023726E+00
         21   -1    0    0  502  501  0.00000000000E+00  0.00000000000E+00  0.17726863907E+03  0.17726863907E+03  0.00000000000E+00 0. -1.
         21   -1    0    0  501  502 -0.00000000000E+00 -0.00000000000E+00 -0.30318115155E+03  0.30318115155E+03  0.00000000000E+00 0. -1.
      99926    2    1    2    0    0  0.00000000000E+00  0.14210854715E-13 -0.12591251249E+03  0.48044979062E+03  0.46365724464E+03 0.  0.
      99925    2    3    3    0    0  0.10343653392E+03  0.60432309621E+02 -0.60405218075E+02  0.29527448364E+03  0.26303431283E+03 0.  0.
         25    1    3    3    0    0 -0.10343653392E+03 -0.60432309621E+02 -0.65507294410E+02  0.18517530698E+03  0.12509000000E+03 0.  0.
         25    1    4    4    0    0  0.76393151613E+02  0.66263397019E+02 -0.30576146619E+02  0.16373503058E+03  0.12509000000E+03 0.  0.
         25    1    4    4    0    0  0.27043382302E+02 -0.58310873980E+01 -0.29829071456E+02  0.13153945306E+03  0.12509000000E+03 0.  0.
<mgrwt>
<rscale>  2 0.46365724E+03</rscale>
<asrwt>0</asrwt>
<pdfrwt beam="1">  1       21 0.26068918E-01 0.46365724E+03</pdfrwt>
<pdfrwt beam="2">  1       21 0.44585463E-01 0.46365724E+03</pdfrwt>
<totfact> 0.62277487E+04</totfact>
</mgrwt>
</event>
<event>
 7    0  0.4748297E-002  0.4489143E+03  0.7546771E-02  0.1028046E+00
         21   -1    0    0  502  501  0.00000000000E+00  0.00000000000E+00  0.88128988744E+03  0.88128988744E+03  0.00000000000E+00 0. -1.
         21   -1    0    0  501  502 -0.00000000000E+00 -0.00000000000E+00 -0.57167360353E+02  0.57167360353E+02  0.00000000000E+00 0. -1.
      99926    2    1    2    0    0  0.00000000000E+00  0.00000000000E+00  0.82412252709E+03  0.93845724780E+03  0.44891431953E+03 0.  0.
      99925    2    3    3    0    0 -0.52950591889E+02 -0.92006211427E+02  0.48764366213E+03  0.56411189550E+03  0.26297714977E+03 0.  0.
         25    1    4    4    0    0 -0.97657733497E+01 -0.25181166653E+02  0.29057171448E+03  0.31750415877E+03  0.12509000000E+03 0.  0.
         25    1    4    4    0    0 -0.43184818539E+02 -0.66825044775E+02  0.19707194765E+03  0.24660773673E+03  0.12509000000E+03 0.  0.
         25    1    3    3    0    0  0.52950591889E+02  0.92006211427E+02  0.33647886496E+03  0.37434535230E+03  0.12509000000E+03 0.  0.
<mgrwt>
<rscale>  2 0.44891432E+03</rscale>
<asrwt>0</asrwt>
<pdfrwt beam="1">  1       21 0.12960145E+00 0.44891432E+03</pdfrwt>
<pdfrwt beam="2">  1       21 0.84069653E-02 0.44891432E+03</pdfrwt>
<totfact> 0.43652648E+04</totfact>
</mgrwt>
</event>
<event>
 7    0  0.4748297E-002  0.4503321E+03  0.7546771E-02  0.1027623E+00
         21   -1    0    0  502  501  0.00000000000E+00  0.00000000000E+00  0.53086816700E+02  0.53086816700E+02  0.00000000000E+00 0. -1.
         21   -1    0    0  501  502 -0.00000000000E+00 -0.00000000000E+00 -0.95503467589E+03  0.95503467589E+03  0.00000000000E+00 0. -1.
      99926    2    1    2    0    0  0.00000000000E+00  0.00000000000E+00 -0.90194785919E+03  0.10081214926E+04  0.45033210315E+03 0.  0.
      99925    2    3    3    0    0 -0.81896832998E+02  0.53942247764E+02 -0.46440171858E+03  0.54259921535E+03  0.26292222220E+03 0.  0.
         25    1    4    4    0    0 -0.19478882578E+02  0.22817960601E+02 -0.28766571518E+03  0.31511768910E+03  0.12509000000E+03 0.  0.
         25    1    3    3    0    0  0.81896832998E+02 -0.53942247764E+02 -0.43754614061E+03  0.46552227724E+03  0.12509000000E+03 0.  0.
         25    1    4    4    0    0 -0.62417950420E+02  0.31124287163E+02 -0.17673600340E+03  0.22748152625E+03  0.12509000000E+03 0.  0.
<mgrwt>
<rscale>  2 0.45033210E+03</rscale>
<asrwt>0</asrwt>
<pdfrwt beam="1">  1       21 0.78068854E-02 0.45033210E+03</pdfrwt>
<pdfrwt beam="2">  1       21 0.14044627E+00 0.45033210E+03</pdfrwt>
<totfact> 0.40301494E+04</totfact>
</mgrwt>
</event>
<event>
 7    0  0.4748297E-002  0.4296243E+03  0.7546771E-02  0.1033979E+00
         21   -1    0    0  502  501  0.00000000000E+00  0.00000000000E+00  0.26286168036E+03  0.26286168036E+03  0.00000000000E+00 0. -1.
         21   -1    0    0  501  502 -0.00000000000E+00 -0.00000000000E+00 -0.17554576710E+03  0.17554576710E+03  0.00000000000E+00 0. -1.
      99926    2    1    2    0    0 -0.71054273576E-14 -0.71054273576E-14  0.87315913261E+02  0.43840744746E+03  0.42962427920E+03 0.  0.
      99925    2    3    3    0    0 -0.40997231471E+02 -0.37869726877E+02  0.12282066922E+03  0.29690485032E+03  0.26448569744E+03 0.  0.
         25    1    4    4    0    0 -0.50817364180E+02 -0.62641852341E+01  0.93149548476E+02  0.16415234083E+03  0.12509000000E+03 0.  0.
         25    1    3    3    0    0  0.40997231471E+02  0.37869726877E+02 -0.35504755959E+02  0.14150259714E+03  0.12509000000E+03 0.  0.
         25    1    4    4    0    0  0.98201327084E+01 -0.31605541643E+02  0.29671120744E+02  0.13275250949E+03  0.12509000000E+03 0.  0.
<mgrwt>
<rscale>  2 0.42962428E+03</rscale>
<asrwt>0</asrwt>
<pdfrwt beam="1">  1       21 0.38656130E-01 0.42962428E+03</pdfrwt>
<pdfrwt beam="2">  1       21 0.25815554E-01 0.42962428E+03</pdfrwt>
<totfact> 0.85883243E+04</totfact>
</mgrwt>
</event>
<event>
 7    0  0.4748297E-002  0.4476633E+03  0.7546771E-02  0.1028421E+00
         21   -1    0    0  502  501  0.00000000000E+00  0.00000000000E+00  0.60164704209E+02  0.60164704209E+02  0.00000000000E+00 0. -1.
         21   -1    0    0  501  502 -0.00000000000E+00 -0.00000000000E+00 -0.83272411417E+03  0.83272411417E+03  0.00000000000E+00 0. -1.
      99926    2    1    2    0    0  0.00000000000E+00  0.00000000000E+00 -0.77255940996E+03  0.89288881838E+03  0.44766326638E+03 0.  0.
      99925    2    3    3    0    0  0.92361342580E+02 -0.23193018765E+02 -0.39568780741E+03  0.48454062550E+03  0.26294912645E+03 0.  0.
         25    1    4    4    0    0  0.43243615215E+02 -0.77046951385E+01 -0.26566319945E+03  0.29690708349E+03  0.12509000000E+03 0.  0.
         25    1    4    4    0    0  0.49117727365E+02 -0.15488323627E+02 -0.13002460796E+03  0.18763354201E+03  0.12509000000E+03 0.  0.
         25    1    3    3    0    0 -0.92361342580E+02  0.23193018765E+02 -0.37687160255E+03  0.40834819288E+03  0.12509000000E+03 0.  0.
<mgrwt>
<rscale>  2 0.44766327E+03</rscale>
<asrwt>0</asrwt>
<pdfrwt beam="1">  1       21 0.88477509E-02 0.44766327E+03</pdfrwt>
<pdfrwt beam="2">  1       21 0.12245942E+00 0.44766327E+03</pdfrwt>
<totfact> 0.46136185E+04</totfact>
</mgrwt>
</event>
<event>
 7    0  0.4748297E-002  0.4525824E+03  0.7546771E-02  0.1026955E+00
         21   -1    0    0  502  501  0.00000000000E+00  0.00000000000E+00  0.14277366912E+03  0.14277366912E+03  0.00000000000E+00 0.  1.
         21   -1    0    0  501  502 -0.00000000000E+00 -0.00000000000E+00 -0.35866347305E+03  0.35866347305E+03  0.00000000000E+00 0.  1.
      99926    2    1    2    0    0  0.17763568394E-14  0.26645352591E-14 -0.21588980393E+03  0.50143714216E+03  0.45258236830E+03 0.  0.
      99925    2    3    3    0    0 -0.51607442101E+01  0.67749079698E+01 -0.13557839795E+02  0.26340717668E+03  0.26292012674E+03 0.  0.
         25    1    4    4    0    0  0.28875510912E+02  0.28754546791E+02 -0.56481354012E+01  0.13168154246E+03  0.12509000000E+03 0.  0.
         25    1    4    4    0    0 -0.34036255122E+02 -0.21979638821E+02 -0.79097043939E+01  0.13172563421E+03  0.12509000000E+03 0.  0.
         25    1    3    3    0    0  0.51607442101E+01 -0.67749079698E+01 -0.20233196414E+03  0.23802996549E+03  0.12509000000E+03 0.  0.
<mgrwt>
<rscale>  2 0.45258237E+03</rscale>
<asrwt>0</asrwt>
<pdfrwt beam="1">  1       21 0.20996128E-01 0.45258237E+03</pdfrwt>
<pdfrwt beam="2">  1       21 0.52744628E-01 0.45258237E+03</pdfrwt>
<totfact> 0.66435612E+04</totfact>
</mgrwt>
</event>
<event>
 7    0  0.4748297E-002  0.4631765E+03  0.7546771E-02  0.1023864E+00
         21   -1    0    0  502  501  0.00000000000E+00  0.00000000000E+00  0.13260351079E+03  0.13260351079E+03  0.00000000000E+00 0. -1.
         21   -1    0    0  501  502 -0.00000000000E+00 -0.00000000000E+00 -0.40446221732E+03  0.40446221732E+03  0.00000000000E+00 0. -1.
      99926    2    1    2    0    0 -0.17763568394E-14  0.00000000000E+00 -0.27185870653E+03  0.53706572811E+03  0.46317646745E+03 0.  0.
      99925    2    3    3    0    0  0.13637756878E+02  0.80179146510E+02 -0.66491032082E+02  0.28321917258E+03  0.26301589006E+03 0.  0.
         25    1    4    4    0    0  0.42273922907E+02  0.52510267387E+02 -0.51270479949E+02  0.15106483030E+03  0.12509000000E+03 0.  0.
         25    1    4    4    0    0 -0.28636166029E+02  0.27668879123E+02 -0.15220552132E+02  0.13215434228E+03  0.12509000000E+03 0.  0.
         25    1    3    3    0    0 -0.13637756878E+02 -0.80179146510E+02 -0.20536767445E+03  0.25384655553E+03  0.12509000000E+03 0.  0.
<mgrwt>
<rscale>  2 0.46317647E+03</rscale>
<asrwt>0</asrwt>
<pdfrwt beam="1">  1       21 0.19500516E-01 0.46317647E+03</pdfrwt>
<pdfrwt beam="2">  1       21 0.59479739E-01 0.46317647E+03</pdfrwt>
<totfact> 0.58825238E+04</totfact>
</mgrwt>
</event>
<event>
 7    0  0.4748297E-002  0.4591248E+03  0.7546771E-02  0.1025035E+00
         21   -1    0    0  502  501  0.00000000000E+00  0.00000000000E+00  0.17239332522E+02  0.17239332522E+02  0.00000000000E+00 0.  1.
         21   -1    0    0  501  502 -0.00000000000E+00 -0.00000000000E+00 -0.30568984782E+04  0.30568984782E+04  0.00000000000E+00 0.  1.
      99926    2    1    2    0    0  0.00000000000E+00  0.00000000000E+00 -0.30396591457E+04  0.30741378107E+04  0.45912477324E+03 0.  0.
      99925    2    3    3    0    0 -0.52329976736E+02 -0.48880143975E+02 -0.12857844700E+04  0.13143504426E+04  0.26295947921E+03 0.  0.
         25    1    4    4    0    0  0.70604819828E+01 -0.35543597046E+02 -0.72236294033E+03  0.73400880332E+03  0.12509000000E+03 0.  0.
         25    1    3    3    0    0  0.52329976736E+02  0.48880143975E+02 -0.17538746757E+04  0.17597873681E+04  0.12509000000E+03 0.  0.
         25    1    4    4    0    0 -0.59390458719E+02 -0.13336546929E+02 -0.56342152964E+03  0.58034163924E+03  0.12509000000E+03 0.  0.
<mgrwt>
<rscale>  2 0.45912477E+03</rscale>
<asrwt>0</asrwt>
<pdfrwt beam="1">  1       21 0.25351971E-02 0.45912477E+03</pdfrwt>
<pdfrwt beam="2">  1       21 0.44954370E+00 0.45912477E+03</pdfrwt>
<totfact> 0.27657632E+03</totfact>
</mgrwt>
</event>
<event>
 7    0  0.4748297E-002  0.4545067E+03  0.7546771E-02  0.1026387E+00
         21   -1    0    0  502  501  0.00000000000E+00  0.00000000000E+00  0.22257564436E+03  0.22257564436E+03  0.00000000000E+00 0. -1.
         21   -1    0    0  501  502 -0.00000000000E+00 -0.00000000000E+00 -0.23202932597E+03  0.23202932597E+03  0.00000000000E+00 0. -1.
      99926    2    1    2    0    0  0.00000000000E+00  0.00000000000E+00 -0.94536816147E+01  0.45460497033E+03  0.45450666326E+03 0.  0.
      99925    2    3    3    0    0 -0.93065161675E+02  0.52097701942E+02 -0.42339382149E+02  0.28696168157E+03  0.26301917904E+03 0.  0.
         25    1    3    3    0    0  0.93065161675E+02 -0.52097701942E+02  0.32885700534E+02  0.16764328876E+03  0.12509000000E+03 0.  0.
         25    1    4    4    0    0 -0.20883827398E+02  0.34711004212E+02  0.11188936900E+02  0.13196093539E+03  0.12509000000E+03 0.  0.
         25    1    4    4    0    0 -0.72181334276E+02  0.17386697730E+02 -0.53528319049E+02  0.15500074618E+03  0.12509000000E+03 0.  0.
<mgrwt>
<rscale>  2 0.45450666E+03</rscale>
<asrwt>0</asrwt>
<pdfrwt beam="1">  1       21 0.32731712E-01 0.45450666E+03</pdfrwt>
<pdfrwt beam="2">  1       21 0.34121960E-01 0.45450666E+03</pdfrwt>
<totfact> 0.68845343E+04</totfact>
</mgrwt>
</event>
<event>
 7    0  0.4748297E-002  0.4355613E+03  0.7546771E-02  0.1032117E+00
         21   -1    0    0  502  501  0.00000000000E+00  0.00000000000E+00  0.55218160783E+03  0.55218160783E+03  0.00000000000E+00 0.  1.
         21   -1    0    0  501  502 -0.00000000000E+00 -0.00000000000E+00 -0.85892787154E+02  0.85892787154E+02  0.00000000000E+00 0.  1.
      99926    2    1    2    0    0  0.00000000000E+00  0.71054273576E-14  0.46628882068E+03  0.63807439499E+03  0.43556132662E+03 0.  0.
      99925    2    3    3    0    0 -0.17279593339E+02  0.40819544703E+02  0.17795527190E+03  0.32066525361E+03  0.26304620602E+03 0.  0.
         25    1    4    4    0    0 -0.31238464903E+02 -0.57407306641E+01  0.61426723971E+02  0.14293197052E+03  0.12509000000E+03 0.  0.
         25    1    3    3    0    0  0.17279593339E+02 -0.40819544703E+02  0.28833354878E+03  0.31740914137E+03  0.12509000000E+03 0.  0.
         25    1    4    4    0    0  0.13958871564E+02  0.46560275367E+02  0.11652854793E+03  0.17773328310E+03  0.12509000000E+03 0.  0.
<mgrwt>
<rscale>  2 0.43556133E+03</rscale>
<asrwt>0</asrwt>
<pdfrwt beam="1">  1       21 0.81203176E-01 0.43556133E+03</pdfrwt>
<pdfrwt beam="2">  1       21 0.12631292E-01 0.43556133E+03</pdfrwt>
<totfact> 0.65939282E+04</totfact>
</mgrwt>
</event>
<event>
 7    0  0.4748297E-002  0.4527598E+03  0.7546771E-02  0.1026902E+00
         21   -1    0    0  502  501  0.00000000000E+00  0.00000000000E+00  0.13301015422E+03  0.13301015422E+03  0.00000000000E+00 0.  1.
         21   -1    0    0  501  502 -0.00000000000E+00 -0.00000000000E+00 -0.38529285106E+03  0.38529285106E+03  0.00000000000E+00 0.  1.
      99926    2    1    2    0    0  0.71054273576E-14 -0.14210854715E-13 -0.25228269684E+03  0.51830300528E+03  0.45275981067E+03 0.  0.
      99925    2    3    3    0    0 -0.55757080558E+02  0.78179477509E+02 -0.22339429463E+03  0.35798166978E+03  0.26272605940E+03 0.  0.
         25    1    4    4    0    0 -0.43227725730E+02  0.59045469728E+02 -0.16005410357E+03  0.21591625213E+03  0.12509000000E+03 0.  0.
         25    1    4    4    0    0 -0.12529354828E+02  0.19134007781E+02 -0.63340191063E+02  0.14206541764E+03  0.12509000000E+03 0.  0.
         25    1    3    3    0    0  0.55757080558E+02 -0.78179477509E+02 -0.28888402211E+02  0.16032133551E+03  0.12509000000E+03 0.  0.
<mgrwt>
<rscale>  2 0.45275981E+03</rscale>
<asrwt>0</asrwt>
<pdfrwt beam="1">  1       21 0.19560317E-01 0.45275981E+03</pdfrwt>
<pdfrwt beam="2">  1       21 0.56660713E-01 0.45275981E+03</pdfrwt>
<totfact> 0.65153352E+04</totfact>
</mgrwt>
</event>
<event>
 7    0  0.4748297E-002  0.4575087E+03  0.7546771E-02  0.1025506E+00
         21   -1    0    0  502  501  0.00000000000E+00  0.00000000000E+00  0.62614209609E+02  0.62614209609E+02  0.00000000000E+00 0. -1.
         21   -1    0    0  501  502 -0.00000000000E+00 -0.00000000000E+00 -0.83572956752E+03  0.83572956752E+03  0.00000000000E+00 0. -1.
      99926    2    1    2    0    0 -0.17763568394E-14 -0.14210854715E-13 -0.77311535791E+03  0.89834377713E+03  0.45750867234E+03 0.  0.
      99925    2    3    3    0    0  0.95495623016E+01  0.90149757774E+02 -0.34429054789E+03  0.44254075086E+03  0.26284627035E+03 0.  0.
         25    1    3    3    0    0 -0.95495623016E+01 -0.90149757774E+02 -0.42882481002E+03  0.45580302626E+03  0.12509000000E+03 0.  0.
         25    1    4    4    0    0 -0.16539323947E+02  0.32477624556E+02 -0.21738032902E+03  0.25343650266E+03  0.12509000000E+03 0.  0.
         25    1    4    4    0    0  0.26088886249E+02  0.57672133218E+02 -0.12691021887E+03  0.18910424821E+03  0.12509000000E+03 0.  0.
<mgrwt>
<rscale>  2 0.45750867E+03</rscale>
<asrwt>0</asrwt>
<pdfrwt beam="1">  1       21 0.92079733E-02 0.45750867E+03</pdfrwt>
<pdfrwt beam="2">  1       21 0.12290139E+00 0.45750867E+03</pdfrwt>
<totfact> 0.42465105E+04</totfact>
</mgrwt>
</event>
<event>
 7    0  0.4748297E-002  0.4533486E+03  0.7546771E-02  0.1026728E+00
         21   -1    0    0  502  501  0.00000000000E+00  0.00000000000E+00  0.28394954765E+03  0.28394954765E+03  0.00000000000E+00 0. -1.
         21   -1    0    0  501  502 -0.00000000000E+00 -0.00000000000E+00 -0.18095198203E+03  0.18095198203E+03  0.00000000000E+00 0. -1.
      99926    2    1    2    0    0  0.00000000000E+00  0.00000000000E+00  0.10299756561E+03  0.46490152968E+03  0.45334857867E+03 0.  0.
      99925    2    3    3    0    0  0.85103346370E+02  0.72230835004E+02  0.62884041033E+02  0.29251685507E+03  0.26296736450E+03 0.  0.
         25    1    4    4    0    0  0.25059082717E+02  0.48482768971E+02 -0.42773462671E+01  0.13654427965E+03  0.12509000000E+03 0.  0.
         25    1    3    3    0    0 -0.85103346370E+02 -0.72230835004E+02  0.40113524580E+02  0.17238467462E+03  0.12509000000E+03 0.  0.
         25    1    4    4    0    0  0.60044263653E+02  0.23748066033E+02  0.67161387300E+02  0.15597257542E+03  0.12509000000E+03 0.  0.
<mgrwt>
<rscale>  2 0.45334858E+03</rscale>
<asrwt>0</asrwt>
<pdfrwt beam="1">  1       21 0.41757286E-01 0.45334858E+03</pdfrwt>
<pdfrwt beam="2">  1       21 0.26610586E-01 0.45334858E+03</pdfrwt>
<totfact> 0.68712830E+04</totfact>
</mgrwt>
</event>
<event>
 7    0  0.4748297E-002  0.4558070E+03  0.7546771E-02  0.1026004E+00
         21   -1    0    0  502  501  0.00000000000E+00  0.00000000000E+00  0.22577125197E+03  0.22577125197E+03  0.00000000000E+00 0. -1.
         21   -1    0    0  501  502 -0.00000000000E+00 -0.00000000000E+00 -0.23005586760E+03  0.23005586760E+03  0.00000000000E+00 0. -1.
      99926    2    1    2    0    0  0.35527136788E-14  0.00000000000E+00 -0.42846156221E+01  0.45582711957E+03  0.45580698218E+03 0.  0.
      99925    2    3    3    0    0  0.16087141865E+02 -0.78947117650E+02 -0.83363044367E+02  0.28732682429E+03  0.26289896019E+03 0.  0.
         25    1    3    3    0    0 -0.16087141865E+02  0.78947117650E+02  0.79078428745E+02  0.16850029529E+03  0.12509000000E+03 0.  0.
         25    1    4    4    0    0  0.34218445919E+02 -0.25796242486E+02 -0.69857119313E+02  0.14954555622E+03  0.12509000000E+03 0.  0.
         25    1    4    4    0    0 -0.18131304054E+02 -0.53150875164E+02 -0.13505925054E+02  0.13778126806E+03  0.12509000000E+03 0.  0.
<mgrwt>
<rscale>  2 0.45580698E+03</rscale>
<asrwt>0</asrwt>
<pdfrwt beam="1">  1       21 0.33201655E-01 0.45580698E+03</pdfrwt>
<pdfrwt beam="2">  1       21 0.33831745E-01 0.45580698E+03</pdfrwt>
<totfact> 0.68046042E+04</totfact>
</mgrwt>
</event>
<event>
 7    0  0.4748297E-002  0.4591136E+03  0.7546771E-02  0.1025039E+00
         21   -1    0    0  502  501  0.00000000000E+00  0.00000000000E+00  0.24588373456E+02  0.24588373456E+02  0.00000000000E+00 0.  1.
         21   -1    0    0  501  502 -0.00000000000E+00 -0.00000000000E+00 -0.21431400266E+04  0.21431400266E+04  0.00000000000E+00 0.  1.
      99926    2    1    2    0    0 -0.71054273576E-14  0.00000000000E+00 -0.21185516532E+04  0.21677284001E+04  0.45911361271E+03 0.  0.
      99925    2    3    3    0    0  0.60597947199E+02 -0.33685369965E+01 -0.18005053855E+04  0.18206197791E+04  0.26297011005E+03 0.  0.
         25    1    4    4    0    0  0.70997338300E+02 -0.15556696178E+01 -0.90561281485E+03  0.91696516874E+03  0.12509000000E+03 0.  0.
         25    1    3    3    0    0 -0.60597947199E+02  0.33685369965E+01 -0.31804626770E+03  0.34710862096E+03  0.12509000000E+03 0.  0.
         25    1    4    4    0    0 -0.10399391101E+02 -0.18128673787E+01 -0.89489257065E+03  0.90365461041E+03  0.12509000000E+03 0.  0.
<mgrwt>
<rscale>  2 0.45911361E+03</rscale>
<asrwt>0</asrwt>
<pdfrwt beam="1">  1       21 0.36159381E-02 0.45911361E+03</pdfrwt>
<pdfrwt beam="2">  1       21 0.31516758E+00 0.45911361E+03</pdfrwt>
<totfact> 0.10810127E+04</totfact>
</mgrwt>
</event>
<event>
 7    0  0.4748297E-002  0.4537549E+03  0.7546771E-02  0.1026608E+00
         21   -1    0    0  502  501  0.00000000000E+00  0.00000000000E+00  0.17922956075E+04  0.17922956075E+04  0.00000000000E+00 0. -1.
         21   -1    0    0  501  502 -0.00000000000E+00 -0.00000000000E+00 -0.28719247166E+02  0.28719247166E+02  0.00000000000E+00 0. -1.
      99926    2    1    2    0    0 -0.35527136788E-14  0.00000000000E+00  0.17635763603E+04  0.18210148547E+04  0.45375491422E+03 0.  0.
      99925    2    3    3    0    0 -0.21811175280E+02  0.51940575258E+02  0.15009707645E+04  0.15247333031E+04  0.26215426571E+03 0.  0.
         25    1    4    4    0    0 -0.43400872357E+02  0.39447678584E+02  0.67758422840E+03  0.69152559587E+03  0.12509000000E+03 0.  0.
         25    1    3    3    0    0  0.21811175280E+02 -0.51940575258E+02  0.26260559586E+03  0.29628155157E+03  0.12509000000E+03 0.  0.
         25    1    4    4    0    0  0.21589697077E+02  0.12492896674E+02  0.82338653606E+03  0.83320770721E+03  0.12509000000E+03 0.  0.
<mgrwt>
<rscale>  2 0.45375491E+03</rscale>
<asrwt>0</asrwt>
<pdfrwt beam="1">  1       21 0.26357281E+00 0.45375491E+03</pdfrwt>
<pdfrwt beam="2">  1       21 0.42234199E-02 0.45375491E+03</pdfrwt>
<totfact> 0.17023116E+04</totfact>
</mgrwt>
</event>
<event>
 7    0  0.4748297E-002  0.4513297E+03  0.7546771E-02  0.1027326E+00
         21   -1    0    0  502  501  0.00000000000E+00  0.00000000000E+00  0.36765259736E+02  0.36765259736E+02  0.00000000000E+00 0.  1.
         21   -1    0    0  501  502 -0.00000000000E+00 -0.00000000000E+00 -0.13851291690E+04  0.13851291690E+04  0.00000000000E+00 0.  1.
      99926    2    1    2    0    0  0.00000000000E+00  0.71054273576E-14 -0.13483639092E+04  0.14218944287E+04  0.45132974050E+03 0.  0.
      99925    2    3    3    0    0 -0.10064485780E+03  0.34334153352E+02 -0.76858759990E+03  0.81931970434E+03  0.26315329696E+03 0.  0.
         25    1    4    4    0    0 -0.17402707001E+02  0.83094720168E+00 -0.28274252200E+03  0.30966818779E+03  0.12509000000E+03 0.  0.
         25    1    3    3    0    0  0.10064485780E+03 -0.34334153352E+02 -0.57977630932E+03  0.60257472436E+03  0.12509000000E+03 0.  0.
         25    1    4    4    0    0 -0.83242150796E+02  0.33503206150E+02 -0.48584507791E+03  0.50965151655E+03  0.12509000000E+03 0.  0.
<mgrwt>
<rscale>  2 0.45132974E+03</rscale>
<asrwt>0</asrwt>
<pdfrwt beam="1">  1       21 0.54066545E-02 0.45132974E+03</pdfrwt>
<pdfrwt beam="2">  1       21 0.20369552E+00 0.45132974E+03</pdfrwt>
<totfact> 0.26502172E+04</totfact>
</mgrwt>
</event>
<event>
 7    0  0.4748297E-002  0.4460297E+03  0.7546771E-02  0.1028913E+00
         21   -1    0    0  502  501  0.00000000000E+00  0.00000000000E+00  0.29778037585E+03  0.29778037585E+03  0.00000000000E+00 0. -1.
         21   -1    0    0  501  502 -0.00000000000E+00 -0.00000000000E+00 -0.16702115148E+03  0.16702115148E+03  0.00000000000E+00 0. -1.
      99926    2    1    2    0    0  0.00000000000E+00  0.00000000000E+00  0.13075922436E+03  0.46480152733E+03  0.44602969078E+03 0.  0.
      99925    2    3    3    0    0  0.92329063753E+02  0.19786734560E+02  0.36292038785E+02  0.28180500242E+03  0.26302238770E+03 0.  0.
         25    1    3    3    0    0 -0.92329063753E+02 -0.19786734560E+02  0.94467185580E+02  0.18299652491E+03  0.12509000000E+03 0.  0.
         25    1    4    4    0    0  0.53610845204E+02  0.24073681330E+02 -0.19177400679E+02  0.13953116373E+03  0.12509000000E+03 0.  0.
         25    1    4    4    0    0  0.38718218550E+02 -0.42869467705E+01  0.55469439465E+02  0.14227383869E+03  0.12509000000E+03 0.  0.
<mgrwt>
<rscale>  2 0.44602969E+03</rscale>
<asrwt>0</asrwt>
<pdfrwt beam="1">  1       21 0.43791231E-01 0.44602969E+03</pdfrwt>
<pdfrwt beam="2">  1       21 0.24561934E-01 0.44602969E+03</pdfrwt>
<totfact> 0.72874034E+04</totfact>
</mgrwt>
</event>
<event>
 7    0  0.4748297E-002  0.4816966E+03  0.7546771E-02  0.1018670E+00
         21   -1    0    0  502  501  0.00000000000E+00  0.00000000000E+00  0.15570168189E+04  0.15570168189E+04  0.00000000000E+00 0. -1.
         21   -1    0    0  501  502 -0.00000000000E+00 -0.00000000000E+00 -0.37255804539E+02  0.37255804539E+02  0.00000000000E+00 0. -1.
      99926    2    1    2    0    0  0.00000000000E+00 -0.14210854715E-13  0.15197610143E+04  0.15942726234E+04  0.48169664424E+03 0.  0.
      99925    2    3    3    0    0 -0.10281932922E+03  0.88205220816E+02  0.10049439165E+04  0.10474306648E+04  0.26238663588E+03 0.  0.
         25    1    3    3    0    0  0.10281932922E+03 -0.88205220816E+02  0.51481709780E+03  0.54684195864E+03  0.12509000000E+03 0.  0.
         25    1    4    4    0    0 -0.60861254399E+02  0.42808677308E+02  0.37582369541E+03  0.40302311754E+03  0.12509000000E+03 0.  0.
         25    1    4    4    0    0 -0.41958074818E+02  0.45396543507E+02  0.62912022110E+03  0.64440754721E+03  0.12509000000E+03 0.  0.
<mgrwt>
<rscale>  2 0.48169664E+03</rscale>
<asrwt>0</asrwt>
<pdfrwt beam="1">  1       21 0.22897302E+00 0.48169664E+03</pdfrwt>
<pdfrwt beam="2">  1       21 0.54787958E-02 0.48169664E+03</pdfrwt>
<totfact> 0.17615208E+04</totfact>
</mgrwt>
</event>
<event>
 7    0  0.4748297E-002  0.4452770E+03  0.7546771E-02  0.1029140E+00
         21   -1    0    0  502  501  0.00000000000E+00  0.00000000000E+00  0.90219072381E+03  0.90219072381E+03  0.00000000000E+00 0. -1.
         21   -1    0    0  501  502 -0.00000000000E+00 -0.00000000000E+00 -0.54941709927E+02  0.54941709927E+02  0.00000000000E+00 0. -1.
      99926    2    1    2    0    0  0.00000000000E+00  0.00000000000E+00  0.84724901388E+03  0.95713243373E+03  0.44527699714E+03 0.  0.
      99925    2    3    3    0    0  0.69818813573E+02  0.31071797447E+02  0.38743617175E+03  0.47451925404E+03  0.26310000371E+03 0.  0.
         25    1    3    3    0    0 -0.69818813573E+02 -0.31071797447E+02  0.45981284213E+03  0.48261317969E+03  0.12509000000E+03 0.  0.
         25    1    4    4    0    0  0.64010923926E+02  0.12671646409E+02  0.15315912364E+03  0.20823831122E+03  0.12509000000E+03 0.  0.
         25    1    4    4    0    0  0.58078896477E+01  0.18400151037E+02  0.23427704811E+03  0.26628094283E+03  0.12509000000E+03 0.  0.
<mgrwt>
<rscale>  2 0.44527700E+03</rscale>
<asrwt>0</asrwt>
<pdfrwt beam="1">  1       21 0.13267510E+00 0.44527700E+03</pdfrwt>
<pdfrwt beam="2">  1       21 0.80796638E-02 0.44527700E+03</pdfrwt>
<totfact> 0.44112732E+04</totfact>
</mgrwt>
</event>
<event>
 7    0  0.4748297E-002  0.4170453E+03  0.7546771E-02  0.1038032E+00
         21   -1    0    0  502  501  0.00000000000E+00  0.00000000000E+00  0.11796254989E+04  0.11796254989E+04  0.00000000000E+00 0. -1.
         21   -1    0    0  501  502 -0.00000000000E+00 -0.00000000000E+00 -0.36860597640E+02  0.36860597640E+02  0.00000000000E+00 0. -1.
      99926    2    1    2    0    0  0.35527136788E-14  0.00000000000E+00  0.11427649013E+04  0.12164860966E+04  0.41704532551E+03 0.  0.
      99925    2    3    3    0    0 -0.28545807281E+02 -0.16116951161E+02  0.93458279822E+03  0.97141077067E+03  0.26290541914E+03 0.  0.
         25    1    4    4    0    0  0.10671994762E+02 -0.26013954381E+02  0.36533791840E+03  0.38718202439E+03  0.12509000000E+03 0.  0.
         25    1    3    3    0    0  0.28545807281E+02  0.16116951161E+02  0.20818210308E+03  0.24507532591E+03  0.12509000000E+03 0.  0.
         25    1    4    4    0    0 -0.39217802043E+02  0.98970032198E+01  0.56924487982E+03  0.58422874627E+03  0.12509000000E+03 0.  0.
<mgrwt>
<rscale>  2 0.41704533E+03</rscale>
<asrwt>0</asrwt>
<pdfrwt beam="1">  1       21 0.17347431E+00 0.41704533E+03</pdfrwt>
<pdfrwt beam="2">  1       21 0.54206769E-02 0.41704533E+03</pdfrwt>
<totfact> 0.43010903E+04</totfact>
</mgrwt>
</event>
<event>
 7    0  0.4748297E-002  0.4705882E+03  0.7546771E-02  0.1021754E+00
         21   -1    0    0  502  501  0.00000000000E+00  0.00000000000E+00  0.44300312278E+02  0.44300312278E+02  0.00000000000E+00 0.  1.
         21   -1    0    0  501  502 -0.00000000000E+00 -0.00000000000E+00 -0.12497272791E+04  0.12497272791E+04  0.00000000000E+00 0.  1.
      99926    2    1    2    0    0 -0.17763568394E-14  0.71054273576E-14 -0.12054269668E+04  0.12940275914E+04  0.47058817974E+03 0.  0.
      99925    2    3    3    0    0 -0.56715127719E+01 -0.29820525270E+02 -0.10881560405E+04  0.11198971574E+04  0.26299172012E+03 0.  0.
         25    1    3    3    0    0  0.56715127719E+01  0.29820525270E+02 -0.11727092634E+03  0.17413043401E+03  0.12509000000E+03 0.  0.
         25    1    4    4    0    0 -0.28082015714E+02  0.16315803919E+02 -0.50506540415E+03  0.52133806272E+03  0.12509000000E+03 0.  0.
         25    1    4    4    0    0  0.22410502942E+02 -0.46136329189E+02 -0.58309063635E+03  0.59855909467E+03  0.12509000000E+03 0.  0.
<mgrwt>
<rscale>  2 0.47058818E+03</rscale>
<asrwt>0</asrwt>
<pdfrwt beam="1">  1       21 0.65147527E-02 0.47058818E+03</pdfrwt>
<pdfrwt beam="2">  1       21 0.18378340E+00 0.47058818E+03</pdfrwt>
<totfact> 0.25990233E+04</totfact>
</mgrwt>
</event>
<event>
 7    0  0.4748297E-002  0.4533394E+03  0.7546771E-02  0.1026731E+00
         21   -1    0    0  502  501  0.00000000000E+00  0.00000000000E+00  0.23558752018E+03  0.23558752018E+03  0.00000000000E+00 0.  1.
         21   -1    0    0  501  502 -0.00000000000E+00 -0.00000000000E+00 -0.21808942138E+03  0.21808942138E+03  0.00000000000E+00 0.  1.
      99926    2    1    2    0    0  0.00000000000E+00  0.88817841970E-15  0.17498098803E+02  0.45367694156E+03  0.45333936940E+03 0.  0.
      99925    2    3    3    0    0 -0.77646924026E+02  0.79145464872E+01  0.90891469725E+02  0.28897788312E+03  0.26297390138E+03 0.  0.
         25    1    4    4    0    0 -0.56893116086E+02 -0.24241740033E+02  0.71308432643E+02  0.15670637921E+03  0.12509000000E+03 0.  0.
         25    1    4    4    0    0 -0.20753807940E+02  0.32156286520E+02  0.19583037082E+02  0.13227150392E+03  0.12509000000E+03 0.  0.
         25    1    3    3    0    0  0.77646924026E+02 -0.79145464872E+01 -0.73393370922E+02  0.16469905844E+03  0.12509000000E+03 0.  0.
<mgrwt>
<rscale>  2 0.45333937E+03</rscale>
<asrwt>0</asrwt>
<pdfrwt beam="1">  1       21 0.34645224E-01 0.45333937E+03</pdfrwt>
<pdfrwt beam="2">  1       21 0.32071974E-01 0.45333937E+03</pdfrwt>
<totfact> 0.69559956E+04</totfact>
</mgrwt>
</event>
<event>
 7    0  0.4748297E-002  0.4357992E+03  0.7546771E-02  0.1032044E+00
         21   -1    0    0  502  501  0.00000000000E+00  0.00000000000E+00  0.27416654928E+03  0.27416654928E+03  0.00000000000E+00 0.  1.
         21   -1    0    0  501  502 -0.00000000000E+00 -0.00000000000E+00 -0.17318030132E+03  0.17318030132E+03  0.00000000000E+00 0.  1.
      99926    2    1    2    0    0  0.00000000000E+00  0.00000000000E+00  0.10098624796E+03  0.44734685060E+03  0.43579924559E+03 0.  0.
      99925    2    3    3    0    0 -0.46575397012E+02  0.81774294411E+02  0.64030430179E+02  0.28650673308E+03  0.26292567254E+03 0.  0.
         25    1    3    3    0    0  0.46575397012E+02 -0.81774294411E+02  0.36955817786E+02  0.16084011751E+03  0.12509000000E+03 0.  0.
         25    1    4    4    0    0 -0.45156776521E+02  0.49126783923E+02  0.67824456167E+02  0.15716310101E+03  0.12509000000E+03 0.  0.
         25    1    4    4    0    0 -0.14186204912E+01  0.32647510487E+02 -0.37940259879E+01  0.12934363207E+03  0.12509000000E+03 0.  0.
<mgrwt>
<rscale>  2 0.43579925E+03</rscale>
<asrwt>0</asrwt>
<pdfrwt beam="1">  1       21 0.40318610E-01 0.43579925E+03</pdfrwt>
<pdfrwt beam="2">  1       21 0.25467691E-01 0.43579925E+03</pdfrwt>
<totfact> 0.80776823E+04</totfact>
</mgrwt>
</event>
<event>
 7    0  0.4748297E-002  0.4547544E+03  0.7546771E-02  0.1026314E+00
         21   -1    0    0  502  501  0.00000000000E+00  0.00000000000E+00  0.63627788500E+03  0.63627788500E+03  0.00000000000E+00 0.  1.
         21   -1    0    0  501  502 -0.00000000000E+00 -0.00000000000E+00 -0.81254407054E+02  0.81254407054E+02  0.00000000000E+00 0.  1.
      99926    2    1    2    0    0  0.00000000000E+00  0.00000000000E+00  0.55502347794E+03  0.71753229205E+03  0.45475436124E+03 0.  0.
      99925    2    3    3    0    0 -0.37030342035E+01  0.21116440688E+02  0.52424815020E+03  0.58694038791E+03  0.26306516198E+03 0.  0.
         25    1    4    4    0    0 -0.93564578282E+01  0.23076326530E+02  0.17989147564E+03  0.22051873221E+03  0.12509000000E+03 0.  0.
         25    1    3    3    0    0  0.37030342035E+01 -0.21116440688E+02  0.30775327749E+02  0.13059190414E+03  0.12509000000E+03 0.  0.
         25    1    4    4    0    0  0.56534236247E+01 -0.19598858428E+01  0.34435667456E+03  0.36642165570E+03  0.12509000000E+03 0.  0.
<mgrwt>
<rscale>  2 0.45475436E+03</rscale>
<asrwt>0</asrwt>
<pdfrwt beam="1">  1       21 0.93570275E-01 0.45475436E+03</pdfrwt>
<pdfrwt beam="2">  1       21 0.11949178E-01 0.45475436E+03</pdfrwt>
<totfact> 0.52061941E+04</totfact>
</mgrwt>
</event>
<event>
 7    0  0.4748297E-002  0.4458888E+03  0.7546771E-02  0.1028955E+00
         21   -1    0    0  502  501  0.00000000000E+00  0.00000000000E+00  0.77473174001E+02  0.77473174001E+02  0.00000000000E+00 0.  1.
         21   -1    0    0  501  502 -0.00000000000E+00 -0.00000000000E+00 -0.64156664053E+03  0.64156664053E+03  0.00000000000E+00 0.  1.
      99926    2    1    2    0    0  0.00000000000E+00  0.00000000000E+00 -0.56409346653E+03  0.71903981453E+03  0.44588879320E+03 0.  0.
      99925    2    3    3    0    0  0.10898971572E+02 -0.53031020351E+02 -0.21352407560E+03  0.34290488840E+03  0.26279298873E+03 0.  0.
         25    1    4    4    0    0  0.10430035626E+02 -0.67262120661E+02 -0.11431866433E+03  0.18261775279E+03  0.12509000000E+03 0.  0.
         25    1    4    4    0    0  0.46893594562E+00  0.14231100310E+02 -0.99205411270E+02  0.16028713561E+03  0.12509000000E+03 0.  0.
         25    1    3    3    0    0 -0.10898971572E+02  0.53031020351E+02 -0.35056939093E+03  0.37613492613E+03  0.12509000000E+03 0.  0.
<mgrwt>
<rscale>  2 0.44588879E+03</rscale>
<asrwt>0</asrwt>
<pdfrwt beam="1">  1       21 0.11393114E-01 0.44588879E+03</pdfrwt>
<pdfrwt beam="2">  1       21 0.94348036E-01 0.44588879E+03</pdfrwt>
<totfact> 0.55772191E+04</totfact>
</mgrwt>
</event>
<event>
 7    0  0.4748297E-002  0.4588464E+03  0.7546771E-02  0.1025116E+00
         21   -1    0    0  502  501  0.00000000000E+00  0.00000000000E+00  0.26641833734E+03  0.26641833734E+03  0.00000000000E+00 0. -1.
         21   -1    0    0  501  502 -0.00000000000E+00 -0.00000000000E+00 -0.19756520578E+03  0.19756520578E+03  0.00000000000E+00 0. -1.
      99926    2    1    2    0    0  0.35527136788E-14  0.00000000000E+00  0.68853131562E+02  0.46398354312E+03  0.45884635180E+03 0.  0.
      99925    2    3    3    0    0  0.29979563606E+02  0.87416749584E+02 -0.29015101895E+02  0.28022783148E+03  0.26295493731E+03 0.  0.
         25    1    4    4    0    0  0.46776666543E+01  0.84048176203E+02 -0.94778434123E+01  0.15107386969E+03  0.12509000000E+03 0.  0.
         25    1    4    4    0    0  0.25301896952E+02  0.33685733812E+01 -0.19537258482E+02  0.12915396179E+03  0.12509000000E+03 0.  0.
         25    1    3    3    0    0 -0.29979563606E+02 -0.87416749584E+02  0.97868233457E+02  0.18375571164E+03  0.12509000000E+03 0.  0.
<mgrwt>
<rscale>  2 0.45884635E+03</rscale>
<asrwt>0</asrwt>
<pdfrwt beam="1">  1       21 0.39179168E-01 0.45884635E+03</pdfrwt>
<pdfrwt beam="2">  1       21 0.29053706E-01 0.45884635E+03</pdfrwt>
<totfact> 0.65848145E+04</totfact>
</mgrwt>
</event>
<event>
 7    0  0.4748297E-002  0.4563406E+03  0.7546771E-02  0.1025848E+00
         21   -1    0    0  502  501  0.00000000000E+00  0.00000000000E+00  0.60709202060E+03  0.60709202060E+03  0.00000000000E+00 0. -1.
         21   -1    0    0  501  502 -0.00000000000E+00 -0.00000000000E+00 -0.85755842693E+02  0.85755842693E+02  0.00000000000E+00 0. -1.
      99926    2    1    2    0    0  0.00000000000E+00  0.00000000000E+00  0.52133617791E+03  0.69284786329E+03  0.45634060884E+03 0.  0.
      99925    2    3    3    0    0 -0.15911138411E+02 -0.11117773339E+03  0.29411709874E+03  0.41020025448E+03  0.26295575346E+03 0.  0.
         25    1    4    4    0    0 -0.20880151287E+02 -0.88729770990E+02  0.12714505445E+03  0.20030558142E+03  0.12509000000E+03 0.  0.
         25    1    4    4    0    0  0.49690128755E+01 -0.22447962404E+02  0.16697204428E+03  0.20989467306E+03  0.12509000000E+03 0.  0.
         25    1    3    3    0    0  0.15911138411E+02  0.11117773339E+03  0.22721907917E+03  0.28264760881E+03  0.12509000000E+03 0.  0.
<mgrwt>
<rscale>  2 0.45634061E+03</rscale>
<asrwt>0</asrwt>
<pdfrwt beam="1">  1       21 0.89278236E-01 0.45634061E+03</pdfrwt>
<pdfrwt beam="2">  1       21 0.12611154E-01 0.45634061E+03</pdfrwt>
<totfact> 0.52734369E+04</totfact>
</mgrwt>
</event>
<event>
 7    0  0.4748297E-002  0.4594309E+03  0.7546771E-02  0.1024946E+00
         21   -1    0    0  502  501  0.00000000000E+00  0.00000000000E+00  0.21432223124E+03  0.21432223124E+03  0.00000000000E+00 0.  1.
         21   -1    0    0  501  502 -0.00000000000E+00 -0.00000000000E+00 -0.24621423526E+03  0.24621423526E+03  0.00000000000E+00 0.  1.
      99926    2    1    2    0    0  0.00000000000E+00 -0.14210854715E-13 -0.31892004019E+02  0.46053646650E+03  0.45943088387E+03 0.  0.
      99925    2    3    3    0    0  0.60499185516E+02 -0.94886892494E+02 -0.53265296784E+02  0.29092514742E+03  0.26293834970E+03 0.  0.
         25    1    4    4    0    0  0.62874067744E+02 -0.24898243553E+02 -0.18366499811E+02  0.14338028924E+03  0.12509000000E+03 0.  0.
         25    1    4    4    0    0 -0.23748822278E+01 -0.69988648941E+02 -0.34898796972E+02  0.14754485818E+03  0.12509000000E+03 0.  0.
         25    1    3    3    0    0 -0.60499185516E+02  0.94886892494E+02  0.21373292764E+02  0.16961131908E+03  0.12509000000E+03 0.  0.
<mgrwt>
<rscale>  2 0.45943088E+03</rscale>
<asrwt>0</asrwt>
<pdfrwt beam="1">  1       21 0.31517975E-01 0.45943088E+03</pdfrwt>
<pdfrwt beam="2">  1       21 0.36207976E-01 0.45943088E+03</pdfrwt>
<totfact> 0.65785464E+04</totfact>
</mgrwt>
</event>
<event>
 7    0  0.4748297E-002  0.4234350E+03  0.7546771E-02  0.1035954E+00
         21   -1    0    0  502  501  0.00000000000E+00  0.00000000000E+00  0.17017407368E+04  0.17017407368E+04  0.00000000000E+00 0. -1.
         21   -1    0    0  501  502 -0.00000000000E+00 -0.00000000000E+00 -0.26340261448E+02  0.26340261448E+02  0.00000000000E+00 0. -1.
      99926    2    1    2    0    0  0.00000000000E+00  0.00000000000E+00  0.16754004754E+04  0.17280809982E+04  0.42343498167E+03 0.  0.
      99925    2    3    3    0    0  0.60638501980E+02 -0.24735232700E+02  0.12757147054E+04  0.13041882259E+04  0.26300201388E+03 0.  0.
         25    1    3    3    0    0 -0.60638501980E+02  0.24735232700E+02  0.39968576995E+03  0.42389277236E+03  0.12509000000E+03 0.  0.
         25    1    4    4    0    0 -0.26224536006E+01 -0.47726747398E+01  0.48530622553E+03  0.50119786145E+03  0.12509000000E+03 0.  0.
         25    1    4    4    0    0  0.63260955580E+02 -0.19962557960E+02  0.79040847987E+03  0.80299036444E+03  0.12509000000E+03 0.  0.
<mgrwt>
<rscale>  2 0.42343498E+03</rscale>
<asrwt>0</asrwt>
<pdfrwt beam="1">  1       21 0.25025592E+00 0.42343498E+03</pdfrwt>
<pdfrwt beam="2">  1       21 0.38735690E-02 0.42343498E+03</pdfrwt>
<totfact> 0.24060093E+04</totfact>
</mgrwt>
</event>
<event>
 7    0  0.4748297E-002  0.4553897E+03  0.7546771E-02  0.1026127E+00
         21   -1    0    0  502  501  0.00000000000E+00  0.00000000000E+00  0.65225102682E+03  0.65225102682E+03  0.00000000000E+00 0. -1.
         21   -1    0    0  501  502 -0.00000000000E+00 -0.00000000000E+00 -0.79486193066E+02  0.79486193066E+02  0.00000000000E+00 0. -1.
      99926    2    1    2    0    0 -0.35527136788E-14  0.71054273576E-14  0.57276483376E+03  0.73173721989E+03  0.45538972780E+03 0.  0.
      99925    2    3    3    0    0 -0.26259684800E+02 -0.61409178003E+02  0.21344050786E+03  0.34544440677E+03  0.26327614701E+03 0.  0.
         25    1    4    4    0    0 -0.49015774830E+02 -0.15895033248E+02  0.90040734594E+02  0.16251166189E+03  0.12509000000E+03 0.  0.
         25    1    4    4    0    0  0.22756090030E+02 -0.45514144754E+02  0.12339977327E+03  0.18293274488E+03  0.12509000000E+03 0.  0.
         25    1    3    3    0    0  0.26259684800E+02  0.61409178003E+02  0.35932432589E+03  0.38629281312E+03  0.12509000000E+03 0.  0.
<mgrwt>
<rscale>  2 0.45538973E+03</rscale>
<asrwt>0</asrwt>
<pdfrwt beam="1">  1       21 0.95919266E-01 0.45538973E+03</pdfrwt>
<pdfrwt beam="2">  1       21 0.11689146E-01 0.45538973E+03</pdfrwt>
<totfact> 0.51056863E+04</totfact>
</mgrwt>
</event>
<event>
 7    0  0.4748297E-002  0.4524397E+03  0.7546771E-02  0.1026997E+00
         21   -1    0    0  502  501  0.00000000000E+00  0.00000000000E+00  0.90380165786E+02  0.90380165786E+02  0.00000000000E+00 0.  1.
         21   -1    0    0  501  502 -0.00000000000E+00 -0.00000000000E+00 -0.56622403854E+03  0.56622403854E+03  0.00000000000E+00 0.  1.
      99926    2    1    2    0    0 -0.71054273576E-14  0.00000000000E+00 -0.47584387275E+03  0.65660420433E+03  0.45243970858E+03 0.  0.
      99925    2    3    3    0    0 -0.63799647244E+02 -0.89448628443E+02 -0.28062330097E+03  0.40003056604E+03  0.26306570395E+03 0.  0.
         25    1    4    4    0    0  0.79406296541E+01 -0.52368349848E+02 -0.14383486311E+03  0.19784204207E+03  0.12509000000E+03 0.  0.
         25    1    3    3    0    0  0.63799647244E+02  0.89448628443E+02 -0.19522057178E+03  0.25657363829E+03  0.12509000000E+03 0.  0.
         25    1    4    4    0    0 -0.71740276898E+02 -0.37080278595E+02 -0.13678843786E+03  0.20218852396E+03  0.12509000000E+03 0.  0.
<mgrwt>
<rscale>  2 0.45243971E+03</rscale>
<asrwt>0</asrwt>
<pdfrwt beam="1">  1       21 0.13291201E-01 0.45243971E+03</pdfrwt>
<pdfrwt beam="2">  1       21 0.83268243E-01 0.45243971E+03</pdfrwt>
<totfact> 0.56453833E+04</totfact>
</mgrwt>
</event>
<event>
 7    0  0.4748297E-002  0.4612771E+03  0.7546771E-02  0.1024411E+00
         21   -1    0    0  502  501  0.00000000000E+00  0.00000000000E+00  0.10401073336E+04  0.10401073336E+04  0.00000000000E+00 0.  1.
         21   -1    0    0  501  502 -0.00000000000E+00 -0.00000000000E+00 -0.51142938723E+02  0.51142938723E+02  0.00000000000E+00 0.  1.
      99926    2    1    2    0    0  0.00000000000E+00 -0.71054273576E-14  0.98896439492E+03  0.10912502724E+04  0.46127712117E+03 0.  0.
      99925    2    3    3    0    0 -0.72083488722E+02 -0.54622437598E+02  0.43591329988E+03  0.51706157354E+03  0.26296886847E+03 0.  0.
         25    1    4    4    0    0 -0.38878492758E+02  0.13735569470E+02  0.20870991849E+03  0.24679453244E+03  0.12509000000E+03 0.  0.
         25    1    4    4    0    0 -0.33204995964E+02 -0.68358007068E+02  0.22720338139E+03  0.27026704109E+03  0.12509000000E+03 0.  0.
         25    1    3    3    0    0  0.72083488722E+02  0.54622437598E+02  0.55305109504E+03  0.57418869883E+03  0.12509000000E+03 0.  0.
<mgrwt>
<rscale>  2 0.46127712E+03</rscale>
<asrwt>0</asrwt>
<pdfrwt beam="1">  1       21 0.15295695E+00 0.46127712E+03</pdfrwt>
<pdfrwt beam="2">  1       21 0.75210211E-02 0.46127712E+03</pdfrwt>
<totfact> 0.34098377E+04</totfact>
</mgrwt>
</event>
<event>
 7    0  0.4748297E-002  0.4503881E+03  0.7546771E-02  0.1027606E+00
         21   -1    0    0  502  501  0.00000000000E+00  0.00000000000E+00  0.89467590757E+03  0.89467590757E+03  0.00000000000E+00 0. -1.
         21   -1    0    0  501  502 -0.00000000000E+00 -0.00000000000E+00 -0.56682391834E+02  0.56682391834E+02  0.00000000000E+00 0. -1.
      99926    2    1    2    0    0  0.00000000000E+00  0.00000000000E+00  0.83799351574E+03  0.95135829940E+03  0.45038814530E+03 0.  0.
      99925    2    3    3    0    0 -0.10383192580E+03 -0.30631706049E+02  0.55835159007E+03  0.62644833508E+03  0.26260549910E+03 0.  0.
         25    1    4    4    0    0 -0.60209085686E+02 -0.28329669811E+02  0.20612971806E+03  0.25012931247E+03  0.12509000000E+03 0.  0.
         25    1    3    3    0    0  0.10383192580E+03  0.30631706049E+02  0.27964192567E+03  0.32490996433E+03  0.12509000000E+03 0.  0.
         25    1    4    4    0    0 -0.43622840110E+02 -0.23020362379E+01  0.35222187201E+03  0.37631902260E+03  0.12509000000E+03 0.  0.
<mgrwt>
<rscale>  2 0.45038815E+03</rscale>
<asrwt>0</asrwt>
<pdfrwt beam="1">  1       21 0.13156998E+00 0.45038815E+03</pdfrwt>
<pdfrwt beam="2">  1       21 0.83356464E-02 0.45038815E+03</pdfrwt>
<totfact> 0.42601569E+04</totfact>
</mgrwt>
</event>
<event>
 7    0  0.4748297E-002  0.4588768E+03  0.7546771E-02  0.1025107E+00
         21   -1    0    0  502  501  0.00000000000E+00  0.00000000000E+00  0.70042718319E+02  0.70042718319E+02  0.00000000000E+00 0. -1.
         21   -1    0    0  501  502 -0.00000000000E+00 -0.00000000000E+00 -0.75156973711E+03  0.75156973711E+03  0.00000000000E+00 0. -1.
      99926    2    1    2    0    0  0.00000000000E+00  0.00000000000E+00 -0.68152701879E+03  0.82161245543E+03  0.45887683486E+03 0.  0.
      99925    2    3    3    0    0 -0.14623902034E+02  0.75325704100E+02 -0.26972819247E+03  0.38444703860E+03  0.26297986134E+03 0.  0.
         25    1    4    4    0    0 -0.15472138728E+02  0.45472388254E+02 -0.19214209660E+03  0.23425033309E+03  0.12509000000E+03 0.  0.
         25    1    3    3    0    0  0.14623902034E+02 -0.75325704100E+02 -0.41179882632E+03  0.43716541683E+03  0.12509000000E+03 0.  0.
         25    1    4    4    0    0  0.84823669381E+00  0.29853315847E+02 -0.77586095870E+02  0.15019670551E+03  0.12509000000E+03 0.  0.
<mgrwt>
<rscale>  2 0.45887683E+03</rscale>
<asrwt>0</asrwt>
<pdfrwt beam="1">  1       21 0.10300400E-01 0.45887683E+03</pdfrwt>
<pdfrwt beam="2">  1       21 0.11052496E+00 0.45887683E+03</pdfrwt>
<totfact> 0.45342033E+04</totfact>
</mgrwt>
</event>
<event>
 7    0  0.4748297E-002  0.4479009E+03  0.7546771E-02  0.1028350E+00
         21   -1    0    0  502  501  0.00000000000E+00  0.00000000000E+00  0.54088022514E+02  0.54088022514E+02  0.00000000000E+00 0. -1.
         21   -1    0    0  501  502 -0.00000000000E+00 -0.00000000000E+00 -0.92726269639E+03  0.92726269639E+03  0.00000000000E+00 0. -1.
      99926    2    1    2    0    0  0.14210854715E-13 -0.71054273576E-14 -0.87317467387E+03  0.98135071890E+03  0.44790090689E+03 0.  0.
      99925    2    3    3    0    0  0.98229003626E+02 -0.38927554103E+02 -0.58015869426E+03  0.64568695256E+03  0.26298904647E+03 0.  0.
         25    1    3    3    0    0 -0.98229003626E+02  0.38927554103E+02 -0.29301597961E+03  0.33566376634E+03  0.12509000000E+03 0.  0.
         25    1    4    4    0    0  0.77909719858E+02 -0.10153211364E+02 -0.37245452683E+03  0.40067804383E+03  0.12509000000E+03 0.  0.
         25    1    4    4    0    0  0.20319283768E+02 -0.28774342739E+02 -0.20770416743E+03  0.24500890873E+03  0.12509000000E+03 0.  0.
<mgrwt>
<rscale>  2 0.44790091E+03</rscale>
<asrwt>0</asrwt>
<pdfrwt beam="1">  1       21 0.79541216E-02 0.44790091E+03</pdfrwt>
<pdfrwt beam="2">  1       21 0.13636215E+00 0.44790091E+03</pdfrwt>
<totfact> 0.42189508E+04</totfact>
</mgrwt>
</event>
<event>
 7    0  0.4748297E-002  0.4651134E+03  0.7546771E-02  0.1023309E+00
         21   -1    0    0  502  501  0.00000000000E+00  0.00000000000E+00  0.66877816320E+02  0.66877816320E+02  0.00000000000E+00 0. -1.
         21   -1    0    0  501  502 -0.00000000000E+00 -0.00000000000E+00 -0.80867782678E+03  0.80867782678E+03  0.00000000000E+00 0. -1.
      99926    2    1    2    0    0 -0.71054273576E-14  0.00000000000E+00 -0.74180001046E+03  0.87555564310E+03  0.46511335032E+03 0.  0.
      99925    2    3    3    0    0  0.32106067672E+02 -0.10607138024E+03 -0.36476319087E+03  0.46314055036E+03  0.26299248410E+03 0.  0.
         25    1    4    4    0    0  0.34706922702E+02 -0.16918640060E+02 -0.15015863152E+03  0.19921328666E+03  0.12509000000E+03 0.  0.
         25    1    4    4    0    0 -0.26008550305E+01 -0.89152740183E+02 -0.21460455935E+03  0.26392726370E+03  0.12509000000E+03 0.  0.
         25    1    3    3    0    0 -0.32106067672E+02  0.10607138024E+03 -0.37703681960E+03  0.41241509274E+03  0.12509000000E+03 0.  0.
<mgrwt>
<rscale>  2 0.46511335E+03</rscale>
<asrwt>0</asrwt>
<pdfrwt beam="1">  1       21 0.98349737E-02 0.46511335E+03</pdfrwt>
<pdfrwt beam="2">  1       21 0.11892320E+00 0.46511335E+03</pdfrwt>
<totfact> 0.40964825E+04</totfact>
</mgrwt>
</event>
<event>
 6    0  0.4748297E-002  0.4427071E+03  0.7546771E-02  0.1029919E+00
         21   -1    0    0  502  501  0.00000000000E+00  0.00000000000E+00  0.37001100776E+03  0.37001100776E+03  0.00000000000E+00 0. -1.
         21   -1    0    0  501  502 -0.00000000000E+00 -0.00000000000E+00 -0.13242142613E+03  0.13242142613E+03  0.00000000000E+00 0. -1.
      99926    2    1    2    0    0  0.00000000000E+00  0.00000000000E+00  0.23758958162E+03  0.50243243389E+03  0.44270706040E+03 0.  0.
         25    1    3    3    0    0  0.73588472129E+02  0.45795500930E+02  0.32925274724E+02  0.15570508326E+03  0.12509000000E+03 0.  0.
         25    1    3    3    0    0 -0.53782737591E+02 -0.26328920779E+02  0.15831075859E+03  0.21046519740E+03  0.12509000000E+03 0.  0.
         25    1    3    3    0    0 -0.19805734538E+02 -0.19466580151E+02  0.46353548314E+02  0.13626215324E+03  0.12509000000E+03 0.  0.
<mgrwt>
<rscale>  2 0.44270706E+03</rscale>
<asrwt>0</asrwt>
<pdfrwt beam="1">  1       21 0.54413383E-01 0.44270706E+03</pdfrwt>
<pdfrwt beam="2">  1       21 0.19473739E-01 0.44270706E+03</pdfrwt>
<totfact> 0.71858968E+04</totfact>
</mgrwt>
</event>
<event>
 7    0  0.4748297E-002  0.4602651E+03  0.7546771E-02  0.1024704E+00
         21   -1    0    0  502  501  0.00000000000E+00  0.00000000000E+00  0.71547001313E+02  0.71547001313E+02  0.00000000000E+00 0. -1.
         21   -1    0    0  501  502 -0.00000000000E+00 -0.00000000000E+00 -0.74022656231E+03  0.74022656231E+03  0.00000000000E+00 0. -1.
      99926    2    1    2    0    0  0.00000000000E+00 -0.14210854715E-13 -0.66867956100E+03  0.81177356363E+03  0.46026510111E+03 0.  0.
      99925    2    3    3    0    0  0.50650000887E+02  0.73297644129E+02 -0.28239004254E+03  0.39607527473E+03  0.26304661164E+03 0.  0.
         25    1    3    3    0    0 -0.50650000887E+02 -0.73297644129E+02 -0.38628951846E+03  0.41569828890E+03  0.12509000000E+03 0.  0.
         25    1    4    4    0    0  0.22219144597E+02 -0.55171618986E+01 -0.12953601616E+03  0.18152470092E+03  0.12509000000E+03 0.  0.
         25    1    4    4    0    0  0.28430856290E+02  0.78814806027E+02 -0.15285402638E+03  0.21455057381E+03  0.12509000000E+03 0.  0.
<mgrwt>
<rscale>  2 0.46026510E+03</rscale>
<asrwt>0</asrwt>
<pdfrwt beam="1">  1       21 0.10521618E-01 0.46026510E+03</pdfrwt>
<pdfrwt beam="2">  1       21 0.10885685E+00 0.46026510E+03</pdfrwt>
<totfact> 0.45299801E+04</totfact>
</mgrwt>
</event>
<event>
 7    0  0.4748297E-002  0.4635505E+03  0.7546771E-02  0.1023756E+00
         21   -1    0    0  502  501  0.00000000000E+00  0.00000000000E+00  0.12853155962E+03  0.12853155962E+03  0.00000000000E+00 0. -1.
         21   -1    0    0  501  502 -0.00000000000E+00 -0.00000000000E+00 -0.41795003171E+03  0.41795003171E+03  0.00000000000E+00 0. -1.
      99926    2    1    2    0    0  0.00000000000E+00  0.00000000000E+00 -0.28941847209E+03  0.54648159133E+03  0.46355051253E+03 0.  0.
      99925    2    3    3    0    0 -0.26088857408E+02  0.76559251169E+02 -0.28686070840E+03  0.39749837860E+03  0.26300940581E+03 0.  0.
         25    1    3    3    0    0  0.26088857408E+02 -0.76559251169E+02 -0.25577636929E+01  0.14898321273E+03  0.12509000000E+03 0.  0.
         25    1    4    4    0    0 -0.28317455035E+02  0.68868149753E+02 -0.18848924950E+03  0.23816046184E+03  0.12509000000E+03 0.  0.
         25    1    4    4    0    0  0.22285976264E+01  0.76911014155E+01 -0.98371458902E+02  0.15933791675E+03  0.12509000000E+03 0.  0.
<mgrwt>
<rscale>  2 0.46355051E+03</rscale>
<asrwt>0</asrwt>
<pdfrwt beam="1">  1       21 0.18901700E-01 0.46355051E+03</pdfrwt>
<pdfrwt beam="2">  1       21 0.61463241E-01 0.46355051E+03</pdfrwt>
<totfact> 0.58069053E+04</totfact>
</mgrwt>
</event>
<event>
 7    0  0.4748297E-002  0.4767142E+03  0.7546771E-02  0.1020042E+00
         21   -1    0    0  502  501  0.00000000000E+00  0.00000000000E+00  0.34710150008E+03  0.34710150008E+03  0.00000000000E+00 0. -1.
         21   -1    0    0  501  502 -0.00000000000E+00 -0.00000000000E+00 -0.16368151573E+03  0.16368151573E+03  0.00000000000E+00 0. -1.
      99926    2    1    2    0    0  0.00000000000E+00  0.00000000000E+00  0.18341998435E+03  0.51078301582E+03  0.47671416865E+03 0.  0.
      99925    2    3    3    0    0 -0.79456522701E+02 -0.61057814612E+02  0.20619571939E+03  0.34889528332E+03  0.26300161274E+03 0.  0.
         25    1    4    4    0    0 -0.21809177615E+02 -0.37778760072E+02  0.56132768576E+02  0.14387936179E+03  0.12509000000E+03 0.  0.
         25    1    3    3    0    0  0.79456522701E+02  0.61057814612E+02 -0.22775735040E+02  0.16188773249E+03  0.12509000000E+03 0.  0.
         25    1    4    4    0    0 -0.57647345086E+02 -0.23279054540E+02  0.15006295081E+03  0.20501592154E+03  0.12509000000E+03 0.  0.
<mgrwt>
<rscale>  2 0.47671417E+03</rscale>
<asrwt>0</asrwt>
<pdfrwt beam="1">  1       21 0.51044338E-01 0.47671417E+03</pdfrwt>
<pdfrwt beam="2">  1       21 0.24070811E-01 0.47671417E+03</pdfrwt>
<totfact> 0.54501785E+04</totfact>
</mgrwt>
</event>
<event>
 7    0  0.4748297E-002  0.4575549E+03  0.7546771E-02  0.1025493E+00
         21   -1    0    0  502  501  0.00000000000E+00  0.00000000000E+00  0.14303652140E+03  0.14303652140E+03  0.00000000000E+00 0.  1.
         21   -1    0    0  501  502 -0.00000000000E+00 -0.00000000000E+00 -0.36591434217E+03  0.36591434217E+03  0.00000000000E+00 0.  1.
      99926    2    1    2    0    0  0.14210854715E-13  0.00000000000E+00 -0.22287782078E+03  0.50895086357E+03  0.45755486943E+03 0.  0.
      99925    2    3    3    0    0 -0.91639406789E+02  0.55790731542E+02 -0.18756437873E+03  0.34041323011E+03  0.26304065173E+03 0.  0.
         25    1    4    4    0    0 -0.79952983018E+02  0.59450053784E+01 -0.10651481500E+03  0.18281339256E+03  0.12509000000E+03 0.  0.
         25    1    4    4    0    0 -0.11686423771E+02  0.49845726163E+02 -0.81049563728E+02  0.15759983756E+03  0.12509000000E+03 0.  0.
         25    1    3    3    0    0  0.91639406789E+02 -0.55790731542E+02 -0.35313442046E+02  0.16853763346E+03  0.12509000000E+03 0.  0.
<mgrwt>
<rscale>  2 0.45755487E+03</rscale>
<asrwt>0</asrwt>
<pdfrwt beam="1">  1       21 0.21034783E-01 0.45755487E+03</pdfrwt>
<pdfrwt beam="2">  1       21 0.53810932E-01 0.45755487E+03</pdfrwt>
<totfact> 0.63351901E+04</totfact>
</mgrwt>
</event>
<event>
 7    0  0.4748297E-002  0.4538226E+03  0.7546771E-02  0.1026588E+00
         21   -1    0    0  502  501  0.00000000000E+00  0.00000000000E+00  0.18529160053E+03  0.18529160053E+03  0.00000000000E+00 0. -1.
         21   -1    0    0  501  502 -0.00000000000E+00 -0.00000000000E+00 -0.27787954825E+03  0.27787954825E+03  0.00000000000E+00 0. -1.
      99926    2    1    2    0    0  0.00000000000E+00  0.00000000000E+00 -0.92587947718E+02  0.46317114878E+03  0.45382263606E+03 0.  0.
      99925    2    3    3    0    0  0.50930746421E+02  0.95867645414E+02 -0.86675946279E+02  0.29743941909E+03  0.26300749418E+03 0.  0.
         25    1    3    3    0    0 -0.50930746421E+02 -0.95867645414E+02 -0.59120014384E+01  0.16573172970E+03  0.12509000000E+03 0.  0.
         25    1    4    4    0    0  0.40753622333E+02  0.69373154180E+02 -0.12473159220E+02  0.14925340886E+03  0.12509000000E+03 0.  0.
         25    1    4    4    0    0  0.10177124088E+02  0.26494491234E+02 -0.74202787059E+02  0.14818601023E+03  0.12509000000E+03 0.  0.
<mgrwt>
<rscale>  2 0.45382264E+03</rscale>
<asrwt>0</asrwt>
<pdfrwt beam="1">  1       21 0.27248765E-01 0.45382264E+03</pdfrwt>
<pdfrwt beam="2">  1       21 0.40864640E-01 0.45382264E+03</pdfrwt>
<totfact> 0.68585894E+04</totfact>
</mgrwt>
</event>
<event>
 7    0  0.4748297E-002  0.4486861E+03  0.7546771E-02  0.1028115E+00
         21   -1    0    0  502  501  0.00000000000E+00  0.00000000000E+00  0.54574065868E+02  0.54574065868E+02  0.00000000000E+00 0. -1.
         21   -1    0    0  501  502 -0.00000000000E+00 -0.00000000000E+00 -0.92222928929E+03  0.92222928929E+03  0.00000000000E+00 0. -1.
      99926    2    1    2    0    0  0.00000000000E+00 -0.71054273576E-14 -0.86765522342E+03  0.97680335515E+03  0.44868609062E+03 0.  0.
      99925    2    3    3    0    0  0.92603908678E+02  0.45318182294E+02 -0.61331936143E+03  0.67520186255E+03  0.26288342385E+03 0.  0.
         25    1    3    3    0    0 -0.92603908678E+02 -0.45318182294E+02 -0.25433586198E+03  0.30160149260E+03  0.12509000000E+03 0.  0.
         25    1    4    4    0    0  0.43429903572E+02 -0.11557614022E+02 -0.34571231599E+03  0.37038392040E+03  0.12509000000E+03 0.  0.
         25    1    4    4    0    0  0.49174005106E+02  0.56875796316E+02 -0.26760704544E+03  0.30481794215E+03  0.12509000000E+03 0.  0.
<mgrwt>
<rscale>  2 0.44868609E+03</rscale>
<asrwt>0</asrwt>
<pdfrwt beam="1">  1       21 0.80255983E-02 0.44868609E+03</pdfrwt>
<pdfrwt beam="2">  1       21 0.13562195E+00 0.44868609E+03</pdfrwt>
<totfact> 0.42114574E+04</totfact>
</mgrwt>
</event>
<event>
 7    0  0.4748297E-002  0.4512957E+03  0.7546771E-02  0.1027336E+00
         21   -1    0    0  502  501  0.00000000000E+00  0.00000000000E+00  0.17160863712E+03  0.17160863712E+03  0.00000000000E+00 0. -1.
         21   -1    0    0  501  502 -0.00000000000E+00 -0.00000000000E+00 -0.29670391875E+03  0.29670391875E+03  0.00000000000E+00 0. -1.
      99926    2    1    2    0    0  0.00000000000E+00  0.14210854715E-13 -0.12509528163E+03  0.46831255586E+03  0.45129571291E+03 0.  0.
      99925    2    3    3    0    0 -0.22394810372E+02 -0.10291896026E+03 -0.11052745584E+03  0.30413713273E+03  0.26303847076E+03 0.  0.
         25    1    4    4    0    0  0.20184690510E+02 -0.24207200283E+02 -0.41106499115E+02  0.13539077755E+03  0.12509000000E+03 0.  0.
         25    1    4    4    0    0 -0.42579500882E+02 -0.78711759977E+02 -0.69420956723E+02  0.16874635518E+03  0.12509000000E+03 0.  0.
         25    1    3    3    0    0  0.22394810372E+02  0.10291896026E+03 -0.14567825794E+02  0.16417542313E+03  0.12509000000E+03 0.  0.
<mgrwt>
<rscale>  2 0.45129571E+03</rscale>
<asrwt>0</asrwt>
<pdfrwt beam="1">  1       21 0.25236564E-01 0.45129571E+03</pdfrwt>
<pdfrwt beam="2">  1       21 0.43632929E-01 0.45129571E+03</pdfrwt>
<totfact> 0.69583947E+04</totfact>
</mgrwt>
</event>
<event>
 7    0  0.4748297E-002  0.4509900E+03  0.7546771E-02  0.1027427E+00
         21   -1    0    0  502  501  0.00000000000E+00  0.00000000000E+00  0.19147447112E+03  0.19147447112E+03  0.00000000000E+00 0. -1.
         21   -1    0    0  501  502 -0.00000000000E+00 -0.00000000000E+00 -0.26556022751E+03  0.26556022751E+03  0.00000000000E+00 0. -1.
      99926    2    1    2    0    0  0.00000000000E+00  0.00000000000E+00 -0.74085756395E+02  0.45703469863E+03  0.45099004030E+03 0.  0.
      99925    2    3    3    0    0 -0.32766762363E+01 -0.58398908291E+02 -0.13989444081E+03  0.30406587782E+03  0.26356106386E+03 0.  0.
         25    1    4    4    0    0  0.15321235573E+02 -0.13688221997E+02 -0.29036736651E+02  0.13004902097E+03  0.12509000000E+03 0.  0.
         25    1    3    3    0    0  0.32766762363E+01  0.58398908291E+02  0.65808684420E+02  0.15296882082E+03  0.12509000000E+03 0.  0.
         25    1    4    4    0    0 -0.18597911809E+02 -0.44710686293E+02 -0.11085770416E+03  0.17401685684E+03  0.12509000000E+03 0.  0.
<mgrwt>
<rscale>  2 0.45099004E+03</rscale>
<asrwt>0</asrwt>
<pdfrwt beam="1">  1       21 0.28158011E-01 0.45099004E+03</pdfrwt>
<pdfrwt beam="2">  1       21 0.39052974E-01 0.45099004E+03</pdfrwt>
<totfact> 0.70628795E+04</totfact>
</mgrwt>
</event>
<event>
 7    0  0.4748297E-002  0.4494061E+03  0.7546771E-02  0.1027899E+00
         21   -1    0    0  502  501  0.00000000000E+00  0.00000000000E+00  0.24044746159E+03  0.24044746159E+03  0.00000000000E+00 0. -1.
         21   -1    0    0  501  502 -0.00000000000E+00 -0.00000000000E+00 -0.20998956786E+03  0.20998956786E+03  0.00000000000E+00 0. -1.
      99926    2    1    2    0    0  0.00000000000E+00  0.00000000000E+00  0.30457893723E+02  0.45043702945E+03  0.44940609053E+03 0.  0.
      99925    2    3    3    0    0 -0.17154640174E+02  0.76849549881E+02 -0.54615332440E+02  0.27989349569E+03  0.26297794469E+03 0.  0.
         25    1    4    4    0    0 -0.40512094665E+02  0.48133277470E+02 -0.52156594747E+02  0.14941840814E+03  0.12509000000E+03 0.  0.
         25    1    4    4    0    0  0.23357454491E+02  0.28716272411E+02 -0.24587376932E+01  0.13047508756E+03  0.12509000000E+03 0.  0.
         25    1    3    3    0    0  0.17154640174E+02 -0.76849549881E+02  0.85073226164E+02  0.17054353376E+03  0.12509000000E+03 0.  0.
<mgrwt>
<rscale>  2 0.44940609E+03</rscale>
<asrwt>0</asrwt>
<pdfrwt beam="1">  1       21 0.35359921E-01 0.44940609E+03</pdfrwt>
<pdfrwt beam="2">  1       21 0.30880819E-01 0.44940609E+03</pdfrwt>
<totfact> 0.72043602E+04</totfact>
</mgrwt>
</event>
<event>
 7    0  0.4748297E-002  0.4680768E+03  0.7546771E-02  0.1022464E+00
         21   -1    0    0  502  501  0.00000000000E+00  0.00000000000E+00  0.17685652625E+03  0.17685652625E+03  0.00000000000E+00 0. -1.
         21   -1    0    0  501  502 -0.00000000000E+00 -0.00000000000E+00 -0.30970852821E+03  0.30970852821E+03  0.00000000000E+00 0. -1.
      99926    2    1    2    0    0  0.00000000000E+00 -0.17763568394E-14 -0.13285200196E+03  0.48656505446E+03  0.46807680758E+03 0.  0.
      99925    2    3    3    0    0  0.10673973805E+03  0.13384565842E+02 -0.16323047607E+02  0.28457737269E+03  0.26295497882E+03 0.  0.
         25    1    4    4    0    0  0.87053925612E+02  0.26200344690E+02  0.86345919145E+01  0.15487707482E+03  0.12509000000E+03 0.  0.
         25    1    4    4    0    0  0.19685812439E+02 -0.12815778849E+02 -0.24957639521E+02  0.12970029788E+03  0.12509000000E+03 0.  0.
         25    1    3    3    0    0 -0.10673973805E+03 -0.13384565842E+02 -0.11652895436E+03  0.20198768177E+03  0.12509000000E+03 0.  0.
<mgrwt>
<rscale>  2 0.46807681E+03</rscale>
<asrwt>0</asrwt>
<pdfrwt beam="1">  1       21 0.26008313E-01 0.46807681E+03</pdfrwt>
<pdfrwt beam="2">  1       21 0.45545371E-01 0.46807681E+03</pdfrwt>
<totfact> 0.59775909E+04</totfact>
</mgrwt>
</event>
<event>
 7    0  0.4748297E-002  0.4567452E+03  0.7546771E-02  0.1025729E+00
         21   -1    0    0  502  501  0.00000000000E+00  0.00000000000E+00  0.19313517774E+03  0.19313517774E+03  0.00000000000E+00 0. -1.
         21   -1    0    0  501  502 -0.00000000000E+00 -0.00000000000E+00 -0.27003910447E+03  0.27003910447E+03  0.00000000000E+00 0. -1.
      99926    2    1    2    0    0  0.14210854715E-13  0.71054273576E-14 -0.76903926732E+02  0.46317428221E+03  0.45674522630E+03 0.  0.
      99925    2    3    3    0    0 -0.66993128679E+02 -0.55447336044E+02  0.27403253264E+02  0.27853955562E+03  0.26319357779E+03 0.  0.
         25    1    4    4    0    0 -0.36755200196E+02 -0.75163662187E+01  0.49075504585E+02  0.13951112412E+03  0.12509000000E+03 0.  0.
         25    1    3    3    0    0  0.66993128679E+02  0.55447336044E+02 -0.10430718000E+03  0.18463472659E+03  0.12509000000E+03 0.  0.
         25    1    4    4    0    0 -0.30237928483E+02 -0.47930969825E+02 -0.21672251321E+02  0.13902843150E+03  0.12509000000E+03 0.  0.
<mgrwt>
<rscale>  2 0.45674523E+03</rscale>
<asrwt>0</asrwt>
<pdfrwt beam="1">  1       21 0.28402232E-01 0.45674523E+03</pdfrwt>
<pdfrwt beam="2">  1       21 0.39711633E-01 0.45674523E+03</pdfrwt>
<totfact> 0.67011313E+04</totfact>
</mgrwt>
</event>
<event>
 7    0  0.4748297E-002  0.4457836E+03  0.7546771E-02  0.1028987E+00
         21   -1    0    0  502  501  0.00000000000E+00  0.00000000000E+00  0.38417890914E+03  0.38417890914E+03  0.00000000000E+00 0.  1.
         21   -1    0    0  501  502 -0.00000000000E+00 -0.00000000000E+00 -0.12931672162E+03  0.12931672162E+03  0.00000000000E+00 0.  1.
      99926    2    1    2    0    0  0.00000000000E+00  0.00000000000E+00  0.25486218753E+03  0.51349563076E+03  0.44578361138E+03 0.  0.
      99925    2    3    3    0    0  0.48984387865E+02 -0.73498140048E+02  0.10001021204E+03  0.29571572063E+03  0.26390206151E+03 0.  0.
         25    1    3    3    0    0 -0.48984387865E+02  0.73498140048E+02  0.15485197549E+03  0.21777991013E+03  0.12509000000E+03 0.  0.
         25    1    4    4    0    0  0.20571425093E+02  0.64597024390E+01  0.40068500684E+02  0.13310861780E+03  0.12509000000E+03 0.  0.
         25    1    4    4    0    0  0.28412962771E+02 -0.79957842487E+02  0.59941711356E+02  0.16260710282E+03  0.12509000000E+03 0.  0.
<mgrwt>
<rscale>  2 0.44578361E+03</rscale>
<asrwt>0</asrwt>
<pdfrwt beam="1">  1       21 0.56496898E-01 0.44578361E+03</pdfrwt>
<pdfrwt beam="2">  1       21 0.19017165E-01 0.44578361E+03</pdfrwt>
<totfact> 0.69260211E+04</totfact>
</mgrwt>
</event>
<event>
 7    0  0.4748297E-002  0.4559627E+03  0.7546771E-02  0.1025959E+00
         21   -1    0    0  502  501  0.00000000000E+00  0.00000000000E+00  0.62914869479E+03  0.62914869479E+03  0.00000000000E+00 0. -1.
         21   -1    0    0  501  502 -0.00000000000E+00 -0.00000000000E+00 -0.82612433024E+02  0.82612433024E+02  0.00000000000E+00 0. -1.
      99926    2    1    2    0    0  0.00000000000E+00  0.14210854715E-13  0.54653626177E+03  0.71176112781E+03  0.45596273712E+03 0.  0.
      99925    2    3    3    0    0  0.27247720842E+02  0.10643751030E+03  0.39154817440E+03  0.48429641139E+03  0.26298604398E+03 0.  0.
         25    1    3    3    0    0 -0.27247720842E+02 -0.10643751030E+03  0.15498808737E+03  0.22746471642E+03  0.12509000000E+03 0.  0.
         25    1    4    4    0    0 -0.55463556552E+01  0.28267750366E+02  0.22782622624E+03  0.26149976145E+03  0.12509000000E+03 0.  0.
         25    1    4    4    0    0  0.32794076497E+02  0.78169759932E+02  0.16372194815E+03  0.22279664995E+03  0.12509000000E+03 0.  0.
<mgrwt>
<rscale>  2 0.45596274E+03</rscale>
<asrwt>0</asrwt>
<pdfrwt beam="1">  1       21 0.92521864E-01 0.45596274E+03</pdfrwt>
<pdfrwt beam="2">  1       21 0.12148888E-01 0.45596274E+03</pdfrwt>
<totfact> 0.51875042E+04</totfact>
</mgrwt>
</event>
<event>
 7    0  0.4748297E-002  0.4022891E+03  0.7546771E-02  0.1042990E+00
         21   -1    0    0  502  501  0.00000000000E+00  0.00000000000E+00  0.19956543116E+03  0.19956543116E+03  0.00000000000E+00 0. -1.
         21   -1    0    0  501  502 -0.00000000000E+00 -0.00000000000E+00 -0.20273617303E+03  0.20273617303E+03  0.00000000000E+00 0. -1.
      99926    2    1    2    0    0  0.00000000000E+00 -0.17763568394E-14 -0.31707418729E+01  0.40230160419E+03  0.40228910889E+03 0.  0.
      99925    2    3    3    0    0 -0.34571356177E+02 -0.15840134351E+02  0.29932876214E+02  0.26743334939E+03  0.26301811870E+03 0.  0.
         25    1    4    4    0    0 -0.61065895453E+01  0.21906887278E+02 -0.10914436313E+02  0.12760813127E+03  0.12509000000E+03 0.  0.
         25    1    4    4    0    0 -0.28464766631E+02 -0.37747021629E+02  0.40847312527E+02  0.13982521812E+03  0.12509000000E+03 0.  0.
         25    1    3    3    0    0  0.34571356177E+02  0.15840134351E+02 -0.33103618087E+02  0.13486825481E+03  0.12509000000E+03 0.  0.
<mgrwt>
<rscale>  2 0.40228911E+03</rscale>
<asrwt>0</asrwt>
<pdfrwt beam="1">  1       21 0.29347858E-01 0.40228911E+03</pdfrwt>
<pdfrwt beam="2">  1       21 0.29814143E-01 0.40228911E+03</pdfrwt>
<totfact> 0.11323525E+05</totfact>
</mgrwt>
</event>
<event>
 7    0  0.4748297E-002  0.4577122E+03  0.7546771E-02  0.1025447E+00
         21   -1    0    0  502  501  0.00000000000E+00  0.00000000000E+00  0.19645692205E+03  0.19645692205E+03  0.00000000000E+00 0. -1.
         21   -1    0    0  501  502 -0.00000000000E+00 -0.00000000000E+00 -0.26659843978E+03  0.26659843978E+03  0.00000000000E+00 0. -1.
      99926    2    1    2    0    0  0.00000000000E+00  0.00000000000E+00 -0.70141517733E+02  0.46305536182E+03  0.45771217550E+03 0.  0.
      99925    2    3    3    0    0 -0.79569604413E+02  0.82756417034E+02 -0.58288610536E+02  0.29285563792E+03  0.26303405870E+03 0.  0.
         25    1    4    4    0    0 -0.14274201847E+02  0.73043094210E+02 -0.29570557319E+02  0.14852936548E+03  0.12509000000E+03 0.  0.
         25    1    3    3    0    0  0.79569604413E+02 -0.82756417034E+02 -0.11852907197E+02  0.17019972390E+03  0.12509000000E+03 0.  0.
         25    1    4    4    0    0 -0.65295402565E+02  0.97133228234E+01 -0.28718053217E+02  0.14432627244E+03  0.12509000000E+03 0.  0.
<mgrwt>
<rscale>  2 0.45771218E+03</rscale>
<asrwt>0</asrwt>
<pdfrwt beam="1">  1       21 0.28890724E-01 0.45771218E+03</pdfrwt>
<pdfrwt beam="2">  1       21 0.39205653E-01 0.45771218E+03</pdfrwt>
<totfact> 0.66508301E+04</totfact>
</mgrwt>
</event>
<event>
 7    0  0.4748297E-002  0.4604597E+03  0.7546771E-02  0.1024648E+00
         21   -1    0    0  502  501  0.00000000000E+00  0.00000000000E+00  0.13618552183E+03  0.13618552183E+03  0.00000000000E+00 0.  1.
         21   -1    0    0  501  502 -0.00000000000E+00 -0.00000000000E+00 -0.38921747558E+03  0.38921747558E+03  0.00000000000E+00 0.  1.
      99926    2    1    2    0    0  0.00000000000E+00 -0.17763568394E-14 -0.25303195375E+03  0.52540299740E+03  0.46045970515E+03 0.  0.
      99925    2    3    3    0    0  0.96548874157E+02  0.99593906607E+01 -0.23538338889E+03  0.36609243747E+03  0.26305409795E+03 0.  0.
         25    1    4    4    0    0  0.13931629467E+02 -0.96685833262E+01 -0.80881098788E+02  0.14992275359E+03  0.12509000000E+03 0.  0.
         25    1    3    3    0    0 -0.96548874157E+02 -0.99593906607E+01 -0.17648564856E+02  0.15931055993E+03  0.12509000000E+03 0.  0.
         25    1    4    4    0    0  0.82617244690E+02  0.19627973987E+02 -0.15450229010E+03  0.21616968388E+03  0.12509000000E+03 0.  0.
<mgrwt>
<rscale>  2 0.46045971E+03</rscale>
<asrwt>0</asrwt>
<pdfrwt beam="1">  1       21 0.20027283E-01 0.46045971E+03</pdfrwt>
<pdfrwt beam="2">  1       21 0.57237863E-01 0.46045971E+03</pdfrwt>
<totfact> 0.60842273E+04</totfact>
</mgrwt>
</event>
<event>
 7    0  0.4748297E-002  0.4510671E+03  0.7546771E-02  0.1027404E+00
         21   -1    0    0  502  501  0.00000000000E+00  0.00000000000E+00  0.13232827802E+04  0.13232827802E+04  0.00000000000E+00 0. -1.
         21   -1    0    0  501  502 -0.00000000000E+00 -0.00000000000E+00 -0.38438777693E+02  0.38438777693E+02  0.00000000000E+00 0. -1.
      99926    2    1    2    0    0  0.00000000000E+00  0.00000000000E+00  0.12848440026E+04  0.13617215579E+04  0.45106705761E+03 0.  0.
      99925    2    3    3    0    0  0.71293755648E+02 -0.10770615499E+02  0.56347452364E+03  0.62604483617E+03  0.26311554942E+03 0.  0.
         25    1    3    3    0    0 -0.71293755648E+02  0.10770615499E+02  0.72136947891E+03  0.73567672177E+03  0.12509000000E+03 0.  0.
         25    1    4    4    0    0  0.58732816323E+02 -0.14780817947E+02  0.37036701886E+03  0.39558469769E+03  0.12509000000E+03 0.  0.
         25    1    4    4    0    0  0.12560939325E+02  0.40102024481E+01  0.19310750478E+03  0.23046013847E+03  0.12509000000E+03 0.  0.
<mgrwt>
<rscale>  2 0.45106706E+03</rscale>
<asrwt>0</asrwt>
<pdfrwt beam="1">  1       21 0.19460038E+00 0.45106706E+03</pdfrwt>
<pdfrwt beam="2">  1       21 0.56527623E-02 0.45106706E+03</pdfrwt>
<totfact> 0.28223133E+04</totfact>
</mgrwt>
</event>
<event>
 7    0  0.4748297E-002  0.4782187E+03  0.7546771E-02  0.1019626E+00
         21   -1    0    0  502  501  0.00000000000E+00  0.00000000000E+00  0.13416146257E+03  0.13416146257E+03  0.00000000000E+00 0.  1.
         21   -1    0    0  501  502 -0.00000000000E+00 -0.00000000000E+00 -0.42615278787E+03  0.42615278787E+03  0.00000000000E+00 0.  1.
      99926    2    1    2    0    0  0.00000000000E+00  0.00000000000E+00 -0.29199132530E+03  0.56031425044E+03  0.47821870017E+03 0.  0.
      99925    2    3    3    0    0  0.10612521295E+03  0.36728991846E+02 -0.26544444934E+03  0.39012663518E+03  0.26291910566E+03 0.  0.
         25    1    4    4    0    0  0.79591208018E+02 -0.11192513332E+02 -0.12515706860E+03  0.19434976889E+03  0.12509000000E+03 0.  0.
         25    1    4    4    0    0  0.26534004928E+02  0.47921505179E+02 -0.14028738075E+03  0.19577686629E+03  0.12509000000E+03 0.  0.
         25    1    3    3    0    0 -0.10612521295E+03 -0.36728991846E+02 -0.26546875960E+02  0.17018761526E+03  0.12509000000E+03 0.  0.
<mgrwt>
<rscale>  2 0.47821870E+03</rscale>
<asrwt>0</asrwt>
<pdfrwt beam="1">  1       21 0.19729627E-01 0.47821870E+03</pdfrwt>
<pdfrwt beam="2">  1       21 0.62669528E-01 0.47821870E+03</pdfrwt>
<totfact> 0.51127153E+04</totfact>
</mgrwt>
</event>
<event>
 7    0  0.4748297E-002  0.4535032E+03  0.7546771E-02  0.1026682E+00
         21   -1    0    0  502  501  0.00000000000E+00  0.00000000000E+00  0.17609545864E+04  0.17609545864E+04  0.00000000000E+00 0.  1.
         21   -1    0    0  501  502 -0.00000000000E+00 -0.00000000000E+00 -0.29197959021E+02  0.29197959021E+02  0.00000000000E+00 0.  1.
      99926    2    1    2    0    0  0.00000000000E+00  0.00000000000E+00  0.17317566274E+04  0.17901525454E+04  0.45350316361E+03 0.  0.
      99925    2    3    3    0    0  0.86969623145E+02 -0.17528365010E+02  0.13595227154E+04  0.13875652229E+04  0.26299101730E+03 0.  0.
         25    1    4    4    0    0  0.58188634792E+02 -0.39049751204E+02  0.82922432817E+03  0.84152914080E+03  0.12509000000E+03 0.  0.
         25    1    4    4    0    0  0.28780988353E+02  0.21521386193E+02  0.53029838719E+03  0.54603608206E+03  0.12509000000E+03 0.  0.
         25    1    3    3    0    0 -0.86969623145E+02  0.17528365010E+02  0.37223391201E+03  0.40258732255E+03  0.12509000000E+03 0.  0.
<mgrwt>
<rscale>  2 0.45350316E+03</rscale>
<asrwt>0</asrwt>
<pdfrwt beam="1">  1       21 0.25896384E+00 0.45350316E+03</pdfrwt>
<pdfrwt beam="2">  1       21 0.42938187E-02 0.45350316E+03</pdfrwt>
<totfact> 0.17653695E+04</totfact>
</mgrwt>
</event>
<event>
 7    0  0.4748297E-002  0.4529954E+03  0.7546771E-02  0.1026833E+00
         21   -1    0    0  502  501  0.00000000000E+00  0.00000000000E+00  0.12740962623E+03  0.12740962623E+03  0.00000000000E+00 0.  1.
         21   -1    0    0  501  502 -0.00000000000E+00 -0.00000000000E+00 -0.40264782826E+03  0.40264782826E+03  0.00000000000E+00 0.  1.
      99926    2    1    2    0    0  0.00000000000E+00  0.00000000000E+00 -0.27523820203E+03  0.53005745448E+03  0.45299540527E+03 0.  0.
      99925    2    3    3    0    0 -0.64542832533E+02  0.86165336113E+02 -0.14041518707E+03  0.31694951038E+03  0.26296449378E+03 0.  0.
         25    1    4    4    0    0 -0.25291605312E+01  0.11975482224E+02 -0.70086353320E+02  0.14390765737E+03  0.12509000000E+03 0.  0.
         25    1    4    4    0    0 -0.62013672002E+02  0.74189853889E+02 -0.70328833754E+02  0.17304185301E+03  0.12509000000E+03 0.  0.
         25    1    3    3    0    0  0.64542832533E+02 -0.86165336113E+02 -0.13482301496E+03  0.21310794411E+03  0.12509000000E+03 0.  0.
<mgrwt>
<rscale>  2 0.45299541E+03</rscale>
<asrwt>0</asrwt>
<pdfrwt beam="1">  1       21 0.18736710E-01 0.45299541E+03</pdfrwt>
<pdfrwt beam="2">  1       21 0.59212916E-01 0.45299541E+03</pdfrwt>
<totfact> 0.64216829E+04</totfact>
</mgrwt>
</event>
<event>
 7    0  0.4748297E-002  0.4576456E+03  0.7546771E-02  0.1025466E+00
         21   -1    0    0  502  501  0.00000000000E+00  0.00000000000E+00  0.25240866901E+03  0.25240866901E+03  0.00000000000E+00 0.  1.
         21   -1    0    0  501  502 -0.00000000000E+00 -0.00000000000E+00 -0.20744084003E+03  0.20744084003E+03  0.00000000000E+00 0.  1.
      99926    2    1    2    0    0  0.17763568394E-14  0.14210854715E-13  0.44967828973E+02  0.45984950904E+03  0.45764556735E+03 0.  0.
      99925    2    3    3    0    0 -0.12957775025E+02 -0.10366712956E+03  0.76511242163E+02  0.29384567565E+03  0.26377364014E+03 0.  0.
         25    1    4    4    0    0 -0.22429868760E+01 -0.25484030876E+02  0.77747549200E+00  0.12768155461E+03  0.12509000000E+03 0.  0.
         25    1    4    4    0    0 -0.10714788149E+02 -0.78183098685E+02  0.75733766671E+02  0.16616412103E+03  0.12509000000E+03 0.  0.
         25    1    3    3    0    0  0.12957775025E+02  0.10366712956E+03 -0.31543413190E+02  0.16600383339E+03  0.12509000000E+03 0.  0.
<mgrwt>
<rscale>  2 0.45764557E+03</rscale>
<asrwt>0</asrwt>
<pdfrwt beam="1">  1       21 0.37118922E-01 0.45764557E+03</pdfrwt>
<pdfrwt beam="2">  1       21 0.30506006E-01 0.45764557E+03</pdfrwt>
<totfact> 0.66771397E+04</totfact>
</mgrwt>
</event>
<event>
 7    0  0.4748297E-002  0.4563690E+03  0.7546771E-02  0.1025840E+00
         21   -1    0    0  502  501  0.00000000000E+00  0.00000000000E+00  0.75262020869E+02  0.75262020869E+02  0.00000000000E+00 0.  1.
         21   -1    0    0  501  502 -0.00000000000E+00 -0.00000000000E+00 -0.69182512137E+03  0.69182512137E+03  0.00000000000E+00 0.  1.
      99926    2    1    2    0    0  0.00000000000E+00  0.00000000000E+00 -0.61656310050E+03  0.76708714224E+03  0.45636895916E+03 0.  0.
      99925    2    3    3    0    0 -0.18324803553E+02 -0.88896566459E+02 -0.27017623245E+03  0.38778545701E+03  0.26295240280E+03 0.  0.
         25    1    4    4    0    0  0.66502586748E+01 -0.59298095221E+01 -0.13482271412E+03  0.18413055402E+03  0.12509000000E+03 0.  0.
         25    1    4    4    0    0 -0.24975062228E+02 -0.82966756937E+02 -0.13535351833E+03  0.20365490300E+03  0.12509000000E+03 0.  0.
         25    1    3    3    0    0  0.18324803553E+02  0.88896566459E+02 -0.34638686805E+03  0.37930168522E+03  0.12509000000E+03 0.  0.
<mgrwt>
<rscale>  2 0.45636896E+03</rscale>
<asrwt>0</asrwt>
<pdfrwt beam="1">  1       21 0.11067944E-01 0.45636896E+03</pdfrwt>
<pdfrwt beam="2">  1       21 0.10173900E+00 0.45636896E+03</pdfrwt>
<totfact> 0.48870507E+04</totfact>
</mgrwt>
</event>
<event>
 7    0  0.4748297E-002  0.4557897E+03  0.7546771E-02  0.1026009E+00
         21   -1    0    0  502  501  0.00000000000E+00  0.00000000000E+00  0.75553593980E+03  0.75553593980E+03  0.00000000000E+00 0. -1.
         21   -1    0    0  501  502 -0.00000000000E+00 -0.00000000000E+00 -0.68740677855E+02  0.68740677855E+02  0.00000000000E+00 0. -1.
      99926    2    1    2    0    0  0.00000000000E+00 -0.71054273576E-14  0.68679526194E+03  0.82427661765E+03  0.45578965607E+03 0.  0.
      99925    2    3    3    0    0 -0.14743205198E+02  0.49899668938E+02  0.61527248032E+03  0.67107624085E+03  0.26282267204E+03 0.  0.
         25    1    3    3    0    0  0.14743205198E+02 -0.49899668938E+02  0.71522781620E+02  0.15320037680E+03  0.12509000000E+03 0.  0.
         25    1    4    4    0    0 -0.19597586867E+02  0.12035300440E+02  0.39425034786E+03  0.41425808230E+03  0.12509000000E+03 0.  0.
         25    1    4    4    0    0  0.48543816697E+01  0.37864368497E+02  0.22102213246E+03  0.25681815855E+03  0.12509000000E+03 0.  0.
<mgrwt>
<rscale>  2 0.45578966E+03</rscale>
<asrwt>0</asrwt>
<pdfrwt beam="1">  1       21 0.11110822E+00 0.45578966E+03</pdfrwt>
<pdfrwt beam="2">  1       21 0.10108924E-01 0.45578966E+03</pdfrwt>
<totfact> 0.46325201E+04</totfact>
</mgrwt>
</event>
<event>
 7    0  0.4748297E-002  0.4492318E+03  0.7546771E-02  0.1027951E+00
         21   -1    0    0  502  501  0.00000000000E+00  0.00000000000E+00  0.36810496624E+03  0.36810496624E+03  0.00000000000E+00 0.  1.
         21   -1    0    0  501  502 -0.00000000000E+00 -0.00000000000E+00 -0.13705956889E+03  0.13705956889E+03  0.00000000000E+00 0.  1.
      99926    2    1    2    0    0  0.00000000000E+00  0.00000000000E+00  0.23104539734E+03  0.50516453513E+03  0.44923182425E+03 0.  0.
      99925    2    3    3    0    0  0.40613213034E+02 -0.44793999339E+02  0.45972461863E+02  0.27374406284E+03  0.26299507455E+03 0.  0.
         25    1    4    4    0    0  0.10178858976E+02 -0.40371941458E+02 -0.12204909358E+02  0.13240079584E+03  0.12509000000E+03 0.  0.
         25    1    3    3    0    0 -0.40613213034E+02  0.44793999339E+02  0.18507293548E+03  0.23142047229E+03  0.12509000000E+03 0.  0.
         25    1    4    4    0    0  0.30434354058E+02 -0.44220578809E+01  0.58177371221E+02  0.14134326700E+03  0.12509000000E+03 0.  0.
<mgrwt>
<rscale>  2 0.44923182E+03</rscale>
<asrwt>0</asrwt>
<pdfrwt beam="1">  1       21 0.54133083E-01 0.44923182E+03</pdfrwt>
<pdfrwt beam="2">  1       21 0.20155819E-01 0.44923182E+03</pdfrwt>
<totfact> 0.67968004E+04</totfact>
</mgrwt>
</event>
<event>
 7    0  0.4748297E-002  0.4572484E+03  0.7546771E-02  0.1025582E+00
         21   -1    0    0  502  501  0.00000000000E+00  0.00000000000E+00  0.95477992349E+02  0.95477992349E+02  0.00000000000E+00 0. -1.
         21   -1    0    0  501  502 -0.00000000000E+00 -0.00000000000E+00 -0.54744579881E+03  0.54744579881E+03  0.00000000000E+00 0. -1.
      99926    2    1    2    0    0  0.00000000000E+00  0.00000000000E+00 -0.45196780646E+03  0.64292379115E+03  0.45724840422E+03 0.  0.
      99925    2    3    3    0    0  0.95721184469E+02  0.45737005791E+02 -0.34698018012E+03  0.44818209393E+03  0.26309223680E+03 0.  0.
         25    1    3    3    0    0 -0.95721184469E+02 -0.45737005791E+02 -0.10498762634E+03  0.19474169723E+03  0.12509000000E+03 0.  0.
         25    1    4    4    0    0  0.70467854210E+02  0.53467903890E+02 -0.21913292298E+03  0.26737853552E+03  0.12509000000E+03 0.  0.
         25    1    4    4    0    0  0.25253330259E+02 -0.77308980985E+01 -0.12784725714E+03  0.18080355841E+03  0.12509000000E+03 0.  0.
<mgrwt>
<rscale>  2 0.45724840E+03</rscale>
<asrwt>0</asrwt>
<pdfrwt beam="1">  1       21 0.14040881E-01 0.45724840E+03</pdfrwt>
<pdfrwt beam="2">  1       21 0.80506737E-01 0.45724840E+03</pdfrwt>
<totfact> 0.55126415E+04</totfact>
</mgrwt>
</event>
<event>
 7    0  0.4748297E-002  0.4574907E+03  0.7546771E-02  0.1025512E+00
         21   -1    0    0  502  501  0.00000000000E+00  0.00000000000E+00  0.24892973706E+04  0.24892973706E+04  0.00000000000E+00 0. -1.
         21   -1    0    0  501  502 -0.00000000000E+00 -0.00000000000E+00 -0.21019760305E+02  0.21019760305E+02  0.00000000000E+00 0. -1.
      99926    2    1    2    0    0  0.00000000000E+00  0.00000000000E+00  0.24682776103E+04  0.25103171309E+04  0.45749069524E+03 0.  0.
      99925    2    3    3    0    0 -0.33806578924E+02  0.21752235809E+02  0.21443698128E+04  0.21607748389E+04  0.26269747948E+03 0.  0.
         25    1    4    4    0    0 -0.50773376726E+01  0.41873907020E+02  0.89774379774E+03  0.90739772863E+03  0.12509000000E+03 0.  0.
         25    1    4    4    0    0 -0.28729241251E+02 -0.20121671211E+02  0.12466260150E+04  0.12533771102E+04  0.12509000000E+03 0.  0.
         25    1    3    3    0    0  0.33806578924E+02 -0.21752235809E+02  0.32390779754E+03  0.34954229208E+03  0.12509000000E+03 0.  0.
<mgrwt>
<rscale>  2 0.45749070E+03</rscale>
<asrwt>0</asrwt>
<pdfrwt beam="1">  1       21 0.36607294E+00 0.45749070E+03</pdfrwt>
<pdfrwt beam="2">  1       21 0.30911429E-02 0.45749070E+03</pdfrwt>
<totfact> 0.68923689E+03</totfact>
</mgrwt>
</event>
<event>
 7    0  0.4748297E-002  0.4604289E+03  0.7546771E-02  0.1024657E+00
         21   -1    0    0  502  501  0.00000000000E+00  0.00000000000E+00  0.46496327617E+03  0.46496327617E+03  0.00000000000E+00 0. -1.
         21   -1    0    0  501  502 -0.00000000000E+00 -0.00000000000E+00 -0.11398469059E+03  0.11398469059E+03  0.00000000000E+00 0. -1.
      99926    2    1    2    0    0  0.00000000000E+00 -0.35527136788E-14  0.35097858558E+03  0.57894796675E+03  0.46042890947E+03 0.  0.
      99925    2    3    3    0    0  0.79539497567E+02  0.20265043975E+02  0.32577512135E+03  0.42722477673E+03  0.26392115581E+03 0.  0.
         25    1    4    4    0    0  0.32377152619E+02 -0.31493637514E+02  0.16041605369E+03  0.20837693634E+03  0.12509000000E+03 0.  0.
         25    1    4    4    0    0  0.47162344947E+02  0.51758681489E+02  0.16535906765E+03  0.21884784039E+03  0.12509000000E+03 0.  0.
         25    1    3    3    0    0 -0.79539497567E+02 -0.20265043975E+02  0.25203464237E+02  0.15172319002E+03  0.12509000000E+03 0.  0.
<mgrwt>
<rscale>  2 0.46042891E+03</rscale>
<asrwt>0</asrwt>
<pdfrwt beam="1">  1       21 0.68376952E-01 0.46042891E+03</pdfrwt>
<pdfrwt beam="2">  1       21 0.16762455E-01 0.46042891E+03</pdfrwt>
<totfact> 0.57485767E+04</totfact>
</mgrwt>
</event>
<event>
 7    0  0.4748297E-002  0.4409969E+03  0.7546771E-02  0.1030441E+00
         21   -1    0    0  502  501  0.00000000000E+00  0.00000000000E+00  0.21827163067E+04  0.21827163067E+04  0.00000000000E+00 0. -1.
         21   -1    0    0  501  502 -0.00000000000E+00 -0.00000000000E+00 -0.22274795533E+02  0.22274795533E+02  0.00000000000E+00 0. -1.
      99926    2    1    2    0    0  0.88817841970E-15  0.17763568394E-14  0.21604415111E+04  0.22049911022E+04  0.44099686818E+03 0.  0.
      99925    2    3    3    0    0  0.55374020079E+01  0.93131297467E+01  0.88340288911E+03  0.92179487892E+03  0.26303561946E+03 0.  0.
         25    1    4    4    0    0  0.29450122025E+02 -0.10152663374E+02  0.53566477476E+03  0.55095793422E+03  0.12509000000E+03 0.  0.
         25    1    3    3    0    0 -0.55374020079E+01 -0.93131297467E+01  0.12770386220E+04  0.12831962233E+04  0.12509000000E+03 0.  0.
         25    1    4    4    0    0 -0.23912720017E+02  0.19465793120E+02  0.34773811435E+03  0.37083694469E+03  0.12509000000E+03 0.  0.
<mgrwt>
<rscale>  2 0.44099687E+03</rscale>
<asrwt>0</asrwt>
<pdfrwt beam="1">  1       21 0.32098754E+00 0.44099687E+03</pdfrwt>
<pdfrwt beam="2">  1       21 0.32757067E-02 0.44099687E+03</pdfrwt>
<totfact> 0.11883584E+04</totfact>
</mgrwt>
</event>
<event>
 7    0  0.4748297E-002  0.4508346E+03  0.7546771E-02  0.1027473E+00
         21   -1    0    0  502  501  0.00000000000E+00  0.00000000000E+00  0.15198093764E+03  0.15198093764E+03  0.00000000000E+00 0.  1.
         21   -1    0    0  501  502 -0.00000000000E+00 -0.00000000000E+00 -0.33433774197E+03  0.33433774197E+03  0.00000000000E+00 0.  1.
      99926    2    1    2    0    0 -0.14210854715E-13  0.71054273576E-14 -0.18235680432E+03  0.48631867961E+03  0.45083461940E+03 0.  0.
      99925    2    3    3    0    0 -0.88841809003E+02  0.63843485535E+02 -0.11166900982E+03  0.30572762207E+03  0.26273666183E+03 0.  0.
         25    1    3    3    0    0  0.88841809003E+02 -0.63843485535E+02 -0.70687794499E+02  0.18059105754E+03  0.12509000000E+03 0.  0.
         25    1    4    4    0    0 -0.66660813167E+02  0.48178663791E+01 -0.35187288080E+02  0.14612504642E+03  0.12509000000E+03 0.  0.
         25    1    4    4    0    0 -0.22180995835E+02  0.59025619156E+02 -0.76481721743E+02  0.15960257565E+03  0.12509000000E+03 0.  0.
<mgrwt>
<rscale>  2 0.45083462E+03</rscale>
<asrwt>0</asrwt>
<pdfrwt beam="1">  1       21 0.22350138E-01 0.45083462E+03</pdfrwt>
<pdfrwt beam="2">  1       21 0.49167315E-01 0.45083462E+03</pdfrwt>
<totfact> 0.68479529E+04</totfact>
</mgrwt>
</event>
<event>
 7    0  0.4748297E-002  0.4463115E+03  0.7546771E-02  0.1028828E+00
         21   -1    0    0  502  501  0.00000000000E+00  0.00000000000E+00  0.10505845970E+03  0.10505845970E+03  0.00000000000E+00 0. -1.
         21   -1    0    0  501  502 -0.00000000000E+00 -0.00000000000E+00 -0.47400731589E+03  0.47400731589E+03  0.00000000000E+00 0. -1.
      99926    2    1    2    0    0  0.35527136788E-14  0.14210854715E-13 -0.36894885620E+03  0.57906577559E+03  0.44631145400E+03 0.  0.
      99925    2    3    3    0    0 -0.17727445344E+02 -0.98121380443E+02 -0.27579575882E+03  0.39395209357E+03  0.26304540260E+03 0.  0.
         25    1    4    4    0    0 -0.18553870026E+02 -0.19148053380E+02 -0.16683731394E+03  0.21022152949E+03  0.12509000000E+03 0.  0.
         25    1    3    3    0    0  0.17727445344E+02  0.98121380443E+02 -0.93153097377E+02  0.18511368202E+03  0.12509000000E+03 0.  0.
         25    1    4    4    0    0  0.82642468164E+00 -0.78973327063E+02 -0.10895844488E+03  0.18373056408E+03  0.12509000000E+03 0.  0.
<mgrwt>
<rscale>  2 0.44631145E+03</rscale>
<asrwt>0</asrwt>
<pdfrwt beam="1">  1       21 0.15449773E-01 0.44631145E+03</pdfrwt>
<pdfrwt beam="2">  1       21 0.69706959E-01 0.44631145E+03</pdfrwt>
<totfact> 0.64289145E+04</totfact>
</mgrwt>
</event>
<event>
 7    0  0.4748297E-002  0.4758381E+03  0.7546771E-02  0.1020285E+00
         21   -1    0    0  502  501  0.00000000000E+00  0.00000000000E+00  0.83813058517E+02  0.83813058517E+02  0.00000000000E+00 0.  1.
         21   -1    0    0  501  502 -0.00000000000E+00 -0.00000000000E+00 -0.67537785489E+03  0.67537785489E+03  0.00000000000E+00 0.  1.
      99926    2    1    2    0    0 -0.71054273576E-14 -0.14210854715E-13 -0.59156479637E+03  0.75919091341E+03  0.47583813917E+03 0.  0.
      99925    2    3    3    0    0  0.41288114105E+02  0.12498814191E+03 -0.37522340523E+03  0.47674118407E+03  0.26298822933E+03 0.  0.
         25    1    4    4    0    0  0.58790857987E+02  0.81599619219E+02 -0.20133590970E+03  0.25748498884E+03  0.12509000000E+03 0.  0.
         25    1    3    3    0    0 -0.41288114105E+02 -0.12498814191E+03 -0.21634139114E+03  0.28244972934E+03  0.12509000000E+03 0.  0.
         25    1    4    4    0    0 -0.17502743882E+02  0.43388522693E+02 -0.17388749553E+03  0.21925619523E+03  0.12509000000E+03 0.  0.
<mgrwt>
<rscale>  2 0.47583814E+03</rscale>
<asrwt>0</asrwt>
<pdfrwt beam="1">  1       21 0.12325450E-01 0.47583814E+03</pdfrwt>
<pdfrwt beam="2">  1       21 0.99320274E-01 0.47583814E+03</pdfrwt>
<totfact> 0.42419718E+04</totfact>
</mgrwt>
</event>
<event>
 7    0  0.4748297E-002  0.4527768E+03  0.7546771E-02  0.1026897E+00
         21   -1    0    0  502  501  0.00000000000E+00  0.00000000000E+00  0.10549391817E+03  0.10549391817E+03  0.00000000000E+00 0. -1.
         21   -1    0    0  501  502 -0.00000000000E+00 -0.00000000000E+00 -0.48582625704E+03  0.48582625704E+03  0.00000000000E+00 0. -1.
      99926    2    1    2    0    0  0.00000000000E+00 -0.71054273576E-14 -0.38033233887E+03  0.59132017520E+03  0.45277683423E+03 0.  0.
      99925    2    3    3    0    0  0.82699019655E+02 -0.50583168144E+02 -0.31078244465E+03  0.41845467651E+03  0.26290835598E+03 0.  0.
         25    1    4    4    0    0  0.18222980654E+02  0.72189174462E+01 -0.12008441803E+03  0.17450491496E+03  0.12509000000E+03 0.  0.
         25    1    3    3    0    0 -0.82699019655E+02  0.50583168144E+02 -0.69549894221E+02  0.17286549869E+03  0.12509000000E+03 0.  0.
         25    1    4    4    0    0  0.64476039002E+02 -0.57802085590E+02 -0.19069802662E+03  0.24394976155E+03  0.12509000000E+03 0.  0.
<mgrwt>
<rscale>  2 0.45277683E+03</rscale>
<asrwt>0</asrwt>
<pdfrwt beam="1">  1       21 0.15513812E-01 0.45277683E+03</pdfrwt>
<pdfrwt beam="2">  1       21 0.71445037E-01 0.45277683E+03</pdfrwt>
<totfact> 0.60267682E+04</totfact>
</mgrwt>
</event>
<event>
 7    0  0.4748297E-002  0.4405888E+03  0.7546771E-02  0.1030566E+00
         21   -1    0    0  502  501  0.00000000000E+00  0.00000000000E+00  0.52117539731E+02  0.52117539731E+02  0.00000000000E+00 0. -1.
         21   -1    0    0  501  502 -0.00000000000E+00 -0.00000000000E+00 -0.93115702634E+03  0.93115702634E+03  0.00000000000E+00 0. -1.
      99926    2    1    2    0    0  0.00000000000E+00  0.14210854715E-13 -0.87903948661E+03  0.98327456607E+03  0.44058875753E+03 0.  0.
      99925    2    3    3    0    0  0.60864130476E+02 -0.60943139905E+02 -0.45148525615E+03  0.52954707433E+03  0.26298794407E+03 0.  0.
         25    1    4    4    0    0  0.93798271246E+01 -0.65161860114E+02 -0.22612401890E+03  0.26667138803E+03  0.12509000000E+03 0.  0.
         25    1    4    4    0    0  0.51484303352E+02  0.42187202094E+01 -0.22536123724E+03  0.26287568629E+03  0.12509000000E+03 0.  0.
         25    1    3    3    0    0 -0.60864130476E+02  0.60943139905E+02 -0.42755423047E+03  0.45372749175E+03  0.12509000000E+03 0.  0.
<mgrwt>
<rscale>  2 0.44058876E+03</rscale>
<asrwt>0</asrwt>
<pdfrwt beam="1">  1       21 0.76643441E-02 0.44058876E+03</pdfrwt>
<pdfrwt beam="2">  1       21 0.13693486E+00 0.44058876E+03</pdfrwt>
<totfact> 0.44641144E+04</totfact>
</mgrwt>
</event>
<event>
 7    0  0.4748297E-002  0.4444449E+03  0.7546771E-02  0.1029392E+00
         21   -1    0    0  502  501  0.00000000000E+00  0.00000000000E+00  0.16637932403E+04  0.16637932403E+04  0.00000000000E+00 0.  1.
         21   -1    0    0  501  502 -0.00000000000E+00 -0.00000000000E+00 -0.29680865876E+02  0.29680865876E+02  0.00000000000E+00 0.  1.
      99926    2    1    2    0    0  0.00000000000E+00  0.00000000000E+00  0.16341123744E+04  0.16934741062E+04  0.44444493027E+03 0.  0.
      99925    2    3    3    0    0  0.43578324224E+02  0.38829202988E+02  0.71495289474E+03  0.76400735877E+03  0.26295023333E+03 0.  0.
         25    1    4    4    0    0 -0.17069951296E+02  0.26532669819E+02  0.31442223535E+03  0.33985911197E+03  0.12509000000E+03 0.  0.
         25    1    3    3    0    0 -0.43578324224E+02 -0.38829202988E+02  0.91915947968E+03  0.92946674740E+03  0.12509000000E+03 0.  0.
         25    1    4    4    0    0  0.60648275521E+02  0.12296533170E+02  0.40053065939E+03  0.42414824680E+03  0.12509000000E+03 0.  0.
<mgrwt>
<rscale>  2 0.44444493E+03</rscale>
<asrwt>0</asrwt>
<pdfrwt beam="1">  1       21 0.24467541E+00 0.44444493E+03</pdfrwt>
<pdfrwt beam="2">  1       21 0.43648343E-02 0.44444493E+03</pdfrwt>
<totfact> 0.21072482E+04</totfact>
</mgrwt>
</event>
<event>
 7    0  0.4748297E-002  0.4538844E+03  0.7546771E-02  0.1026570E+00
         21   -1    0    0  502  501  0.00000000000E+00  0.00000000000E+00  0.37289557555E+03  0.37289557555E+03  0.00000000000E+00 0.  1.
         21   -1    0    0  501  502 -0.00000000000E+00 -0.00000000000E+00 -0.13811576933E+03  0.13811576933E+03  0.00000000000E+00 0.  1.
      99926    2    1    2    0    0  0.00000000000E+00  0.00000000000E+00  0.23477980622E+03  0.51101134489E+03  0.45388438747E+03 0.  0.
      99925    2    3    3    0    0  0.40780162342E+02  0.82670551429E+02  0.22003994257E+03  0.35492735021E+03  0.26278966091E+03 0.  0.
         25    1    3    3    0    0 -0.40780162342E+02 -0.82670551429E+02  0.14739863649E+02  0.15608399468E+03  0.12509000000E+03 0.  0.
         25    1    4    4    0    0  0.27263918821E+02  0.37542970862E+02  0.59660995864E+02  0.14614971248E+03  0.12509000000E+03 0.  0.
         25    1    4    4    0    0  0.13516243521E+02  0.45127580567E+02  0.16037894671E+03  0.20877763773E+03  0.12509000000E+03 0.  0.
<mgrwt>
<rscale>  2 0.45388439E+03</rscale>
<asrwt>0</asrwt>
<pdfrwt beam="1">  1       21 0.54837584E-01 0.45388439E+03</pdfrwt>
<pdfrwt beam="2">  1       21 0.20311143E-01 0.45388439E+03</pdfrwt>
<totfact> 0.65078055E+04</totfact>
</mgrwt>
</event>
<event>
 6    0  0.4748297E-002  0.4591260E+03  0.7546771E-02  0.1025035E+00
         21   -1    0    0  502  501  0.00000000000E+00  0.00000000000E+00  0.14886971839E+04  0.14886971839E+04  0.00000000000E+00 0.  1.
         21   -1    0    0  501  502 -0.00000000000E+00 -0.00000000000E+00 -0.35399525665E+02  0.35399525665E+02  0.00000000000E+00 0.  1.
      99926    2    1    2    0    0  0.00000000000E+00 -0.71054273576E-14  0.14532976582E+04  0.15240967096E+04  0.45912601394E+03 0.  0.
         25    1    3    3    0    0  0.30326603574E+02 -0.21392505080E+02  0.53970137835E+03  0.55524987893E+03  0.12509000000E+03 0.  0.
         25    1    3    3    0    0 -0.99590662513E+02 -0.38542631676E+02  0.40428299085E+03  0.43645856540E+03  0.12509000000E+03 0.  0.
         25    1    3    3    0    0  0.69264058940E+02  0.59935136756E+02  0.50931328902E+03  0.53238826522E+03  0.12509000000E+03 0.  0.
<mgrwt>
<rscale>  2 0.45912601E+03</rscale>
<asrwt>0</asrwt>
<pdfrwt beam="1">  1       21 0.21892601E+00 0.45912601E+03</pdfrwt>
<pdfrwt beam="2">  1       21 0.52058136E-02 0.45912601E+03</pdfrwt>
<totfact> 0.22466074E+04</totfact>
</mgrwt>
</event>
<event>
 7    0  0.4748297E-002  0.4512286E+03  0.7546771E-02  0.1027356E+00
         21   -1    0    0  502  501  0.00000000000E+00  0.00000000000E+00  0.22002899061E+04  0.22002899061E+04  0.00000000000E+00 0.  1.
         21   -1    0    0  501  502 -0.00000000000E+00 -0.00000000000E+00 -0.23134141031E+02  0.23134141031E+02  0.00000000000E+00 0.  1.
      99926    2    1    2    0    0  0.14210854715E-13  0.00000000000E+00  0.21771557651E+04  0.22234240471E+04  0.45122862054E+03 0.  0.
      99925    2    3    3    0    0 -0.77964139007E+02  0.24982053041E+02  0.10156535328E+04  0.10523401672E+04  0.26299281182E+03 0.  0.
         25    1    3    3    0    0  0.77964139007E+02 -0.24982053041E+02  0.11615022323E+04  0.11710838799E+04  0.12509000000E+03 0.  0.
         25    1    4    4    0    0 -0.77562693962E+02  0.40707743881E+01  0.59760559545E+03  0.61547745573E+03  0.12509000000E+03 0.  0.
         25    1    4    4    0    0 -0.40144504489E+00  0.20911278653E+02  0.41804793730E+03  0.43686271152E+03  0.12509000000E+03 0.  0.
<mgrwt>
<rscale>  2 0.45122862E+03</rscale>
<asrwt>0</asrwt>
<pdfrwt beam="1">  1       21 0.32357190E+00 0.45122862E+03</pdfrwt>
<pdfrwt beam="2">  1       21 0.34020811E-02 0.45122862E+03</pdfrwt>
<totfact> 0.10703179E+04</totfact>
</mgrwt>
</event>
<event>
 7    0  0.4748297E-002  0.4504805E+03  0.7546771E-02  0.1027579E+00
         21   -1    0    0  502  501  0.00000000000E+00  0.00000000000E+00  0.20998015853E+03  0.20998015853E+03  0.00000000000E+00 0. -1.
         21   -1    0    0  501  502 -0.00000000000E+00 -0.00000000000E+00 -0.24160937036E+03  0.24160937036E+03  0.00000000000E+00 0. -1.
      99926    2    1    2    0    0  0.13322676296E-14  0.00000000000E+00 -0.31629211832E+02  0.45158952890E+03  0.45048051630E+03 0.  0.
      99925    2    3    3    0    0 -0.37183684357E+01 -0.52817032007E+02 -0.11531550414E+03  0.29204527562E+03  0.26303861386E+03 0.  0.
         25    1    3    3    0    0  0.37183684357E+01  0.52817032007E+02  0.83686292313E+02  0.15954425328E+03  0.12509000000E+03 0.  0.
         25    1    4    4    0    0 -0.18595565805E+02 -0.44021551444E+02 -0.23590779782E+02  0.13596957399E+03  0.12509000000E+03 0.  0.
         25    1    4    4    0    0  0.14877197370E+02 -0.87954805638E+01 -0.91724724363E+02  0.15607570163E+03  0.12509000000E+03 0.  0.
<mgrwt>
<rscale>  2 0.45048052E+03</rscale>
<asrwt>0</asrwt>
<pdfrwt beam="1">  1       21 0.30879435E-01 0.45048052E+03</pdfrwt>
<pdfrwt beam="2">  1       21 0.35530790E-01 0.45048052E+03</pdfrwt>
<totfact> 0.71334210E+04</totfact>
</mgrwt>
</event>
<event>
 7    0  0.4748297E-002  0.4602940E+03  0.7546771E-02  0.1024696E+00
         21   -1    0    0  502  501  0.00000000000E+00  0.00000000000E+00  0.51903303582E+03  0.51903303582E+03  0.00000000000E+00 0.  1.
         21   -1    0    0  501  502 -0.00000000000E+00 -0.00000000000E+00 -0.10205062479E+03  0.10205062479E+03  0.00000000000E+00 0.  1.
      99926    2    1    2    0    0  0.00000000000E+00 -0.71054273576E-14  0.41698241103E+03  0.62108366061E+03  0.46029401730E+03 0.  0.
      99925    2    3    3    0    0  0.43568185572E+02  0.62880830822E+02  0.38258294808E+03  0.47047484005E+03  0.26291572277E+03 0.  0.
         25    1    4    4    0    0  0.14247730723E+02  0.70905593984E+02  0.18679568255E+03  0.23615828634E+03  0.12509000000E+03 0.  0.
         25    1    3    3    0    0 -0.43568185572E+02 -0.62880830822E+02  0.34399462954E+02  0.15060882056E+03  0.12509000000E+03 0.  0.
         25    1    4    4    0    0  0.29320454849E+02 -0.80247631624E+01  0.19578726553E+03  0.23431655370E+03  0.12509000000E+03 0.  0.
<mgrwt>
<rscale>  2 0.46029402E+03</rscale>
<asrwt>0</asrwt>
<pdfrwt beam="1">  1       21 0.76328387E-01 0.46029402E+03</pdfrwt>
<pdfrwt beam="2">  1       21 0.15007445E-01 0.46029402E+03</pdfrwt>
<totfact> 0.55060788E+04</totfact>
</mgrwt>
</event>
<event>
 7    0  0.4748297E-002  0.4431048E+03  0.7546771E-02  0.1029798E+00
         21   -1    0    0  502  501  0.00000000000E+00  0.00000000000E+00  0.14113027073E+03  0.14113027073E+03  0.00000000000E+00 0. -1.
         21   -1    0    0  501  502 -0.00000000000E+00 -0.00000000000E+00 -0.34780252745E+03  0.34780252745E+03  0.00000000000E+00 0. -1.
      99926    2    1    2    0    0 -0.88817841970E-15  0.00000000000E+00 -0.20667225672E+03  0.48893279818E+03  0.44310479510E+03 0.  0.
      99925    2    3    3    0    0 -0.70517878054E+01 -0.17763653249E+02 -0.20852544525E+02  0.26411787735E+03  0.26259883746E+03 0.  0.
         25    1    4    4    0    0  0.24974456626E+02 -0.46751978232E+01 -0.38055195922E+02  0.13319642261E+03  0.12509000000E+03 0.  0.
         25    1    3    3    0    0  0.70517878054E+01  0.17763653249E+02 -0.18581971219E+03  0.22481492083E+03  0.12509000000E+03 0.  0.
         25    1    4    4    0    0 -0.32026244431E+02 -0.13088455426E+02  0.17202651396E+02  0.13092145475E+03  0.12509000000E+03 0.  0.
<mgrwt>
<rscale>  2 0.44310480E+03</rscale>
<asrwt>0</asrwt>
<pdfrwt beam="1">  1       21 0.20754452E-01 0.44310480E+03</pdfrwt>
<pdfrwt beam="2">  1       21 0.51147430E-01 0.44310480E+03</pdfrwt>
<totfact> 0.72679811E+04</totfact>
</mgrwt>
</event>
<event>
 7    0  0.4748297E-002  0.4613441E+03  0.7546771E-02  0.1024392E+00
         21   -1    0    0  502  501  0.00000000000E+00  0.00000000000E+00  0.16705889252E+03  0.16705889252E+03  0.00000000000E+00 0.  1.
         21   -1    0    0  501  502 -0.00000000000E+00 -0.00000000000E+00 -0.31850802553E+03  0.31850802553E+03  0.00000000000E+00 0.  1.
      99926    2    1    2    0    0  0.14210854715E-13  0.14210854715E-13 -0.15144913300E+03  0.48556691805E+03  0.46134411454E+03 0.  0.
      99925    2    3    3    0    0  0.82688436508E+02  0.70862886879E+02 -0.14528514637E+03  0.31960177382E+03  0.26301823853E+03 0.  0.
         25    1    4    4    0    0  0.32756180538E+02  0.59277167894E+02 -0.38602167412E+02  0.14739194492E+03  0.12509000000E+03 0.  0.
         25    1    4    4    0    0  0.49932255971E+02  0.11585718985E+02 -0.10668297896E+03  0.17220982890E+03  0.12509000000E+03 0.  0.
         25    1    3    3    0    0 -0.82688436508E+02 -0.70862886879E+02 -0.61639866313E+01  0.16596514423E+03  0.12509000000E+03 0.  0.
<mgrwt>
<rscale>  2 0.46134411E+03</rscale>
<asrwt>0</asrwt>
<pdfrwt beam="1">  1       21 0.24567485E-01 0.46134411E+03</pdfrwt>
<pdfrwt beam="2">  1       21 0.46839415E-01 0.46134411E+03</pdfrwt>
<totfact> 0.63061051E+04</totfact>
</mgrwt>
</event>
<event>
 7    0  0.4748297E-002  0.4581137E+03  0.7546771E-02  0.1025330E+00
         21   -1    0    0  502  501  0.00000000000E+00  0.00000000000E+00  0.54343026217E+03  0.54343026217E+03  0.00000000000E+00 0. -1.
         21   -1    0    0  501  502 -0.00000000000E+00 -0.00000000000E+00 -0.96547861156E+02  0.96547861156E+02  0.00000000000E+00 0. -1.
      99926    2    1    2    0    0  0.00000000000E+00  0.00000000000E+00  0.44688240101E+03  0.63997812332E+03  0.45811365184E+03 0.  0.
      99925    2    3    3    0    0 -0.58499277312E+02  0.99646622726E+02  0.29403479962E+03  0.41115174325E+03  0.26313053362E+03 0.  0.
         25    1    4    4    0    0 -0.12675341754E+02  0.38760315857E+02  0.19155652562E+03  0.23238854744E+03  0.12509000000E+03 0.  0.
         25    1    4    4    0    0 -0.45823935559E+02  0.60886306869E+02  0.10247827401E+03  0.17876319581E+03  0.12509000000E+03 0.  0.
         25    1    3    3    0    0  0.58499277312E+02 -0.99646622726E+02  0.15284760139E+03  0.22882638007E+03  0.12509000000E+03 0.  0.
<mgrwt>
<rscale>  2 0.45811365E+03</rscale>
<asrwt>0</asrwt>
<pdfrwt beam="1">  1       21 0.79916214E-01 0.45811365E+03</pdfrwt>
<pdfrwt beam="2">  1       21 0.14198215E-01 0.45811365E+03</pdfrwt>
<totfact> 0.54920565E+04</totfact>
</mgrwt>
</event>
<event>
 7    0  0.4748297E-002  0.4562901E+03  0.7546771E-02  0.1025863E+00
         21   -1    0    0  502  501  0.00000000000E+00  0.00000000000E+00  0.66853088303E+03  0.66853088303E+03  0.00000000000E+00 0. -1.
         21   -1    0    0  501  502 -0.00000000000E+00 -0.00000000000E+00 -0.77857546202E+02  0.77857546202E+02  0.00000000000E+00 0. -1.
      99926    2    1    2    0    0  0.71054273576E-14  0.00000000000E+00  0.59067333683E+03  0.74638842923E+03  0.45629014503E+03 0.  0.
      99925    2    3    3    0    0  0.37465323167E+02  0.72197018634E+02  0.24086431587E+03  0.36608602432E+03  0.26341468942E+03 0.  0.
         25    1    4    4    0    0  0.89845163125E+01  0.53256737106E+02  0.74956766085E+02  0.15550892728E+03  0.12509000000E+03 0.  0.
         25    1    3    3    0    0 -0.37465323167E+02 -0.72197018634E+02  0.34980902096E+03  0.38030240491E+03  0.12509000000E+03 0.  0.
         25    1    4    4    0    0  0.28480806855E+02  0.18940281528E+02  0.16590754979E+03  0.21057709704E+03  0.12509000000E+03 0.  0.
<mgrwt>
<rscale>  2 0.45629015E+03</rscale>
<asrwt>0</asrwt>
<pdfrwt beam="1">  1       21 0.98313362E-01 0.45629015E+03</pdfrwt>
<pdfrwt beam="2">  1       21 0.11449639E-01 0.45629015E+03</pdfrwt>
<totfact> 0.49947232E+04</totfact>
</mgrwt>
</event>
<event>
 7    0  0.4748297E-002  0.4508859E+03  0.7546771E-02  0.1027458E+00
         21   -1    0    0  502  501  0.00000000000E+00  0.00000000000E+00  0.50661938508E+02  0.50661938508E+02  0.00000000000E+00 0. -1.
         21   -1    0    0  501  502 -0.00000000000E+00 -0.00000000000E+00 -0.10032091300E+04  0.10032091300E+04  0.00000000000E+00 0. -1.
      99926    2    1    2    0    0  0.00000000000E+00 -0.88817841970E-15 -0.95254719145E+03  0.10538710685E+04  0.45088588025E+03 0.  0.
      99925    2    3    3    0    0 -0.98212381216E+02  0.51692353521E+01 -0.71313827349E+03  0.76640536457E+03  0.26294218548E+03 0.  0.
         25    1    4    4    0    0 -0.38619631448E+02 -0.64146432559E+01 -0.45117429961E+03  0.46982803270E+03  0.12509000000E+03 0.  0.
         25    1    3    3    0    0  0.98212381216E+02 -0.51692353521E+01 -0.23940891796E+03  0.28746570390E+03  0.12509000000E+03 0.  0.
         25    1    4    4    0    0 -0.59592749768E+02  0.11583878608E+02 -0.26196397388E+03  0.29657733187E+03  0.12509000000E+03 0.  0.
<mgrwt>
<rscale>  2 0.45088588E+03</rscale>
<asrwt>0</asrwt>
<pdfrwt beam="1">  1       21 0.74502851E-02 0.45088588E+03</pdfrwt>
<pdfrwt beam="2">  1       21 0.14753075E+00 0.45088588E+03</pdfrwt>
<totfact> 0.38352450E+04</totfact>
</mgrwt>
</event>
<event>
 7    0  0.4748297E-002  0.4407175E+03  0.7546771E-02  0.1030527E+00
         21   -1    0    0  502  501  0.00000000000E+00  0.00000000000E+00  0.26764314517E+02  0.26764314517E+02  0.00000000000E+00 0.  1.
         21   -1    0    0  501  502 -0.00000000000E+00 -0.00000000000E+00 -0.18142803605E+04  0.18142803605E+04  0.00000000000E+00 0.  1.
      99926    2    1    2    0    0 -0.17763568394E-14  0.00000000000E+00 -0.17875160460E+04  0.18410446751E+04  0.44071746139E+03 0.  0.
      99925    2    3    3    0    0 -0.15185969338E+02  0.67904770405E+02 -0.84477306916E+03  0.88749682621E+03  0.26299697081E+03 0.  0.
         25    1    4    4    0    0  0.22914044913E+02  0.60292895696E+02 -0.41597944466E+03  0.43914313521E+03  0.12509000000E+03 0.  0.
         25    1    3    3    0    0  0.15185969338E+02 -0.67904770405E+02 -0.94274297687E+03  0.95354784885E+03  0.12509000000E+03 0.  0.
         25    1    4    4    0    0 -0.38100014251E+02  0.76118747095E+01 -0.42879362450E+03  0.44835369100E+03  0.12509000000E+03 0.  0.
<mgrwt>
<rscale>  2 0.44071746E+03</rscale>
<asrwt>0</asrwt>
<pdfrwt beam="1">  1       21 0.39359284E-02 0.44071746E+03</pdfrwt>
<pdfrwt beam="2">  1       21 0.26680595E+00 0.44071746E+03</pdfrwt>
<totfact> 0.18444798E+04</totfact>
</mgrwt>
</event>
<event>
 7    0  0.4748297E-002  0.4537586E+03  0.7546771E-02  0.1026607E+00
         21   -1    0    0  502  501  0.00000000000E+00  0.00000000000E+00  0.10779336486E+03  0.10779336486E+03  0.00000000000E+00 0.  1.
         21   -1    0    0  501  502 -0.00000000000E+00 -0.00000000000E+00 -0.47752674262E+03  0.47752674262E+03  0.00000000000E+00 0.  1.
      99926    2    1    2    0    0  0.00000000000E+00  0.00000000000E+00 -0.36973337776E+03  0.58532010748E+03  0.45375858955E+03 0.  0.
      99925    2    3    3    0    0 -0.10338836061E+03 -0.40142629346E+02 -0.21153574637E+03  0.35515802877E+03  0.26284837759E+03 0.  0.
         25    1    4    4    0    0 -0.40455589342E+02  0.19728186674E+02 -0.10213198439E+03  0.16764339055E+03  0.12509000000E+03 0.  0.
         25    1    3    3    0    0  0.10338836061E+03  0.40142629346E+02 -0.15819763139E+03  0.23016207871E+03  0.12509000000E+03 0.  0.
         25    1    4    4    0    0 -0.62932771270E+02 -0.59870816019E+02 -0.10940376198E+03  0.18751463822E+03  0.12509000000E+03 0.  0.
<mgrwt>
<rscale>  2 0.45375859E+03</rscale>
<asrwt>0</asrwt>
<pdfrwt beam="1">  1       21 0.15851965E-01 0.45375859E+03</pdfrwt>
<pdfrwt beam="2">  1       21 0.70224521E-01 0.45375859E+03</pdfrwt>
<totfact> 0.60179428E+04</totfact>
</mgrwt>
</event>
<event>
 7    0  0.4748297E-002  0.4544963E+03  0.7546771E-02  0.1026390E+00
         21   -1    0    0  502  501  0.00000000000E+00  0.00000000000E+00  0.61096843067E+03  0.61096843067E+03  0.00000000000E+00 0.  1.
         21   -1    0    0  501  502 -0.00000000000E+00 -0.00000000000E+00 -0.84524368256E+02  0.84524368256E+02  0.00000000000E+00 0.  1.
      99926    2    1    2    0    0  0.14210854715E-13 -0.35527136788E-14  0.52644406241E+03  0.69549279892E+03  0.45449629537E+03 0.  0.
      99925    2    3    3    0    0  0.94130739377E+02 -0.23624774889E+02  0.41888207891E+03  0.50408795447E+03  0.26310405495E+03 0.  0.
         25    1    4    4    0    0  0.61316960499E+02 -0.50582737241E+02  0.21405791930E+03  0.26035875992E+03  0.12509000000E+03 0.  0.
         25    1    3    3    0    0 -0.94130739377E+02  0.23624774889E+02  0.10756198351E+03  0.19140484445E+03  0.12509000000E+03 0.  0.
         25    1    4    4    0    0  0.32813778878E+02  0.26957962351E+02  0.20482415961E+03  0.24372919456E+03  0.12509000000E+03 0.  0.
<mgrwt>
<rscale>  2 0.45449630E+03</rscale>
<asrwt>0</asrwt>
<pdfrwt beam="1">  1       21 0.89848296E-01 0.45449630E+03</pdfrwt>
<pdfrwt beam="2">  1       21 0.12430054E-01 0.45449630E+03</pdfrwt>
<totfact> 0.53359611E+04</totfact>
</mgrwt>
</event>
<event>
 7    0  0.4748297E-002  0.4530650E+03  0.7546771E-02  0.1026812E+00
         21   -1    0    0  502  501  0.00000000000E+00  0.00000000000E+00  0.10639198382E+03  0.10639198382E+03  0.00000000000E+00 0.  1.
         21   -1    0    0  501  502 -0.00000000000E+00 -0.00000000000E+00 -0.48233877776E+03  0.48233877776E+03  0.00000000000E+00 0.  1.
      99926    2    1    2    0    0  0.00000000000E+00  0.00000000000E+00 -0.37594679394E+03  0.58873076158E+03  0.45306502597E+03 0.  0.
      99925    2    3    3    0    0  0.55049445132E+02 -0.16518736286E+02 -0.36064330854E+03  0.45022078063E+03  0.26330940974E+03 0.  0.
         25    1    3    3    0    0 -0.55049445132E+02  0.16518736286E+02 -0.15303485397E+02  0.13850998095E+03  0.12509000000E+03 0.  0.
         25    1    4    4    0    0  0.26342854127E+02  0.34202508421E+01 -0.11330275156E+03  0.17085276027E+03  0.12509000000E+03 0.  0.
         25    1    4    4    0    0  0.28706591005E+02 -0.19938987128E+02 -0.24734055698E+03  0.27936802037E+03  0.12509000000E+03 0.  0.
<mgrwt>
<rscale>  2 0.45306503E+03</rscale>
<asrwt>0</asrwt>
<pdfrwt beam="1">  1       21 0.15645880E-01 0.45306503E+03</pdfrwt>
<pdfrwt beam="2">  1       21 0.70932173E-01 0.45306503E+03</pdfrwt>
<totfact> 0.60294167E+04</totfact>
</mgrwt>
</event>
<event>
 7    0  0.4748297E-002  0.4525097E+03  0.7546771E-02  0.1026976E+00
         21   -1    0    0  502  501  0.00000000000E+00  0.00000000000E+00  0.22685785011E+03  0.22685785011E+03  0.00000000000E+00 0.  1.
         21   -1    0    0  501  502 -0.00000000000E+00 -0.00000000000E+00 -0.22565347364E+03  0.22565347364E+03  0.00000000000E+00 0.  1.
      99926    2    1    2    0    0  0.35527136788E-14  0.00000000000E+00  0.12043764685E+01  0.45251132375E+03  0.45250972100E+03 0.  0.
      99925    2    3    3    0    0  0.12038322136E+02  0.90959045021E+02  0.62806127587E+02  0.28559591730E+03  0.26306263369E+03 0.  0.
         25    1    4    4    0    0 -0.20435459111E+02  0.15743059186E+02  0.14952732363E+02  0.12859449524E+03  0.12509000000E+03 0.  0.
         25    1    3    3    0    0 -0.12038322136E+02 -0.90959045021E+02 -0.61601751118E+02  0.16691540645E+03  0.12509000000E+03 0.  0.
         25    1    4    4    0    0  0.32473781246E+02  0.75215985835E+02  0.47853395223E+02  0.15700142206E+03  0.12509000000E+03 0.  0.
<mgrwt>
<rscale>  2 0.45250972E+03</rscale>
<asrwt>0</asrwt>
<pdfrwt beam="1">  1       21 0.33361449E-01 0.45250972E+03</pdfrwt>
<pdfrwt beam="2">  1       21 0.33184334E-01 0.45250972E+03</pdfrwt>
<totfact> 0.70111271E+04</totfact>
</mgrwt>
</event>
<event>
 7    0  0.4748297E-002  0.4510408E+03  0.7546771E-02  0.1027412E+00
         21   -1    0    0  502  501  0.00000000000E+00  0.00000000000E+00  0.14565921530E+04  0.14565921530E+04  0.00000000000E+00 0.  1.
         21   -1    0    0  501  502 -0.00000000000E+00 -0.00000000000E+00 -0.34916741065E+02  0.34916741065E+02  0.00000000000E+00 0.  1.
      99926    2    1    2    0    0 -0.71054273576E-14  0.00000000000E+00  0.14216754119E+04  0.14915088941E+04  0.45104080101E+03 0.  0.
      99925    2    3    3    0    0  0.63661155219E+02  0.82155616347E+02  0.10108451770E+04  0.10496590576E+04  0.26300927222E+03 0.  0.
         25    1    4    4    0    0 -0.41450809867E+01  0.57944189597E+02  0.52665813540E+03  0.54441804754E+03  0.12509000000E+03 0.  0.
         25    1    3    3    0    0 -0.63661155219E+02 -0.82155616347E+02  0.41083023491E+03  0.44184983648E+03  0.12509000000E+03 0.  0.
         25    1    4    4    0    0  0.67806236206E+02  0.24211426751E+02  0.48418704161E+03  0.50524101003E+03  0.12509000000E+03 0.  0.
<mgrwt>
<rscale>  2 0.45104080E+03</rscale>
<asrwt>0</asrwt>
<pdfrwt beam="1">  1       21 0.21420469E+00 0.45104080E+03</pdfrwt>
<pdfrwt beam="2">  1       21 0.51348158E-02 0.45104080E+03</pdfrwt>
<totfact> 0.24740146E+04</totfact>
</mgrwt>
</event>
<event>
 7    0  0.4748297E-002  0.4332129E+03  0.7546771E-02  0.1032850E+00
         21   -1    0    0  502  501  0.00000000000E+00  0.00000000000E+00  0.74292897629E+03  0.74292897629E+03  0.00000000000E+00 0. -1.
         21   -1    0    0  501  502 -0.00000000000E+00 -0.00000000000E+00 -0.63153208694E+02  0.63153208694E+02  0.00000000000E+00 0. -1.
      99926    2    1    2    0    0 -0.35527136788E-14  0.00000000000E+00  0.67977576760E+03  0.80608218499E+03  0.43321287462E+03 0.  0.
      99925    2    3    3    0    0  0.17639302793E+02 -0.89311916662E+02  0.44579353489E+03  0.52557736010E+03  0.26308158856E+03 0.  0.
         25    1    4    4    0    0  0.40481194415E+02 -0.19187278504E+02  0.20073622904E+03  0.24072685871E+03  0.12509000000E+03 0.  0.
         25    1    4    4    0    0 -0.22841891623E+02 -0.70124638158E+02  0.24505730585E+03  0.28485050139E+03  0.12509000000E+03 0.  0.
         25    1    3    3    0    0 -0.17639302793E+02  0.89311916662E+02  0.23398223271E+03  0.28050482489E+03  0.12509000000E+03 0.  0.
<mgrwt>
<rscale>  2 0.43321287E+03</rscale>
<asrwt>0</asrwt>
<pdfrwt beam="1">  1       21 0.10925426E+00 0.43321287E+03</pdfrwt>
<pdfrwt beam="2">  1       21 0.92872370E-02 0.43321287E+03</pdfrwt>
<totfact> 0.56536168E+04</totfact>
</mgrwt>
</event>
<event>
 7    0  0.4748297E-002  0.4536937E+03  0.7546771E-02  0.1026626E+00
         21   -1    0    0  502  501  0.00000000000E+00  0.00000000000E+00  0.10337544415E+03  0.10337544415E+03  0.00000000000E+00 0. -1.
         21   -1    0    0  501  502 -0.00000000000E+00 -0.00000000000E+00 -0.49779232396E+03  0.49779232396E+03  0.00000000000E+00 0. -1.
      99926    2    1    2    0    0  0.00000000000E+00  0.00000000000E+00 -0.39441687980E+03  0.60116776811E+03  0.45369374069E+03 0.  0.
      99925    2    3    3    0    0 -0.41866244299E+02  0.10367833037E+03 -0.25625037373E+03  0.38382133933E+03  0.26296879642E+03 0.  0.
         25    1    4    4    0    0 -0.26541806141E+02  0.35218588965E+02 -0.17299011599E+03  0.21798601976E+03  0.12509000000E+03 0.  0.
         25    1    3    3    0    0  0.41866244299E+02 -0.10367833037E+03 -0.13816650608E+03  0.21734642878E+03  0.12509000000E+03 0.  0.
         25    1    4    4    0    0 -0.15324438158E+02  0.68459741407E+02 -0.83260257738E+02  0.16583531957E+03  0.12509000000E+03 0.  0.
<mgrwt>
<rscale>  2 0.45369374E+03</rscale>
<asrwt>0</asrwt>
<pdfrwt beam="1">  1       21 0.15202271E-01 0.45369374E+03</pdfrwt>
<pdfrwt beam="2">  1       21 0.73204754E-01 0.45369374E+03</pdfrwt>
<totfact> 0.59215225E+04</totfact>
</mgrwt>
</event>
<event>
 7    0  0.4748297E-002  0.4562951E+03  0.7546771E-02  0.1025861E+00
         21   -1    0    0  502  501  0.00000000000E+00  0.00000000000E+00  0.35576855812E+03  0.35576855812E+03  0.00000000000E+00 0.  1.
         21   -1    0    0  501  502 -0.00000000000E+00 -0.00000000000E+00 -0.14630661420E+03  0.14630661420E+03  0.00000000000E+00 0.  1.
      99926    2    1    2    0    0  0.00000000000E+00  0.00000000000E+00  0.20946194392E+03  0.50207517232E+03  0.45629505006E+03 0.  0.
      99925    2    3    3    0    0 -0.74294867177E+02  0.14804954551E+02  0.37387654326E+02  0.27625227001E+03  0.26301818572E+03 0.  0.
         25    1    4    4    0    0 -0.28451330150E+02 -0.20606862202E+02  0.46747168308E+02  0.13808304314E+03  0.12509000000E+03 0.  0.
         25    1    3    3    0    0  0.74294867177E+02 -0.14804954551E+02  0.17207428960E+03  0.22582290231E+03  0.12509000000E+03 0.  0.
         25    1    4    4    0    0 -0.45843537027E+02  0.35411816753E+02 -0.93595139824E+01  0.13816922687E+03  0.12509000000E+03 0.  0.
<mgrwt>
<rscale>  2 0.45629505E+03</rscale>
<asrwt>0</asrwt>
<pdfrwt beam="1">  1       21 0.52318905E-01 0.45629505E+03</pdfrwt>
<pdfrwt beam="2">  1       21 0.21515679E-01 0.45629505E+03</pdfrwt>
<totfact> 0.64459923E+04</totfact>
</mgrwt>
</event>
<event>
 7    0  0.4748297E-002  0.4077087E+03  0.7546771E-02  0.1041143E+00
         21   -1    0    0  502  501  0.00000000000E+00  0.00000000000E+00  0.17861837170E+03  0.17861837170E+03  0.00000000000E+00 0. -1.
         21   -1    0    0  501  502 -0.00000000000E+00 -0.00000000000E+00 -0.23265575370E+03  0.23265575370E+03  0.00000000000E+00 0. -1.
      99926    2    1    2    0    0  0.00000000000E+00 -0.71054273576E-14 -0.54037382005E+02  0.41127412540E+03  0.40770867979E+03 0.  0.
      99925    2    3    3    0    0 -0.40198324617E+02 -0.40146990341E+02 -0.20504408328E+02  0.26985399049E+03  0.26300771716E+03 0.  0.
         25    1    3    3    0    0  0.40198324617E+02  0.40146990341E+02 -0.33532973677E+02  0.14142013491E+03  0.12509000000E+03 0.  0.
         25    1    4    4    0    0 -0.31149866977E+02  0.23761962065E+01 -0.42192579143E+02  0.13566017233E+03  0.12509000000E+03 0.  0.
         25    1    4    4    0    0 -0.90484576399E+01 -0.42523186547E+02  0.21688170815E+02  0.13419381816E+03  0.12509000000E+03 0.  0.
<mgrwt>
<rscale>  2 0.40770868E+03</rscale>
<asrwt>0</asrwt>
<pdfrwt beam="1">  1       21 0.26267408E-01 0.40770868E+03</pdfrwt>
<pdfrwt beam="2">  1       21 0.34214081E-01 0.40770868E+03</pdfrwt>
<totfact> 0.10684179E+05</totfact>
</mgrwt>
</event>
<event>
 7    0  0.4748297E-002  0.4623944E+03  0.7546771E-02  0.1024089E+00
         21   -1    0    0  502  501  0.00000000000E+00  0.00000000000E+00  0.71662260016E+02  0.71662260016E+02  0.00000000000E+00 0.  1.
         21   -1    0    0  501  502 -0.00000000000E+00 -0.00000000000E+00 -0.74588982973E+03  0.74588982973E+03  0.00000000000E+00 0.  1.
      99926    2    1    2    0    0  0.00000000000E+00  0.00000000000E+00 -0.67422756971E+03  0.81755208974E+03  0.46239442437E+03 0.  0.
      99925    2    3    3    0    0 -0.11474500092E+03  0.86300105414E+01 -0.36180498606E+03  0.46188894688E+03  0.26305447913E+03 0.  0.
         25    1    4    4    0    0 -0.31546736434E+02  0.35022267234E+01 -0.22100898507E+03  0.25592956405E+03  0.12509000000E+03 0.  0.
         25    1    4    4    0    0 -0.83198264489E+02  0.51277838180E+01 -0.14079600099E+03  0.20595938283E+03  0.12509000000E+03 0.  0.
         25    1    3    3    0    0  0.11474500092E+03 -0.86300105414E+01 -0.31242258365E+03  0.35566314287E+03  0.12509000000E+03 0.  0.
<mgrwt>
<rscale>  2 0.46239442E+03</rscale>
<asrwt>0</asrwt>
<pdfrwt beam="1">  1       21 0.10538568E-01 0.46239442E+03</pdfrwt>
<pdfrwt beam="2">  1       21 0.10968968E+00 0.46239442E+03</pdfrwt>
<totfact> 0.44300610E+04</totfact>
</mgrwt>
</event>
<event>
 7    0  0.4748297E-002  0.4622734E+03  0.7546771E-02  0.1024124E+00
         21   -1    0    0  502  501  0.00000000000E+00  0.00000000000E+00  0.63919436314E+03  0.63919436314E+03  0.00000000000E+00 0. -1.
         21   -1    0    0  501  502 -0.00000000000E+00 -0.00000000000E+00 -0.83580468685E+02  0.83580468685E+02  0.00000000000E+00 0. -1.
      99926    2    1    2    0    0 -0.17763568394E-14  0.00000000000E+00  0.55561389445E+03  0.72277483182E+03  0.46227335831E+03 0.  0.
      99925    2    3    3    0    0 -0.15755188404E+02 -0.26543602381E+02  0.52850207346E+03  0.59111106412E+03  0.26295448215E+03 0.  0.
         25    1    3    3    0    0  0.15755188404E+02  0.26543602381E+02  0.27111820999E+02  0.13166376771E+03  0.12509000000E+03 0.  0.
         25    1    4    4    0    0  0.10899135354E+02 -0.40899336064E+02  0.21636238292E+03  0.25347926086E+03  0.12509000000E+03 0.  0.
         25    1    4    4    0    0 -0.26654323759E+02  0.14355733683E+02  0.31213969053E+03  0.33763180326E+03  0.12509000000E+03 0.  0.
<mgrwt>
<rscale>  2 0.46227336E+03</rscale>
<asrwt>0</asrwt>
<pdfrwt beam="1">  1       21 0.93999168E-01 0.46227336E+03</pdfrwt>
<pdfrwt beam="2">  1       21 0.12291246E-01 0.46227336E+03</pdfrwt>
<totfact> 0.48829957E+04</totfact>
</mgrwt>
</event>
<event>
 7    0  0.4748297E-002  0.4507265E+03  0.7546771E-02  0.1027506E+00
         21   -1    0    0  502  501  0.00000000000E+00  0.00000000000E+00  0.48828773998E+03  0.48828773998E+03  0.00000000000E+00 0.  1.
         21   -1    0    0  501  502 -0.00000000000E+00 -0.00000000000E+00 -0.10401366371E+03  0.10401366371E+03  0.00000000000E+00 0.  1.
      99926    2    1    2    0    0 -0.28865798640E-14  0.00000000000E+00  0.38427407627E+03  0.59230140369E+03  0.45072651034E+03 0.  0.
      99925    2    3    3    0    0 -0.11675016797E+01  0.33676368367E+02  0.10642939748E+03  0.28573879266E+03  0.26302847781E+03 0.  0.
         25    1    4    4    0    0 -0.39524642013E+02  0.66863015411E+01  0.58695714792E+02  0.14387355208E+03  0.12509000000E+03 0.  0.
         25    1    4    4    0    0  0.38357140334E+02  0.26990066826E+02  0.47733682685E+02  0.14186524058E+03  0.12509000000E+03 0.  0.
         25    1    3    3    0    0  0.11675016797E+01 -0.33676368367E+02  0.27784467879E+03  0.30656261103E+03  0.12509000000E+03 0.  0.
<mgrwt>
<rscale>  2 0.45072651E+03</rscale>
<asrwt>0</asrwt>
<pdfrwt beam="1">  1       21 0.71807020E-01 0.45072651E+03</pdfrwt>
<pdfrwt beam="2">  1       21 0.15296127E-01 0.45072651E+03</pdfrwt>
<totfact> 0.61195353E+04</totfact>
</mgrwt>
</event>
<event>
 7    0  0.4748297E-002  0.4440847E+03  0.7546771E-02  0.1029501E+00
         21   -1    0    0  502  501  0.00000000000E+00  0.00000000000E+00  0.15154132961E+02  0.15154132961E+02  0.00000000000E+00 0. -1.
         21   -1    0    0  501  502 -0.00000000000E+00 -0.00000000000E+00 -0.32534229902E+04  0.32534229902E+04  0.00000000000E+00 0. -1.
      99926    2    1    2    0    0  0.00000000000E+00  0.00000000000E+00 -0.32382688572E+04  0.32685771231E+04  0.44408469720E+03 0.  0.
      99925    2    3    3    0    0  0.20350541421E+02  0.52047816036E+01 -0.27981448784E+04  0.28105401605E+04  0.26283074237E+03 0.  0.
         25    1    4    4    0    0  0.21632639246E+02  0.31356418742E+02 -0.16896766847E+04  0.16947288877E+04  0.12509000000E+03 0.  0.
         25    1    4    4    0    0 -0.12820978252E+01 -0.26151637138E+02 -0.11084681937E+04  0.11158112728E+04  0.12509000000E+03 0.  0.
         25    1    3    3    0    0 -0.20350541421E+02 -0.52047816036E+01 -0.44012397878E+03  0.45803696257E+03  0.12509000000E+03 0.  0.
<mgrwt>
<rscale>  2 0.44408470E+03</rscale>
<asrwt>0</asrwt>
<pdfrwt beam="1">  1       21 0.22285487E-02 0.44408470E+03</pdfrwt>
<pdfrwt beam="2">  1       21 0.47844462E+00 0.44408470E+03</pdfrwt>
<totfact> 0.21890093E+03</totfact>
</mgrwt>
</event>
<event>
 7    0  0.4748297E-002  0.4520431E+03  0.7546771E-02  0.1027115E+00
         21   -1    0    0  502  501  0.00000000000E+00  0.00000000000E+00  0.35310093558E+03  0.35310093558E+03  0.00000000000E+00 0. -1.
         21   -1    0    0  501  502 -0.00000000000E+00 -0.00000000000E+00 -0.14467742240E+03  0.14467742240E+03  0.00000000000E+00 0. -1.
      99926    2    1    2    0    0  0.35527136788E-14  0.00000000000E+00  0.20842351317E+03  0.49777835798E+03  0.45204306524E+03 0.  0.
      99925    2    3    3    0    0 -0.22400368900E+02 -0.90202115403E+02  0.19708040880E+03  0.34152736673E+03  0.26298679918E+03 0.  0.
         25    1    4    4    0    0  0.43406723922E+01 -0.80450368055E+02  0.86159225874E+02  0.17193610284E+03  0.12509000000E+03 0.  0.
         25    1    4    4    0    0 -0.26741041293E+02 -0.97517473478E+01  0.11092118293E+03  0.16959126389E+03  0.12509000000E+03 0.  0.
         25    1    3    3    0    0  0.22400368900E+02  0.90202115403E+02  0.11343104371E+02  0.15625099125E+03  0.12509000000E+03 0.  0.
<mgrwt>
<rscale>  2 0.45204307E+03</rscale>
<asrwt>0</asrwt>
<pdfrwt beam="1">  1       21 0.51926608E-01 0.45204307E+03</pdfrwt>
<pdfrwt beam="2">  1       21 0.21276092E-01 0.45204307E+03</pdfrwt>
<totfact> 0.66985584E+04</totfact>
</mgrwt>
</event>
<event>
 7    0  0.4748297E-002  0.4518760E+03  0.7546771E-02  0.1027164E+00
         21   -1    0    0  502  501  0.00000000000E+00  0.00000000000E+00  0.35626181931E+02  0.35626181931E+02  0.00000000000E+00 0. -1.
         21   -1    0    0  501  502 -0.00000000000E+00 -0.00000000000E+00 -0.14328782766E+04  0.14328782766E+04  0.00000000000E+00 0. -1.
      99926    2    1    2    0    0  0.00000000000E+00  0.88817841970E-15 -0.13972520946E+04  0.14685044585E+04  0.45187601027E+03 0.  0.
      99925    2    3    3    0    0  0.55273091510E+02  0.73448302686E+01 -0.11906885004E+04  0.12206636069E+04  0.26300470516E+03 0.  0.
         25    1    4    4    0    0  0.49258756753E+02  0.12875548316E+02 -0.76776724240E+03  0.77955516255E+03  0.12509000000E+03 0.  0.
         25    1    3    3    0    0 -0.55273091510E+02 -0.73448302686E+01 -0.20656359419E+03  0.24784085160E+03  0.12509000000E+03 0.  0.
         25    1    4    4    0    0  0.60143347569E+01 -0.55307180478E+01 -0.42292125804E+03  0.44110844434E+03  0.12509000000E+03 0.  0.
<mgrwt>
<rscale>  2 0.45187601E+03</rscale>
<asrwt>0</asrwt>
<pdfrwt beam="1">  1       21 0.52391446E-02 0.45187601E+03</pdfrwt>
<pdfrwt beam="2">  1       21 0.21071738E+00 0.45187601E+03</pdfrwt>
<totfact> 0.25166897E+04</totfact>
</mgrwt>
</event>
<event>
 7    0  0.4748297E-002  0.4563701E+03  0.7546771E-02  0.1025839E+00
         21   -1    0    0  502  501  0.00000000000E+00  0.00000000000E+00  0.98522260757E+03  0.98522260757E+03  0.00000000000E+00 0. -1.
         21   -1    0    0  501  502 -0.00000000000E+00 -0.00000000000E+00 -0.52849402138E+02  0.52849402138E+02  0.00000000000E+00 0. -1.
      99926    2    1    2    0    0  0.14210854715E-13  0.71054273576E-14  0.93237320543E+03  0.10380720097E+04  0.45637013830E+03 0.  0.
      99925    2    3    3    0    0  0.10848571726E+03  0.33224788789E+02  0.54877628366E+03  0.61894536545E+03  0.26280205185E+03 0.  0.
         25    1    3    3    0    0 -0.10848571726E+03 -0.33224788789E+02  0.38359692177E+03  0.41912664426E+03  0.12509000000E+03 0.  0.
         25    1    4    4    0    0  0.26905610722E+02  0.35538459908E+02  0.31080448861E+03  0.33798495863E+03  0.12509000000E+03 0.  0.
         25    1    4    4    0    0  0.81580106536E+02 -0.23136711192E+01  0.23797179505E+03  0.28096040681E+03  0.12509000000E+03 0.  0.
<mgrwt>
<rscale>  2 0.45637014E+03</rscale>
<asrwt>0</asrwt>
<pdfrwt beam="1">  1       21 0.14488567E+00 0.45637014E+03</pdfrwt>
<pdfrwt beam="2">  1       21 0.77719715E-02 0.45637014E+03</pdfrwt>
<totfact> 0.37317403E+04</totfact>
</mgrwt>
</event>
<event>
 7    0  0.4748297E-002  0.4526529E+03  0.7546771E-02  0.1026934E+00
         21   -1    0    0  502  501  0.00000000000E+00  0.00000000000E+00  0.51865991773E+03  0.51865991773E+03  0.00000000000E+00 0. -1.
         21   -1    0    0  501  502 -0.00000000000E+00 -0.00000000000E+00 -0.98761553895E+02  0.98761553895E+02  0.00000000000E+00 0. -1.
      99926    2    1    2    0    0  0.71054273576E-14 -0.14210854715E-13  0.41989836383E+03  0.61742147162E+03  0.45265288873E+03 0.  0.
      99925    2    3    3    0    0  0.46771107927E+02 -0.99249825411E+02  0.28727157787E+03  0.40464121681E+03  0.26300473478E+03 0.  0.
         25    1    3    3    0    0 -0.46771107927E+02  0.99249825411E+02  0.13262678597E+03  0.21278025481E+03  0.12509000000E+03 0.  0.
         25    1    4    4    0    0  0.23476795944E+02 -0.35535875089E+02  0.84248954192E+02  0.15671423914E+03  0.12509000000E+03 0.  0.
         25    1    4    4    0    0  0.23294311983E+02 -0.63713950322E+02  0.20302262367E+03  0.24792697768E+03  0.12509000000E+03 0.  0.
<mgrwt>
<rscale>  2 0.45265289E+03</rscale>
<asrwt>0</asrwt>
<pdfrwt beam="1">  1       21 0.76273516E-01 0.45265289E+03</pdfrwt>
<pdfrwt beam="2">  1       21 0.14523758E-01 0.45265289E+03</pdfrwt>
<totfact> 0.58699002E+04</totfact>
</mgrwt>
</event>
<event>
 7    0  0.4748297E-002  0.4541382E+03  0.7546771E-02  0.1026495E+00
         21   -1    0    0  502  501  0.00000000000E+00  0.00000000000E+00  0.17018030926E+03  0.17018030926E+03  0.00000000000E+00 0.  1.
         21   -1    0    0  501  502 -0.00000000000E+00 -0.00000000000E+00 -0.30297504420E+03  0.30297504420E+03  0.00000000000E+00 0.  1.
      99926    2    1    2    0    0  0.00000000000E+00 -0.71054273576E-14 -0.13279473494E+03  0.47315535345E+03  0.45413824643E+03 0.  0.
      99925    2    3    3    0    0  0.33650687906E+02 -0.34884149396E+02 -0.18918888756E+03  0.32763188034E+03  0.26306071764E+03 0.  0.
         25    1    3    3    0    0 -0.33650687906E+02  0.34884149396E+02  0.56394152625E+02  0.14552347311E+03  0.12509000000E+03 0.  0.
         25    1    4    4    0    0  0.27870592856E+01  0.21254782227E+02 -0.92408460186E+02  0.15699160831E+03  0.12509000000E+03 0.  0.
         25    1    4    4    0    0  0.30863628621E+02 -0.56138931622E+02 -0.96780427378E+02  0.17064027203E+03  0.12509000000E+03 0.  0.
<mgrwt>
<rscale>  2 0.45413825E+03</rscale>
<asrwt>0</asrwt>
<pdfrwt beam="1">  1       21 0.25026516E-01 0.45413825E+03</pdfrwt>
<pdfrwt beam="2">  1       21 0.44555153E-01 0.45413825E+03</pdfrwt>
<totfact> 0.67663357E+04</totfact>
</mgrwt>
</event>
<event>
 7    0  0.4748297E-002  0.4540093E+03  0.7546771E-02  0.1026533E+00
         21   -1    0    0  502  501  0.00000000000E+00  0.00000000000E+00  0.53105963838E+02  0.53105963838E+02  0.00000000000E+00 0.  1.
         21   -1    0    0  501  502 -0.00000000000E+00 -0.00000000000E+00 -0.97034497893E+03  0.97034497893E+03  0.00000000000E+00 0.  1.
      99926    2    1    2    0    0 -0.88817841970E-15 -0.71054273576E-14 -0.91723901509E+03  0.10234509428E+04  0.45400927462E+03 0.  0.
      99925    2    3    3    0    0 -0.68297039914E+01 -0.40602209399E+02 -0.34408295927E+03  0.43536034031E+03  0.26353435980E+03 0.  0.
         25    1    3    3    0    0  0.68297039914E+01  0.40602209399E+02 -0.57315605582E+03  0.58809060245E+03  0.12509000000E+03 0.  0.
         25    1    4    4    0    0 -0.12816783187E+02 -0.49596429555E+02 -0.22399720672E+03  0.26162249994E+03  0.12509000000E+03 0.  0.
         25    1    4    4    0    0  0.59870791957E+01  0.89942201556E+01 -0.12008575254E+03  0.17373784037E+03  0.12509000000E+03 0.  0.
<mgrwt>
<rscale>  2 0.45400927E+03</rscale>
<asrwt>0</asrwt>
<pdfrwt beam="1">  1       21 0.78097010E-02 0.45400927E+03</pdfrwt>
<pdfrwt beam="2">  1       21 0.14269778E+00 0.45400927E+03</pdfrwt>
<totfact> 0.38564319E+04</totfact>
</mgrwt>
</event>
<event>
 7    0  0.4748297E-002  0.4530285E+03  0.7546771E-02  0.1026823E+00
         21   -1    0    0  502  501  0.00000000000E+00  0.00000000000E+00  0.25312080074E+03  0.25312080074E+03  0.00000000000E+00 0. -1.
         21   -1    0    0  501  502 -0.00000000000E+00 -0.00000000000E+00 -0.20270444137E+03  0.20270444137E+03  0.00000000000E+00 0. -1.
      99926    2    1    2    0    0  0.00000000000E+00  0.00000000000E+00  0.50416359367E+02  0.45582524210E+03  0.45302852233E+03 0.  0.
      99925    2    3    3    0    0  0.80739283127E+02  0.72693590852E+02  0.55528279361E+02  0.29006387804E+03  0.26315484708E+03 0.  0.
         25    1    3    3    0    0 -0.80739283127E+02 -0.72693590852E+02 -0.51119199946E+01  0.16576136407E+03  0.12509000000E+03 0.  0.
         25    1    4    4    0    0  0.76122230365E+02  0.49291722144E+02  0.10008321059E+02  0.15482875191E+03  0.12509000000E+03 0.  0.
         25    1    4    4    0    0  0.46170527622E+01  0.23401868708E+02  0.45519958302E+02  0.13523512613E+03  0.12509000000E+03 0.  0.
<mgrwt>
<rscale>  2 0.45302852E+03</rscale>
<asrwt>0</asrwt>
<pdfrwt beam="1">  1       21 0.37223647E-01 0.45302852E+03</pdfrwt>
<pdfrwt beam="2">  1       21 0.29809476E-01 0.45302852E+03</pdfrwt>
<totfact> 0.69573237E+04</totfact>
</mgrwt>
</event>
<event>
 7    0  0.4748297E-002  0.4769166E+03  0.7546771E-02  0.1019986E+00
         21   -1    0    0  502  501  0.00000000000E+00  0.00000000000E+00  0.90646339022E+03  0.90646339022E+03  0.00000000000E+00 0. -1.
         21   -1    0    0  501  502 -0.00000000000E+00 -0.00000000000E+00 -0.62729908593E+02  0.62729908593E+02  0.00000000000E+00 0. -1.
      99926    2    1    2    0    0  0.14210854715E-13 -0.71054273576E-14  0.84373348162E+03  0.96919329881E+03  0.47691662001E+03 0.  0.
      99925    2    3    3    0    0  0.11571107704E+03 -0.40470735049E+02  0.62518752882E+03  0.68912763627E+03  0.26269853280E+03 0.  0.
         25    1    3    3    0    0 -0.11571107704E+03  0.40470735049E+02  0.21854595280E+03  0.28006566254E+03  0.12509000000E+03 0.  0.
         25    1    4    4    0    0  0.29323231549E+02  0.98029342372E+01  0.25172491795E+03  0.28278771516E+03  0.12509000000E+03 0.  0.
         25    1    4    4    0    0  0.86387845493E+02 -0.50273669287E+02  0.37346261087E+03  0.40633992111E+03  0.12509000000E+03 0.  0.
<mgrwt>
<rscale>  2 0.47691662E+03</rscale>
<asrwt>0</asrwt>
<pdfrwt beam="1">  1       21 0.13330343E+00 0.47691662E+03</pdfrwt>
<pdfrwt beam="2">  1       21 0.92249871E-02 0.47691662E+03</pdfrwt>
<totfact> 0.34135911E+04</totfact>
</mgrwt>
</event>
<event>
 7    0  0.4748297E-002  0.4376076E+03  0.7546771E-02  0.1031483E+00
         21   -1    0    0  502  501  0.00000000000E+00  0.00000000000E+00  0.17529291784E+03  0.17529291784E+03  0.00000000000E+00 0.  1.
         21   -1    0    0  501  502 -0.00000000000E+00 -0.00000000000E+00 -0.27311490031E+03  0.27311490031E+03  0.00000000000E+00 0.  1.
      99926    2    1    2    0    0 -0.44408920985E-15  0.00000000000E+00 -0.97821982464E+02  0.44840781815E+03  0.43760762233E+03 0.  0.
      99925    2    3    3    0    0  0.21091900339E+01 -0.21803038008E+02 -0.15834400054E+03  0.30773001634E+03  0.26295459551E+03 0.  0.
         25    1    3    3    0    0 -0.21091900339E+01  0.21803038008E+02  0.60522018079E+02  0.14067780181E+03  0.12509000000E+03 0.  0.
         25    1    4    4    0    0  0.21151092687E+02 -0.17816055011E+02 -0.11980214385E+03  0.17539909438E+03  0.12509000000E+03 0.  0.
         25    1    4    4    0    0 -0.19041902653E+02 -0.39869829967E+01 -0.38541856696E+02  0.13233092196E+03  0.12509000000E+03 0.  0.
<mgrwt>
<rscale>  2 0.43760762E+03</rscale>
<asrwt>0</asrwt>
<pdfrwt beam="1">  1       21 0.25778370E-01 0.43760762E+03</pdfrwt>
<pdfrwt beam="2">  1       21 0.40163956E-01 0.43760762E+03</pdfrwt>
<totfact> 0.79488406E+04</totfact>
</mgrwt>
</event>
<event>
 7    0  0.4748297E-002  0.4512128E+03  0.7546771E-02  0.1027361E+00
         21   -1    0    0  502  501  0.00000000000E+00  0.00000000000E+00  0.10215027882E+04  0.10215027882E+04  0.00000000000E+00 0.  1.
         21   -1    0    0  501  502 -0.00000000000E+00 -0.00000000000E+00 -0.49826832451E+02  0.49826832451E+02  0.00000000000E+00 0.  1.
      99926    2    1    2    0    0  0.35527136788E-14  0.35527136788E-14  0.97167595574E+03  0.10713296206E+04  0.45121280245E+03 0.  0.
      99925    2    3    3    0    0 -0.31853933588E+02 -0.17214386306E+02  0.85911303572E+03  0.89919906773E+03  0.26300712364E+03 0.  0.
         25    1    4    4    0    0 -0.34458267741E+02 -0.66444715877E+01  0.55859058770E+03  0.57350019528E+03  0.12509000000E+03 0.  0.
         25    1    4    4    0    0  0.26043341527E+01 -0.10569914718E+02  0.30052244801E+03  0.32569887244E+03  0.12509000000E+03 0.  0.
         25    1    3    3    0    0  0.31853933588E+02  0.17214386306E+02  0.11256292002E+03  0.17213055291E+03  0.12509000000E+03 0.  0.
<mgrwt>
<rscale>  2 0.45121280E+03</rscale>
<asrwt>0</asrwt>
<pdfrwt beam="1">  1       21 0.15022099E+00 0.45121280E+03</pdfrwt>
<pdfrwt beam="2">  1       21 0.73274760E-02 0.45121280E+03</pdfrwt>
<totfact> 0.37603425E+04</totfact>
</mgrwt>
</event>
<event>
 7    0  0.4748297E-002  0.4935787E+03  0.7546771E-02  0.1015469E+00
         21   -1    0    0  502  501  0.00000000000E+00  0.00000000000E+00  0.12837870564E+04  0.12837870564E+04  0.00000000000E+00 0. -1.
         21   -1    0    0  501  502 -0.00000000000E+00 -0.00000000000E+00 -0.47441659173E+02  0.47441659173E+02  0.00000000000E+00 0. -1.
      99926    2    1    2    0    0  0.00000000000E+00  0.14210854715E-13  0.12363453973E+04  0.13312287156E+04  0.49357871908E+03 0.  0.
      99925    2    3    3    0    0  0.12366910373E+03  0.77014762138E+02  0.71996174551E+03  0.78029777193E+03  0.26323825154E+03 0.  0.
         25    1    4    4    0    0  0.61652106973E+02  0.61541706904E+02  0.46297706875E+03  0.48742552074E+03  0.12509000000E+03 0.  0.
         25    1    4    4    0    0  0.62016996762E+02  0.15473055234E+02  0.25698467676E+03  0.29287225119E+03  0.12509000000E+03 0.  0.
         25    1    3    3    0    0 -0.12366910373E+03 -0.77014762138E+02  0.51638365176E+03  0.55093094369E+03  0.12509000000E+03 0.  0.
<mgrwt>
<rscale>  2 0.49357872E+03</rscale>
<asrwt>0</asrwt>
<pdfrwt beam="1">  1       21 0.18879219E+00 0.49357872E+03</pdfrwt>
<pdfrwt beam="2">  1       21 0.69767154E-02 0.49357872E+03</pdfrwt>
<totfact> 0.21131148E+04</totfact>
</mgrwt>
</event>
<event>
 7    0  0.4748297E-002  0.4543870E+03  0.7546771E-02  0.1026422E+00
         21   -1    0    0  502  501  0.00000000000E+00  0.00000000000E+00  0.12802831937E+03  0.12802831937E+03  0.00000000000E+00 0.  1.
         21   -1    0    0  501  502 -0.00000000000E+00 -0.00000000000E+00 -0.40316767963E+03  0.40316767963E+03  0.00000000000E+00 0.  1.
      99926    2    1    2    0    0  0.00000000000E+00 -0.17763568394E-14 -0.27513936026E+03  0.53119599900E+03  0.45438697361E+03 0.  0.
      99925    2    3    3    0    0  0.60121535577E+02 -0.46904732628E+01 -0.62028188047E+02  0.27683310980E+03  0.26296858175E+03 0.  0.
         25    1    3    3    0    0 -0.60121535577E+02  0.46904732628E+01 -0.21311117221E+03  0.25436288920E+03  0.12509000000E+03 0.  0.
         25    1    4    4    0    0  0.50525460014E+02  0.24504809781E+02 -0.55300505049E+02  0.14784776552E+03  0.12509000000E+03 0.  0.
         25    1    4    4    0    0  0.95960755632E+01 -0.29195283044E+02 -0.67276829983E+01  0.12898534427E+03  0.12509000000E+03 0.  0.
<mgrwt>
<rscale>  2 0.45438697E+03</rscale>
<asrwt>0</asrwt>
<pdfrwt beam="1">  1       21 0.18827694E-01 0.45438697E+03</pdfrwt>
<pdfrwt beam="2">  1       21 0.59289366E-01 0.45438697E+03</pdfrwt>
<totfact> 0.63433254E+04</totfact>
</mgrwt>
</event>
<event>
 7    0  0.4748297E-002  0.4545797E+03  0.7546771E-02  0.1026365E+00
         21   -1    0    0  502  501  0.00000000000E+00  0.00000000000E+00  0.89658278620E+02  0.89658278620E+02  0.00000000000E+00 0. -1.
         21   -1    0    0  501  502 -0.00000000000E+00 -0.00000000000E+00 -0.57619524914E+03  0.57619524914E+03  0.00000000000E+00 0. -1.
      99926    2    1    2    0    0  0.14210854715E-13  0.00000000000E+00 -0.48653697052E+03  0.66585352776E+03  0.45457969241E+03 0.  0.
      99925    2    3    3    0    0 -0.80583158090E+02 -0.60755287868E+02 -0.23286979962E+03  0.36555468983E+03  0.26309130983E+03 0.  0.
         25    1    4    4    0    0 -0.47474235003E+01 -0.31235082838E+02 -0.13696929851E+03  0.18816552624E+03  0.12509000000E+03 0.  0.
         25    1    4    4    0    0 -0.75835734590E+02 -0.29520205030E+02 -0.95900501111E+02  0.17738916359E+03  0.12509000000E+03 0.  0.
         25    1    3    3    0    0  0.80583158090E+02  0.60755287868E+02 -0.25366717090E+03  0.30029883794E+03  0.12509000000E+03 0.  0.
<mgrwt>
<rscale>  2 0.45457969E+03</rscale>
<asrwt>0</asrwt>
<pdfrwt beam="1">  1       21 0.13185041E-01 0.45457969E+03</pdfrwt>
<pdfrwt beam="2">  1       21 0.84734595E-01 0.45457969E+03</pdfrwt>
<totfact> 0.54978199E+04</totfact>
</mgrwt>
</event>
<event>
 7    0  0.4748297E-002  0.4489388E+03  0.7546771E-02  0.1028039E+00
         21   -1    0    0  502  501  0.00000000000E+00  0.00000000000E+00  0.86685943061E+02  0.86685943061E+02  0.00000000000E+00 0. -1.
         21   -1    0    0  501  502 -0.00000000000E+00 -0.00000000000E+00 -0.58125345940E+03  0.58125345940E+03  0.00000000000E+00 0. -1.
      99926    2    1    2    0    0 -0.35527136788E-14  0.00000000000E+00 -0.49456751634E+03  0.66793940246E+03  0.44893876770E+03 0.  0.
      99925    2    3    3    0    0 -0.28081012286E+02 -0.10329375561E+03 -0.32628071020E+03  0.43251191804E+03  0.26296257187E+03 0.  0.
         25    1    4    4    0    0 -0.25790305174E+02 -0.45349058146E+02 -0.22011853045E+03  0.25849826394E+03  0.12509000000E+03 0.  0.
         25    1    3    3    0    0  0.28081012286E+02  0.10329375561E+03 -0.16828680614E+03  0.23542748442E+03  0.12509000000E+03 0.  0.
         25    1    4    4    0    0 -0.22907071125E+01 -0.57944697461E+02 -0.10616217975E+03  0.17401365410E+03  0.12509000000E+03 0.  0.
<mgrwt>
<rscale>  2 0.44893877E+03</rscale>
<asrwt>0</asrwt>
<pdfrwt beam="1">  1       21 0.12747933E-01 0.44893877E+03</pdfrwt>
<pdfrwt beam="2">  1       21 0.85478446E-01 0.44893877E+03</pdfrwt>
<totfact> 0.57370001E+04</totfact>
</mgrwt>
</event>
<event>
 7    0  0.4748297E-002  0.4552702E+03  0.7546771E-02  0.1026162E+00
         21   -1    0    0  502  501  0.00000000000E+00  0.00000000000E+00  0.48885141932E+03  0.48885141932E+03  0.00000000000E+00 0.  1.
         21   -1    0    0  501  502 -0.00000000000E+00 -0.00000000000E+00 -0.10599894527E+03  0.10599894527E+03  0.00000000000E+00 0.  1.
      99926    2    1    2    0    0  0.35527136788E-14 -0.14210854715E-13  0.38285247405E+03  0.59485036458E+03  0.45527018281E+03 0.  0.
      99925    2    3    3    0    0 -0.31715063627E+02  0.81942006182E+02  0.14706206141E+03  0.31384331052E+03  0.26296394433E+03 0.  0.
         25    1    4    4    0    0 -0.25819543363E+01  0.79426866798E+02  0.68511878279E+02  0.16326873315E+03  0.12509000000E+03 0.  0.
         25    1    3    3    0    0  0.31715063627E+02 -0.81942006182E+02  0.23579041264E+03  0.28100705406E+03  0.12509000000E+03 0.  0.
         25    1    4    4    0    0 -0.29133109291E+02  0.25151393833E+01  0.78550183129E+02  0.15057457738E+03  0.12509000000E+03 0.  0.
<mgrwt>
<rscale>  2 0.45527018E+03</rscale>
<asrwt>0</asrwt>
<pdfrwt beam="1">  1       21 0.71889914E-01 0.45527018E+03</pdfrwt>
<pdfrwt beam="2">  1       21 0.15588080E-01 0.45527018E+03</pdfrwt>
<totfact> 0.58870569E+04</totfact>
</mgrwt>
</event>
<event>
 7    0  0.4748297E-002  0.4331475E+03  0.7546771E-02  0.1032870E+00
         21   -1    0    0  502  501  0.00000000000E+00  0.00000000000E+00  0.49680870603E+02  0.49680870603E+02  0.00000000000E+00 0. -1.
         21   -1    0    0  501  502 -0.00000000000E+00 -0.00000000000E+00 -0.94410960876E+03  0.94410960876E+03  0.00000000000E+00 0. -1.
      99926    2    1    2    0    0  0.00000000000E+00  0.00000000000E+00 -0.89442873815E+03  0.99379047936E+03  0.43314749131E+03 0.  0.
      99925    2    3    3    0    0  0.58613723235E+02 -0.65152943445E+02 -0.51610540386E+03  0.58579963637E+03  0.26289912797E+03 0.  0.
         25    1    4    4    0    0  0.38118354904E+01 -0.57210986888E+02 -0.21787320778E+03  0.25768948345E+03  0.12509000000E+03 0.  0.
         25    1    3    3    0    0 -0.58613723235E+02  0.65152943445E+02 -0.37832333430E+03  0.40799084299E+03  0.12509000000E+03 0.  0.
         25    1    4    4    0    0  0.54801887744E+02 -0.79419565577E+01 -0.29823219607E+03  0.32811015292E+03  0.12509000000E+03 0.  0.
<mgrwt>
<rscale>  2 0.43314749E+03</rscale>
<asrwt>0</asrwt>
<pdfrwt beam="1">  1       21 0.73060107E-02 0.43314749E+03</pdfrwt>
<pdfrwt beam="2">  1       21 0.13883964E+00 0.43314749E+03</pdfrwt>
<totfact> 0.46920184E+04</totfact>
</mgrwt>
</event>
<event>
 7    0  0.4748297E-002  0.4367325E+03  0.7546771E-02  0.1031754E+00
         21   -1    0    0  502  501  0.00000000000E+00  0.00000000000E+00  0.20630149499E+02  0.20630149499E+02  0.00000000000E+00 0.  1.
         21   -1    0    0  501  502 -0.00000000000E+00 -0.00000000000E+00 -0.23113651434E+04  0.23113651434E+04  0.00000000000E+00 0.  1.
      99926    2    1    2    0    0 -0.17763568394E-14  0.14210854715E-13 -0.22907349939E+04  0.23319952929E+04  0.43673245107E+03 0.  0.
      99925    2    3    3    0    0 -0.46017934497E+01 -0.75181258149E+02 -0.17758718657E+04  0.17968271445E+04  0.26304658540E+03 0.  0.
         25    1    4    4    0    0 -0.21975356906E+02 -0.26829377326E+01 -0.75267110801E+03  0.76331606783E+03  0.12509000000E+03 0.  0.
         25    1    4    4    0    0  0.17373563456E+02 -0.72498320416E+02 -0.10232007576E+04  0.10335110767E+04  0.12509000000E+03 0.  0.
         25    1    3    3    0    0  0.46017934497E+01  0.75181258149E+02 -0.51486312825E+03  0.53516814836E+03  0.12509000000E+03 0.  0.
<mgrwt>
<rscale>  2 0.43673245E+03</rscale>
<asrwt>0</asrwt>
<pdfrwt beam="1">  1       21 0.30338454E-02 0.43673245E+03</pdfrwt>
<pdfrwt beam="2">  1       21 0.33990665E+00 0.43673245E+03</pdfrwt>
<totfact> 0.10408275E+04</totfact>
</mgrwt>
</event>
<event>
 6    0  0.4748297E-002  0.4432891E+03  0.7546771E-02  0.1029742E+00
         21   -1    0    0  502  501  0.00000000000E+00  0.00000000000E+00  0.57793571501E+02  0.57793571501E+02  0.00000000000E+00 0.  1.
         21   -1    0    0  501  502 -0.00000000000E+00 -0.00000000000E+00 -0.85003079700E+03  0.85003079700E+03  0.00000000000E+00 0.  1.
      99926    2    1    2    0    0  0.35527136788E-14 -0.17763568394E-14 -0.79223722550E+03  0.90782436850E+03  0.44328914105E+03 0.  0.
         25    1    3    3    0    0 -0.47471399069E+01  0.20225940462E+02 -0.90360345120E+02  0.15570524742E+03  0.12509000000E+03 0.  0.
         25    1    3    3    0    0 -0.24853973976E+02 -0.77039242860E+01 -0.23245729634E+03  0.26525642912E+03  0.12509000000E+03 0.  0.
         25    1    3    3    0    0  0.29601113883E+02 -0.12522016176E+02 -0.46941958404E+03  0.48686269195E+03  0.12509000000E+03 0.  0.
<mgrwt>
<rscale>  2 0.44328914E+03</rscale>
<asrwt>0</asrwt>
<pdfrwt beam="1">  1       21 0.84990544E-02 0.44328914E+03</pdfrwt>
<pdfrwt beam="2">  1       21 0.12500453E+00 0.44328914E+03</pdfrwt>
<totfact> 0.47063803E+04</totfact>
</mgrwt>
</event>
<event>
 7    0  0.4748297E-002  0.4504085E+03  0.7546771E-02  0.1027600E+00
         21   -1    0    0  502  501  0.00000000000E+00  0.00000000000E+00  0.18422184416E+03  0.18422184416E+03  0.00000000000E+00 0.  1.
         21   -1    0    0  501  502 -0.00000000000E+00 -0.00000000000E+00 -0.27530368739E+03  0.27530368739E+03  0.00000000000E+00 0.  1.
      99926    2    1    2    0    0  0.00000000000E+00  0.00000000000E+00 -0.91081843228E+02  0.45952553155E+03  0.45040849457E+03 0.  0.
      99925    2    3    3    0    0 -0.10281234256E+03 -0.41118384436E+01 -0.93496909360E+02  0.29753594657E+03  0.26305642444E+03 0.  0.
         25    1    4    4    0    0 -0.17130566054E+02  0.92841338710E+01 -0.18810182411E+02  0.12798821234E+03  0.12509000000E+03 0.  0.
         25    1    3    3    0    0  0.10281234256E+03  0.41118384436E+01  0.24150661314E+01  0.16198958498E+03  0.12509000000E+03 0.  0.
         25    1    4    4    0    0 -0.85681776509E+02 -0.13395972315E+02 -0.74686726949E+02  0.16954773423E+03  0.12509000000E+03 0.  0.
<mgrwt>
<rscale>  2 0.45040849E+03</rscale>
<asrwt>0</asrwt>
<pdfrwt beam="1">  1       21 0.27091448E-01 0.45040849E+03</pdfrwt>
<pdfrwt beam="2">  1       21 0.40485836E-01 0.45040849E+03</pdfrwt>
<totfact> 0.70765980E+04</totfact>
</mgrwt>
</event>
<event>
 7    0  0.4748297E-002  0.4545769E+03  0.7546771E-02  0.1026366E+00
         21   -1    0    0  502  501  0.00000000000E+00  0.00000000000E+00  0.20940773471E+03  0.20940773471E+03  0.00000000000E+00 0.  1.
         21   -1    0    0  501  502 -0.00000000000E+00 -0.00000000000E+00 -0.24669594589E+03  0.24669594589E+03  0.00000000000E+00 0.  1.
      99926    2    1    2    0    0 -0.35527136788E-14  0.00000000000E+00 -0.37288211183E+02  0.45610368060E+03  0.45457689862E+03 0.  0.
      99925    2    3    3    0    0 -0.50271732260E+01 -0.85894139073E+02 -0.97557952751E+02  0.29275428376E+03  0.26226788007E+03 0.  0.
         25    1    4    4    0    0 -0.38800624634E+02 -0.57326220815E+02 -0.58203014096E+02  0.15435958997E+03  0.12509000000E+03 0.  0.
         25    1    4    4    0    0  0.33773451408E+02 -0.28567918258E+02 -0.39354938655E+02  0.13839469379E+03  0.12509000000E+03 0.  0.
         25    1    3    3    0    0  0.50271732260E+01  0.85894139073E+02  0.60269741568E+02  0.16334939684E+03  0.12509000000E+03 0.  0.
<mgrwt>
<rscale>  2 0.45457690E+03</rscale>
<asrwt>0</asrwt>
<pdfrwt beam="1">  1       21 0.30795255E-01 0.45457690E+03</pdfrwt>
<pdfrwt beam="2">  1       21 0.36278815E-01 0.45457690E+03</pdfrwt>
<totfact> 0.68696657E+04</totfact>
</mgrwt>
</event>
<event>
 7    0  0.4748297E-002  0.4571848E+03  0.7546771E-02  0.1025601E+00
         21   -1    0    0  502  501  0.00000000000E+00  0.00000000000E+00  0.28967539940E+04  0.28967539940E+04  0.00000000000E+00 0.  1.
         21   -1    0    0  501  502 -0.00000000000E+00 -0.00000000000E+00 -0.18038981954E+02  0.18038981954E+02  0.00000000000E+00 0.  1.
      99926    2    1    2    0    0  0.00000000000E+00  0.88817841970E-15  0.28787150120E+04  0.29147929759E+04  0.45718483361E+03 0.  0.
      99925    2    3    3    0    0 -0.69601808278E+01 -0.44227705773E+01  0.10744534028E+04  0.11061815009E+04  0.26290567341E+03 0.  0.
         25    1    4    4    0    0  0.30836361443E+01  0.29646146955E+02  0.43349830022E+03  0.45216887026E+03  0.12509000000E+03 0.  0.
         25    1    4    4    0    0 -0.10043816972E+02 -0.34068917532E+02  0.64095510255E+03  0.65401263060E+03  0.12509000000E+03 0.  0.
         25    1    3    3    0    0  0.69601808278E+01  0.44227705773E+01  0.18042616093E+04  0.18086114751E+04  0.12509000000E+03 0.  0.
<mgrwt>
<rscale>  2 0.45718483E+03</rscale>
<asrwt>0</asrwt>
<pdfrwt beam="1">  1       21 0.42599291E+00 0.45718483E+03</pdfrwt>
<pdfrwt beam="2">  1       21 0.26527935E-02 0.45718483E+03</pdfrwt>
<totfact> 0.36872355E+03</totfact>
</mgrwt>
</event>
<event>
 7    0  0.4748297E-002  0.4537514E+03  0.7546771E-02  0.1026609E+00
         21   -1    0    0  502  501  0.00000000000E+00  0.00000000000E+00  0.48834101277E+03  0.48834101277E+03  0.00000000000E+00 0. -1.
         21   -1    0    0  501  502 -0.00000000000E+00 -0.00000000000E+00 -0.10540294300E+03  0.10540294300E+03  0.00000000000E+00 0. -1.
      99926    2    1    2    0    0  0.00000000000E+00 -0.71054273576E-14  0.38293806977E+03  0.59374395577E+03  0.45375138538E+03 0.  0.
      99925    2    3    3    0    0  0.55155884442E+02 -0.59250967152E+02  0.13978006380E+03  0.30856651510E+03  0.26291059185E+03 0.  0.
         25    1    3    3    0    0 -0.55155884442E+02  0.59250967152E+02  0.24315800597E+03  0.28517744066E+03  0.12509000000E+03 0.  0.
         25    1    4    4    0    0  0.72392496963E+01 -0.44014895464E+01  0.35946703660E+02  0.13042796269E+03  0.12509000000E+03 0.  0.
         25    1    4    4    0    0  0.47916634746E+02 -0.54849477606E+02  0.10383336014E+03  0.17813855242E+03  0.12509000000E+03 0.  0.
<mgrwt>
<rscale>  2 0.45375139E+03</rscale>
<asrwt>0</asrwt>
<pdfrwt beam="1">  1       21 0.71814854E-01 0.45375139E+03</pdfrwt>
<pdfrwt beam="2">  1       21 0.15500433E-01 0.45375139E+03</pdfrwt>
<totfact> 0.59651430E+04</totfact>
</mgrwt>
</event>
<event>
 7    0  0.4748297E-002  0.4729982E+03  0.7546771E-02  0.1021077E+00
         21   -1    0    0  502  501  0.00000000000E+00  0.00000000000E+00  0.12221316971E+03  0.12221316971E+03  0.00000000000E+00 0.  1.
         21   -1    0    0  501  502 -0.00000000000E+00 -0.00000000000E+00 -0.45765791149E+03  0.45765791149E+03  0.00000000000E+00 0.  1.
      99926    2    1    2    0    0  0.00000000000E+00 -0.14210854715E-13 -0.33544474178E+03  0.57987108120E+03  0.47299819876E+03 0.  0.
      99925    2    3    3    0    0  0.84740247956E+02  0.86389034587E+02 -0.15194181307E+03  0.32695843252E+03  0.26300480436E+03 0.  0.
         25    1    4    4    0    0  0.38123995380E+02  0.34305524477E+01 -0.85766033656E+02  0.15642419360E+03  0.12509000000E+03 0.  0.
         25    1    3    3    0    0 -0.84740247956E+02 -0.86389034587E+02 -0.18350292871E+03  0.25291264868E+03  0.12509000000E+03 0.  0.
         25    1    4    4    0    0  0.46616252576E+02  0.82958482139E+02 -0.66175779417E+02  0.17053423892E+03  0.12509000000E+03 0.  0.
<mgrwt>
<rscale>  2 0.47299820E+03</rscale>
<asrwt>0</asrwt>
<pdfrwt beam="1">  1       21 0.17972525E-01 0.47299820E+03</pdfrwt>
<pdfrwt beam="2">  1       21 0.67302632E-01 0.47299820E+03</pdfrwt>
<totfact> 0.52113541E+04</totfact>
</mgrwt>
</event>
<event>
 7    0  0.4748297E-002  0.4496768E+03  0.7546771E-02  0.1027818E+00
         21   -1    0    0  502  501  0.00000000000E+00  0.00000000000E+00  0.51980994053E+03  0.51980994053E+03  0.00000000000E+00 0.  1.
         21   -1    0    0  501  502 -0.00000000000E+00 -0.00000000000E+00 -0.97251518606E+02  0.97251518606E+02  0.00000000000E+00 0.  1.
      99926    2    1    2    0    0  0.00000000000E+00  0.00000000000E+00  0.42255842192E+03  0.61706145914E+03  0.44967679995E+03 0.  0.
      99925    2    3    3    0    0  0.64555551945E+02 -0.25628910606E+02  0.15628714790E+03  0.31478317706E+03  0.26426977809E+03 0.  0.
         25    1    3    3    0    0 -0.64555551945E+02  0.25628910606E+02  0.26627127402E+03  0.30227828208E+03  0.12509000000E+03 0.  0.
         25    1    4    4    0    0  0.24593541990E+02 -0.44641970449E+02  0.11018166884E+03  0.17431367153E+03  0.12509000000E+03 0.  0.
         25    1    4    4    0    0  0.39962009955E+02  0.19013059843E+02  0.46105479060E+02  0.14046950553E+03  0.12509000000E+03 0.  0.
<mgrwt>
<rscale>  2 0.44967680E+03</rscale>
<asrwt>0</asrwt>
<pdfrwt beam="1">  1       21 0.76442637E-01 0.44967680E+03</pdfrwt>
<pdfrwt beam="2">  1       21 0.14301694E-01 0.44967680E+03</pdfrwt>
<totfact> 0.60128231E+04</totfact>
</mgrwt>
</event>
<event>
 7    0  0.4748297E-002  0.4597232E+03  0.7546771E-02  0.1024862E+00
         21   -1    0    0  502  501  0.00000000000E+00  0.00000000000E+00  0.40876562924E+03  0.40876562924E+03  0.00000000000E+00 0. -1.
         21   -1    0    0  501  502 -0.00000000000E+00 -0.00000000000E+00 -0.12925829977E+03  0.12925829977E+03  0.00000000000E+00 0. -1.
      99926    2    1    2    0    0 -0.14210854715E-13  0.00000000000E+00  0.27950732947E+03  0.53802392901E+03  0.45972317862E+03 0.  0.
      99925    2    3    3    0    0 -0.10630366896E+03  0.39601870256E+02  0.13922603230E+03  0.31849003960E+03  0.26302706913E+03 0.  0.
         25    1    4    4    0    0 -0.93822117370E+02  0.13084637220E+02  0.62891156818E+02  0.16904615685E+03  0.12509000000E+03 0.  0.
         25    1    3    3    0    0  0.10630366896E+03 -0.39601870256E+02  0.14028129717E+03  0.21953388940E+03  0.12509000000E+03 0.  0.
         25    1    4    4    0    0 -0.12481551591E+02  0.26517233037E+02  0.76334875485E+02  0.14944388276E+03  0.12509000000E+03 0.  0.
<mgrwt>
<rscale>  2 0.45972318E+03</rscale>
<asrwt>0</asrwt>
<pdfrwt beam="1">  1       21 0.60112592E-01 0.45972318E+03</pdfrwt>
<pdfrwt beam="2">  1       21 0.19008574E-01 0.45972318E+03</pdfrwt>
<totfact> 0.60374801E+04</totfact>
</mgrwt>
</event>
<event>
 7    0  0.4748297E-002  0.4539773E+03  0.7546771E-02  0.1026543E+00
         21   -1    0    0  502  501  0.00000000000E+00  0.00000000000E+00  0.12010872331E+04  0.12010872331E+04  0.00000000000E+00 0.  1.
         21   -1    0    0  501  502 -0.00000000000E+00 -0.00000000000E+00 -0.42897667403E+02  0.42897667403E+02  0.00000000000E+00 0.  1.
      99926    2    1    2    0    0  0.00000000000E+00  0.00000000000E+00  0.11581895657E+04  0.12439849005E+04  0.45397727101E+03 0.  0.
      99925    2    3    3    0    0  0.17004495020E+02  0.81200793684E+02  0.93660454357E+03  0.97634680180E+03  0.26294920538E+03 0.  0.
         25    1    3    3    0    0 -0.17004495020E+02 -0.81200793684E+02  0.22158502214E+03  0.26763809871E+03  0.12509000000E+03 0.  0.
         25    1    4    4    0    0 -0.17313243971E+02  0.10150776910E+02  0.38821397093E+03  0.40836305172E+03  0.12509000000E+03 0.  0.
         25    1    4    4    0    0  0.34317738991E+02  0.71050016774E+02  0.54839057264E+03  0.56798375008E+03  0.12509000000E+03 0.  0.
<mgrwt>
<rscale>  2 0.45397727E+03</rscale>
<asrwt>0</asrwt>
<pdfrwt beam="1">  1       21 0.17663045E+00 0.45397727E+03</pdfrwt>
<pdfrwt beam="2">  1       21 0.63084813E-02 0.45397727E+03</pdfrwt>
<totfact> 0.31032199E+04</totfact>
</mgrwt>
</event>
<event>
 7    0  0.4748297E-002  0.4530899E+03  0.7546771E-02  0.1026805E+00
         21   -1    0    0  502  501  0.00000000000E+00  0.00000000000E+00  0.57679911584E+02  0.57679911584E+02  0.00000000000E+00 0.  1.
         21   -1    0    0  501  502 -0.00000000000E+00 -0.00000000000E+00 -0.88978333724E+03  0.88978333724E+03  0.00000000000E+00 0.  1.
      99926    2    1    2    0    0 -0.14210854715E-13 -0.71054273576E-14 -0.83210342565E+03  0.94746324882E+03  0.45308994348E+03 0.  0.
      99925    2    3    3    0    0 -0.96239107310E+02 -0.38800416812E+02 -0.44044277393E+03  0.52341960445E+03  0.26307946917E+03 0.  0.
         25    1    3    3    0    0  0.96239107310E+02  0.38800416812E+02 -0.39166065172E+03  0.42404364437E+03  0.12509000000E+03 0.  0.
         25    1    4    4    0    0 -0.48811827696E+02  0.19924244616E+02 -0.19068708856E+03  0.23406974151E+03  0.12509000000E+03 0.  0.
         25    1    4    4    0    0 -0.47427279614E+02 -0.58724661428E+02 -0.24975568537E+03  0.28934986295E+03  0.12509000000E+03 0.  0.
<mgrwt>
<rscale>  2 0.45308994E+03</rscale>
<asrwt>0</asrwt>
<pdfrwt beam="1">  1       21 0.84823402E-02 0.45308994E+03</pdfrwt>
<pdfrwt beam="2">  1       21 0.13085049E+00 0.45308994E+03</pdfrwt>
<totfact> 0.41865533E+04</totfact>
</mgrwt>
</event>
<event>
 7    0  0.4748297E-002  0.4549487E+03  0.7546771E-02  0.1026256E+00
         21   -1    0    0  502  501  0.00000000000E+00  0.00000000000E+00  0.25052322962E+02  0.25052322962E+02  0.00000000000E+00 0. -1.
         21   -1    0    0  501  502 -0.00000000000E+00 -0.00000000000E+00 -0.20654602886E+04  0.20654602886E+04  0.00000000000E+00 0. -1.
      99926    2    1    2    0    0  0.00000000000E+00 -0.35527136788E-14 -0.20404079656E+04  0.20905126115E+04  0.45494869256E+03 0.  0.
      99925    2    3    3    0    0  0.95237746693E+02 -0.26614120167E+02 -0.10315025471E+04  0.10690841062E+04  0.26299198048E+03 0.  0.
         25    1    4    4    0    0  0.84938204420E+02 -0.34799665468E+02 -0.56142377545E+03  0.58246860776E+03  0.12509000000E+03 0.  0.
         25    1    3    3    0    0 -0.95237746693E+02  0.26614120167E+02 -0.10089054185E+04  0.10214285053E+04  0.12509000000E+03 0.  0.
         25    1    4    4    0    0  0.10299542273E+02  0.81855453011E+01 -0.47007877163E+03  0.48661549848E+03  0.12509000000E+03 0.  0.
<mgrwt>
<rscale>  2 0.45494869E+03</rscale>
<asrwt>0</asrwt>
<pdfrwt beam="1">  1       21 0.36841670E-02 0.45494869E+03</pdfrwt>
<pdfrwt beam="2">  1       21 0.30374401E+00 0.45494869E+03</pdfrwt>
<totfact> 0.12292685E+04</totfact>
</mgrwt>
</event>
<event>
 7    0  0.4748297E-002  0.4472908E+03  0.7546771E-02  0.1028533E+00
         21   -1    0    0  502  501  0.00000000000E+00  0.00000000000E+00  0.40007474894E+03  0.40007474894E+03  0.00000000000E+00 0. -1.
         21   -1    0    0  501  502 -0.00000000000E+00 -0.00000000000E+00 -0.12501978915E+03  0.12501978915E+03  0.00000000000E+00 0. -1.
      99926    2    1    2    0    0  0.71054273576E-14  0.00000000000E+00  0.27505495979E+03  0.52509453809E+03  0.44729078128E+03 0.  0.
      99925    2    3    3    0    0 -0.44907840890E+02 -0.92039765373E+02  0.14241339593E+03  0.31597895965E+03  0.26281760789E+03 0.  0.
         25    1    3    3    0    0  0.44907840890E+02  0.92039765373E+02  0.13264156386E+03  0.20911557844E+03  0.12509000000E+03 0.  0.
         25    1    4    4    0    0 -0.57300071966E+02 -0.64391464999E+02  0.61104018118E+02  0.16373994058E+03  0.12509000000E+03 0.  0.
         25    1    4    4    0    0  0.12392231076E+02 -0.27648300374E+02  0.81309377814E+02  0.15223901906E+03  0.12509000000E+03 0.  0.
<mgrwt>
<rscale>  2 0.44729078E+03</rscale>
<asrwt>0</asrwt>
<pdfrwt beam="1">  1       21 0.58834522E-01 0.44729078E+03</pdfrwt>
<pdfrwt beam="2">  1       21 0.18385263E-01 0.44729078E+03</pdfrwt>
<totfact> 0.67573608E+04</totfact>
</mgrwt>
</event>
<event>
 7    0  0.4748297E-002  0.4519231E+03  0.7546771E-02  0.1027150E+00
         21   -1    0    0  502  501  0.00000000000E+00  0.00000000000E+00  0.96773859126E+02  0.96773859126E+02  0.00000000000E+00 0. -1.
         21   -1    0    0  501  502 -0.00000000000E+00 -0.00000000000E+00 -0.52760758953E+03  0.52760758953E+03  0.00000000000E+00 0. -1.
      99926    2    1    2    0    0  0.00000000000E+00  0.00000000000E+00 -0.43083373041E+03  0.62438144866E+03  0.45192310206E+03 0.  0.
      99925    2    3    3    0    0  0.30599990527E+02  0.91238134136E+02 -0.34616325283E+03  0.44527992881E+03  0.26302939160E+03 0.  0.
         25    1    4    4    0    0  0.21485543154E+02  0.50067000960E+02 -0.11221251701E+03  0.17665641858E+03  0.12509000000E+03 0.  0.
         25    1    3    3    0    0 -0.30599990527E+02 -0.91238134136E+02 -0.84670477573E+02  0.17910151985E+03  0.12509000000E+03 0.  0.
         25    1    4    4    0    0  0.91144473734E+01  0.41171133176E+02 -0.23395073582E+03  0.26862351023E+03  0.12509000000E+03 0.  0.
<mgrwt>
<rscale>  2 0.45192310E+03</rscale>
<asrwt>0</asrwt>
<pdfrwt beam="1">  1       21 0.14231450E-01 0.45192310E+03</pdfrwt>
<pdfrwt beam="2">  1       21 0.77589353E-01 0.45192310E+03</pdfrwt>
<totfact> 0.58613034E+04</totfact>
</mgrwt>
</event>
<event>
 7    0  0.4748297E-002  0.4530930E+03  0.7546771E-02  0.1026804E+00
         21   -1    0    0  502  501  0.00000000000E+00  0.00000000000E+00  0.19057074442E+04  0.19057074442E+04  0.00000000000E+00 0.  1.
         21   -1    0    0  501  502 -0.00000000000E+00 -0.00000000000E+00 -0.26931366485E+02  0.26931366485E+02  0.00000000000E+00 0.  1.
      99926    2    1    2    0    0  0.00000000000E+00  0.14210854715E-13  0.18787760777E+04  0.19326388107E+04  0.45309295114E+03 0.  0.
      99925    2    3    3    0    0  0.33627596319E+01 -0.10055488078E+03  0.13874959049E+04  0.14157961765E+04  0.26308047268E+03 0.  0.
         25    1    4    4    0    0  0.10345617222E+02 -0.10790361965E+02  0.69883423915E+03  0.71009877173E+03  0.12509000000E+03 0.  0.
         25    1    4    4    0    0 -0.69828575902E+01 -0.89764518810E+02  0.68866166572E+03  0.70569740475E+03  0.12509000000E+03 0.  0.
         25    1    3    3    0    0 -0.33627596319E+01  0.10055488078E+03  0.49128017284E+03  0.51684263420E+03  0.12509000000E+03 0.  0.
<mgrwt>
<rscale>  2 0.45309295E+03</rscale>
<asrwt>0</asrwt>
<pdfrwt beam="1">  1       21 0.28025100E+00 0.45309295E+03</pdfrwt>
<pdfrwt beam="2">  1       21 0.39604964E-02 0.45309295E+03</pdfrwt>
<totfact> 0.15062652E+04</totfact>
</mgrwt>
</event>
<event>
 7    0  0.4748297E-002  0.4541140E+03  0.7546771E-02  0.1026502E+00
         21   -1    0    0  502  501  0.00000000000E+00  0.00000000000E+00  0.10828865173E+04  0.10828865173E+04  0.00000000000E+00 0.  1.
         21   -1    0    0  501  502 -0.00000000000E+00 -0.00000000000E+00 -0.47608763478E+02  0.47608763478E+02  0.00000000000E+00 0.  1.
      99926    2    1    2    0    0 -0.17763568394E-14  0.00000000000E+00  0.10352777539E+04  0.11304952808E+04  0.45411403007E+03 0.  0.
      99925    2    3    3    0    0 -0.66593403948E+01 -0.95024878251E+02  0.50435971673E+03  0.57678457607E+03  0.26311147643E+03 0.  0.
         25    1    3    3    0    0  0.66593403948E+01  0.95024878251E+02  0.53091803713E+03  0.55371070475E+03  0.12509000000E+03 0.  0.
         25    1    4    4    0    0  0.20021530594E+02 -0.54538872531E+02  0.32284404602E+03  0.35107141219E+03  0.12509000000E+03 0.  0.
         25    1    4    4    0    0 -0.26680870989E+02 -0.40486005719E+02  0.18151567070E+03  0.22571316388E+03  0.12509000000E+03 0.  0.
<mgrwt>
<rscale>  2 0.45411403E+03</rscale>
<asrwt>0</asrwt>
<pdfrwt beam="1">  1       21 0.15924800E+00 0.45411403E+03</pdfrwt>
<pdfrwt beam="2">  1       21 0.70012894E-02 0.45411403E+03</pdfrwt>
<totfact> 0.34679195E+04</totfact>
</mgrwt>
</event>
<event>
 7    0  0.4748297E-002  0.4550322E+03  0.7546771E-02  0.1026232E+00
         21   -1    0    0  502  501  0.00000000000E+00  0.00000000000E+00  0.49649562210E+02  0.49649562210E+02  0.00000000000E+00 0.  1.
         21   -1    0    0  501  502 -0.00000000000E+00 -0.00000000000E+00 -0.10425784763E+04  0.10425784763E+04  0.00000000000E+00 0.  1.
      99926    2    1    2    0    0 -0.88817841970E-15  0.00000000000E+00 -0.99292891411E+03  0.10922280385E+04  0.45503215235E+03 0.  0.
      99925    2    3    3    0    0 -0.23316443530E+01  0.89170701390E+01 -0.35386456216E+03  0.44097101957E+03  0.26296456234E+03 0.  0.
         25    1    4    4    0    0 -0.11391289548E+02  0.37363121892E+02 -0.14283469743E+03  0.19384277971E+03  0.12509000000E+03 0.  0.
         25    1    4    4    0    0  0.90596451955E+01 -0.28446051753E+02 -0.21102986472E+03  0.24712823986E+03  0.12509000000E+03 0.  0.
         25    1    3    3    0    0  0.23316443530E+01 -0.89170701390E+01 -0.63906435195E+03  0.65125701896E+03  0.12509000000E+03 0.  0.
<mgrwt>
<rscale>  2 0.45503215E+03</rscale>
<asrwt>0</asrwt>
<pdfrwt beam="1">  1       21 0.73014068E-02 0.45503215E+03</pdfrwt>
<pdfrwt beam="2">  1       21 0.15332035E+00 0.45503215E+03</pdfrwt>
<totfact> 0.35755958E+04</totfact>
</mgrwt>
</event>
<event>
 7    0  0.4748297E-002  0.4568087E+03  0.7546771E-02  0.1025711E+00
         21   -1    0    0  502  501  0.00000000000E+00  0.00000000000E+00  0.16758353482E+03  0.16758353482E+03  0.00000000000E+00 0. -1.
         21   -1    0    0  501  502 -0.00000000000E+00 -0.00000000000E+00 -0.31129869828E+03  0.31129869828E+03  0.00000000000E+00 0. -1.
      99926    2    1    2    0    0  0.00000000000E+00  0.00000000000E+00 -0.14371516346E+03  0.47888223310E+03  0.45680865247E+03 0.  0.
      99925    2    3    3    0    0 -0.25186322530E+02  0.10871676697E+03 -0.11830357381E+03  0.30933299762E+03  0.26313016090E+03 0.  0.
         25    1    4    4    0    0 -0.16086578914E+02  0.87164380348E+02 -0.35064524322E+02  0.15726867517E+03  0.12509000000E+03 0.  0.
         25    1    4    4    0    0 -0.90997436161E+01  0.21552386627E+02 -0.83239049489E+02  0.15206432245E+03  0.12509000000E+03 0.  0.
         25    1    3    3    0    0  0.25186322530E+02 -0.10871676697E+03 -0.25411589651E+02  0.16954923548E+03  0.12509000000E+03 0.  0.
<mgrwt>
<rscale>  2 0.45680865E+03</rscale>
<asrwt>0</asrwt>
<pdfrwt beam="1">  1       21 0.24644638E-01 0.45680865E+03</pdfrwt>
<pdfrwt beam="2">  1       21 0.45779220E-01 0.45680865E+03</pdfrwt>
<totfact> 0.65831454E+04</totfact>
</mgrwt>
</event>
<event>
 7    0  0.4748297E-002  0.4510331E+03  0.7546771E-02  0.1027414E+00
         21   -1    0    0  502  501  0.00000000000E+00  0.00000000000E+00  0.53798931294E+02  0.53798931294E+02  0.00000000000E+00 0. -1.
         21   -1    0    0  501  502 -0.00000000000E+00 -0.00000000000E+00 -0.94532958272E+03  0.94532958272E+03  0.00000000000E+00 0. -1.
      99926    2    1    2    0    0  0.00000000000E+00  0.00000000000E+00 -0.89153065143E+03  0.99912851401E+03  0.45103313080E+03 0.  0.
      99925    2    3    3    0    0  0.82817438843E+02  0.56607976150E+02 -0.66006675865E+03  0.71755040247E+03  0.26292064026E+03 0.  0.
         25    1    4    4    0    0 -0.42519714420E+00  0.28636241648E+02 -0.28643224817E+03  0.31386486905E+03  0.12509000000E+03 0.  0.
         25    1    4    4    0    0  0.83242635988E+02  0.27971734503E+02 -0.37363451048E+03  0.40368553343E+03  0.12509000000E+03 0.  0.
         25    1    3    3    0    0 -0.82817438843E+02 -0.56607976150E+02 -0.23146389278E+03  0.28157811154E+03  0.12509000000E+03 0.  0.
<mgrwt>
<rscale>  2 0.45103313E+03</rscale>
<asrwt>0</asrwt>
<pdfrwt beam="1">  1       21 0.79116074E-02 0.45103313E+03</pdfrwt>
<pdfrwt beam="2">  1       21 0.13901906E+00 0.45103313E+03</pdfrwt>
<totfact> 0.40439084E+04</totfact>
</mgrwt>
</event>
<event>
 7    0  0.4748297E-002  0.4608422E+03  0.7546771E-02  0.1024537E+00
         21   -1    0    0  502  501  0.00000000000E+00  0.00000000000E+00  0.52825057985E+03  0.52825057985E+03  0.00000000000E+00 0.  1.
         21   -1    0    0  501  502 -0.00000000000E+00 -0.00000000000E+00 -0.10050890761E+03  0.10050890761E+03  0.00000000000E+00 0.  1.
      99926    2    1    2    0    0  0.00000000000E+00  0.14210854715E-13  0.42774167224E+03  0.62875948746E+03  0.46084222343E+03 0.  0.
      99925    2    3    3    0    0  0.37249788345E+02  0.94864077634E+02  0.18542043438E+03  0.33763437625E+03  0.26311498358E+03 0.  0.
         25    1    4    4    0    0  0.30590960355E+02  0.33303040142E+02  0.47035634777E+02  0.14108422441E+03  0.12509000000E+03 0.  0.
         25    1    4    4    0    0  0.66588279898E+01  0.61561037493E+02  0.13838479960E+03  0.19655015184E+03  0.12509000000E+03 0.  0.
         25    1    3    3    0    0 -0.37249788345E+02 -0.94864077634E+02  0.24232123787E+03  0.29112511121E+03  0.12509000000E+03 0.  0.
<mgrwt>
<rscale>  2 0.46084222E+03</rscale>
<asrwt>0</asrwt>
<pdfrwt beam="1">  1       21 0.77683908E-01 0.46084222E+03</pdfrwt>
<pdfrwt beam="2">  1       21 0.14780722E-01 0.46084222E+03</pdfrwt>
<totfact> 0.54389723E+04</totfact>
</mgrwt>
</event>
<event>
 7    0  0.4748297E-002  0.4526933E+03  0.7546771E-02  0.1026922E+00
         21   -1    0    0  502  501  0.00000000000E+00  0.00000000000E+00  0.32902428359E+02  0.32902428359E+02  0.00000000000E+00 0. -1.
         21   -1    0    0  501  502 -0.00000000000E+00 -0.00000000000E+00 -0.15571132581E+04  0.15571132581E+04  0.00000000000E+00 0. -1.
      99926    2    1    2    0    0 -0.14210854715E-13  0.00000000000E+00 -0.15242108297E+04  0.15900156865E+04  0.45269330643E+03 0.  0.
      99925    2    3    3    0    0 -0.93929731156E+02  0.59168468551E+02 -0.96475022778E+03  0.10060915687E+04  0.26297060771E+03 0.  0.
         25    1    4    4    0    0 -0.82092712643E+01  0.23894043723E+02 -0.49639728556E+03  0.51253886748E+03  0.12509000000E+03 0.  0.
         25    1    3    3    0    0  0.93929731156E+02 -0.59168468551E+02 -0.55946060196E+03  0.58392411777E+03  0.12509000000E+03 0.  0.
         25    1    4    4    0    0 -0.85720459891E+02  0.35274424829E+02 -0.46835294222E+03  0.49355270121E+03  0.12509000000E+03 0.  0.
<mgrwt>
<rscale>  2 0.45269331E+03</rscale>
<asrwt>0</asrwt>
<pdfrwt beam="1">  1       21 0.48385916E-02 0.45269331E+03</pdfrwt>
<pdfrwt beam="2">  1       21 0.22898728E+00 0.45269331E+03</pdfrwt>
<totfact> 0.22048617E+04</totfact>
</mgrwt>
</event>
<event>
 7    0  0.4748297E-002  0.4455498E+03  0.7546771E-02  0.1029057E+00
         21   -1    0    0  502  501  0.00000000000E+00  0.00000000000E+00  0.22799058113E+03  0.22799058113E+03  0.00000000000E+00 0. -1.
         21   -1    0    0  501  502 -0.00000000000E+00 -0.00000000000E+00 -0.21767856947E+03  0.21767856947E+03  0.00000000000E+00 0. -1.
      99926    2    1    2    0    0  0.17763568394E-14  0.00000000000E+00  0.10312011655E+02  0.44566915060E+03  0.44554983359E+03 0.  0.
      99925    2    3    3    0    0  0.10406867831E+02  0.10225567654E+03  0.22873280663E+02  0.28328128202E+03  0.26298397573E+03 0.  0.
         25    1    4    4    0    0 -0.26632786233E+02  0.72754259560E+02  0.26366157970E+02  0.14948300898E+03  0.12509000000E+03 0.  0.
         25    1    3    3    0    0 -0.10406867831E+02 -0.10225567654E+03 -0.12561269007E+02  0.16238786858E+03  0.12509000000E+03 0.  0.
         25    1    4    4    0    0  0.37039654064E+02  0.29501416983E+02 -0.34928773069E+01  0.13379827304E+03  0.12509000000E+03 0.  0.
<mgrwt>
<rscale>  2 0.44554983E+03</rscale>
<asrwt>0</asrwt>
<pdfrwt beam="1">  1       21 0.33528027E-01 0.44554983E+03</pdfrwt>
<pdfrwt beam="2">  1       21 0.32011554E-01 0.44554983E+03</pdfrwt>
<totfact> 0.74711321E+04</totfact>
</mgrwt>
</event>
<event>
 7    0  0.4748297E-002  0.4514557E+03  0.7546771E-02  0.1027289E+00
         21   -1    0    0  502  501  0.00000000000E+00  0.00000000000E+00  0.13760653606E+03  0.13760653606E+03  0.00000000000E+00 0. -1.
         21   -1    0    0  501  502 -0.00000000000E+00 -0.00000000000E+00 -0.37028085926E+03  0.37028085926E+03  0.00000000000E+00 0. -1.
      99926    2    1    2    0    0  0.35527136788E-14 -0.35527136788E-14 -0.23267432320E+03  0.50788739532E+03  0.45145571837E+03 0.  0.
      99925    2    3    3    0    0  0.20340687724E+02 -0.20127971991E+02 -0.27559258942E+02  0.26593992887E+03  0.26295561257E+03 0.  0.
         25    1    3    3    0    0 -0.20340687724E+02  0.20127971991E+02 -0.20511506426E+03  0.24194746645E+03  0.12509000000E+03 0.  0.
         25    1    4    4    0    0 -0.26130361177E+01 -0.47277517157E+01 -0.51905959012E+02  0.13553935323E+03  0.12509000000E+03 0.  0.
         25    1    4    4    0    0  0.22953723842E+02 -0.15400220275E+02  0.24346700070E+02  0.13040057564E+03  0.12509000000E+03 0.  0.
<mgrwt>
<rscale>  2 0.45145572E+03</rscale>
<asrwt>0</asrwt>
<pdfrwt beam="1">  1       21 0.20236256E-01 0.45145572E+03</pdfrwt>
<pdfrwt beam="2">  1       21 0.54453067E-01 0.45145572E+03</pdfrwt>
<totfact> 0.66573006E+04</totfact>
</mgrwt>
</event>
<event>
 7    0  0.4748297E-002  0.4477922E+03  0.7546771E-02  0.1028382E+00
         21   -1    0    0  502  501  0.00000000000E+00  0.00000000000E+00  0.54611814099E+02  0.54611814099E+02  0.00000000000E+00 0. -1.
         21   -1    0    0  501  502 -0.00000000000E+00 -0.00000000000E+00 -0.91792328153E+03  0.91792328153E+03  0.00000000000E+00 0. -1.
      99926    2    1    2    0    0  0.00000000000E+00  0.00000000000E+00 -0.86331146744E+03  0.97253509563E+03  0.44779216433E+03 0.  0.
      99925    2    3    3    0    0  0.38656157510E+02 -0.90465554698E+02 -0.45964601181E+03  0.53863231474E+03  0.26300570186E+03 0.  0.
         25    1    3    3    0    0 -0.38656157510E+02  0.90465554698E+02 -0.40366545563E+03  0.43390278090E+03  0.12509000000E+03 0.  0.
         25    1    4    4    0    0  0.31108431149E+02 -0.78492406500E+02 -0.29511340541E+03  0.33146375747E+03  0.12509000000E+03 0.  0.
         25    1    4    4    0    0  0.75477263609E+01 -0.11973148199E+02 -0.16453260640E+03  0.20716855726E+03  0.12509000000E+03 0.  0.
<mgrwt>
<rscale>  2 0.44779216E+03</rscale>
<asrwt>0</asrwt>
<pdfrwt beam="1">  1       21 0.80311499E-02 0.44779216E+03</pdfrwt>
<pdfrwt beam="2">  1       21 0.13498871E+00 0.44779216E+03</pdfrwt>
<totfact> 0.42591276E+04</totfact>
</mgrwt>
</event>
<event>
 7    0  0.4748297E-002  0.4478035E+03  0.7546771E-02  0.1028379E+00
         21   -1    0    0  502  501  0.00000000000E+00  0.00000000000E+00  0.53141268291E+02  0.53141268291E+02  0.00000000000E+00 0. -1.
         21   -1    0    0  501  502 -0.00000000000E+00 -0.00000000000E+00 -0.94337214906E+03  0.94337214906E+03  0.00000000000E+00 0. -1.
      99926    2    1    2    0    0 -0.71054273576E-14 -0.14210854715E-13 -0.89023088077E+03  0.99651341735E+03  0.44780349472E+03 0.  0.
      99925    2    3    3    0    0 -0.52229193597E+02 -0.70219149734E+02 -0.43010950596E+03  0.51172706718E+03  0.26308133061E+03 0.  0.
         25    1    4    4    0    0 -0.29300107344E+02 -0.10563355160E+02 -0.14584573413E+03  0.19464985751E+03  0.12509000000E+03 0.  0.
         25    1    3    3    0    0  0.52229193597E+02  0.70219149734E+02 -0.46012137481E+03  0.48478635017E+03  0.12509000000E+03 0.  0.
         25    1    4    4    0    0 -0.22929086253E+02 -0.59655794575E+02 -0.28426377183E+03  0.31707720968E+03  0.12509000000E+03 0.  0.
<mgrwt>
<rscale>  2 0.44780349E+03</rscale>
<asrwt>0</asrwt>
<pdfrwt beam="1">  1       21 0.78148923E-02 0.44780349E+03</pdfrwt>
<pdfrwt beam="2">  1       21 0.13873120E+00 0.44780349E+03</pdfrwt>
<totfact> 0.41591630E+04</totfact>
</mgrwt>
</event>
<event>
 7    0  0.4748297E-002  0.4521779E+03  0.7546771E-02  0.1027075E+00
         21   -1    0    0  502  501  0.00000000000E+00  0.00000000000E+00  0.71066957910E+03  0.71066957910E+03  0.00000000000E+00 0. -1.
         21   -1    0    0  501  502 -0.00000000000E+00 -0.00000000000E+00 -0.71926829353E+02  0.71926829353E+02  0.00000000000E+00 0. -1.
      99926    2    1    2    0    0  0.00000000000E+00  0.00000000000E+00  0.63874274974E+03  0.78259640845E+03  0.45217788333E+03 0.  0.
      99925    2    3    3    0    0  0.54899821895E+02  0.95678323700E+02  0.39597410036E+03  0.48805870748E+03  0.26313016117E+03 0.  0.
         25    1    4    4    0    0  0.10839258020E+02  0.39763309515E+02  0.12681193321E+03  0.18283157496E+03  0.12509000000E+03 0.  0.
         25    1    3    3    0    0 -0.54899821895E+02 -0.95678323700E+02  0.24276864938E+03  0.29453770097E+03  0.12509000000E+03 0.  0.
         25    1    4    4    0    0  0.44060563874E+02  0.55915014185E+02  0.26916216715E+03  0.30522713252E+03  0.12509000000E+03 0.  0.
<mgrwt>
<rscale>  2 0.45217788E+03</rscale>
<asrwt>0</asrwt>
<pdfrwt beam="1">  1       21 0.10451023E+00 0.45217788E+03</pdfrwt>
<pdfrwt beam="2">  1       21 0.10577475E-01 0.45217788E+03</pdfrwt>
<totfact> 0.49710170E+04</totfact>
</mgrwt>
</event>
<event>
 7    0  0.4748297E-002  0.4549496E+03  0.7546771E-02  0.1026256E+00
         21   -1    0    0  502  501  0.00000000000E+00  0.00000000000E+00  0.71048948381E+03  0.71048948381E+03  0.00000000000E+00 0. -1.
         21   -1    0    0  501  502 -0.00000000000E+00 -0.00000000000E+00 -0.72829759823E+02  0.72829759823E+02  0.00000000000E+00 0. -1.
      99926    2    1    2    0    0  0.00000000000E+00  0.14210854715E-13  0.63765972399E+03  0.78331924363E+03  0.45494957286E+03 0.  0.
      99925    2    3    3    0    0  0.51578552684E+02 -0.85806278418E+02  0.49193562060E+03  0.56674111242E+03  0.26300526454E+03 0.  0.
         25    1    3    3    0    0 -0.51578552684E+02  0.85806278418E+02  0.14572410338E+03  0.21657813121E+03  0.12509000000E+03 0.  0.
         25    1    4    4    0    0  0.55304243588E+02 -0.68832688120E+02  0.23558990063E+03  0.28097438975E+03  0.12509000000E+03 0.  0.
         25    1    4    4    0    0 -0.37256909046E+01 -0.16973590299E+02  0.25634571997E+03  0.28576672267E+03  0.12509000000E+03 0.  0.
<mgrwt>
<rscale>  2 0.45494957E+03</rscale>
<asrwt>0</asrwt>
<pdfrwt beam="1">  1       21 0.10448374E+00 0.45494957E+03</pdfrwt>
<pdfrwt beam="2">  1       21 0.10710259E-01 0.45494957E+03</pdfrwt>
<totfact> 0.48601493E+04</totfact>
</mgrwt>
</event>
<event>
 7    0  0.4748297E-002  0.4556640E+03  0.7546771E-02  0.1026046E+00
         21   -1    0    0  502  501  0.00000000000E+00  0.00000000000E+00  0.10863879071E+03  0.10863879071E+03  0.00000000000E+00 0. -1.
         21   -1    0    0  501  502 -0.00000000000E+00 -0.00000000000E+00 -0.47779811224E+03  0.47779811224E+03  0.00000000000E+00 0. -1.
      99926    2    1    2    0    0  0.00000000000E+00  0.00000000000E+00 -0.36915932153E+03  0.58643690294E+03  0.45566395124E+03 0.  0.
      99925    2    3    3    0    0  0.38227795266E+02 -0.71384482681E+02 -0.33488073368E+03  0.43353288604E+03  0.26315118999E+03 0.  0.
         25    1    4    4    0    0 -0.46825706552E+00 -0.63158242516E+02 -0.20959362850E+03  0.25212334297E+03  0.12509000000E+03 0.  0.
         25    1    3    3    0    0 -0.38227795266E+02  0.71384482681E+02 -0.34278587846E+02  0.15290401690E+03  0.12509000000E+03 0.  0.
         25    1    4    4    0    0  0.38696052332E+02 -0.82262401651E+01 -0.12528710519E+03  0.18140954308E+03  0.12509000000E+03 0.  0.
<mgrwt>
<rscale>  2 0.45566395E+03</rscale>
<asrwt>0</asrwt>
<pdfrwt beam="1">  1       21 0.15976293E-01 0.45566395E+03</pdfrwt>
<pdfrwt beam="2">  1       21 0.70264427E-01 0.45566395E+03</pdfrwt>
<totfact> 0.59209624E+04</totfact>
</mgrwt>
</event>
<event>
 7    0  0.4748297E-002  0.4474220E+03  0.7546771E-02  0.1028494E+00
         21   -1    0    0  502  501  0.00000000000E+00  0.00000000000E+00  0.37501978054E+03  0.37501978054E+03  0.00000000000E+00 0. -1.
         21   -1    0    0  501  502 -0.00000000000E+00 -0.00000000000E+00 -0.13345059612E+03  0.13345059612E+03  0.00000000000E+00 0. -1.
      99926    2    1    2    0    0 -0.14210854715E-13 -0.35527136788E-14  0.24156918441E+03  0.50847037666E+03  0.44742200782E+03 0.  0.
      99925    2    3    3    0    0  0.99952303728E+02  0.20683968247E+02  0.18583086203E+03  0.33767061599E+03  0.26281180730E+03 0.  0.
         25    1    3    3    0    0 -0.99952303728E+02 -0.20683968247E+02  0.55738322384E+02  0.17079976067E+03  0.12509000000E+03 0.  0.
         25    1    4    4    0    0  0.62520142502E+02  0.47889656127E+02  0.10991666898E+03  0.18420469484E+03  0.12509000000E+03 0.  0.
         25    1    4    4    0    0  0.37432161226E+02 -0.27205687880E+02  0.75914193048E+02  0.15346592115E+03  0.12509000000E+03 0.  0.
<mgrwt>
<rscale>  2 0.44742201E+03</rscale>
<asrwt>0</asrwt>
<pdfrwt beam="1">  1       21 0.55149968E-01 0.44742201E+03</pdfrwt>
<pdfrwt beam="2">  1       21 0.19625088E-01 0.44742201E+03</pdfrwt>
<totfact> 0.68720088E+04</totfact>
</mgrwt>
</event>
<event>
 7    0  0.4748297E-002  0.4529869E+03  0.7546771E-02  0.1026835E+00
         21   -1    0    0  502  501  0.00000000000E+00  0.00000000000E+00  0.21593701622E+04  0.21593701622E+04  0.00000000000E+00 0.  1.
         21   -1    0    0  501  502 -0.00000000000E+00 -0.00000000000E+00 -0.23756597252E+02  0.23756597252E+02  0.00000000000E+00 0.  1.
      99926    2    1    2    0    0  0.14210854715E-13  0.00000000000E+00  0.21356135649E+04  0.21831267594E+04  0.45298691928E+03 0.  0.
      99925    2    3    3    0    0 -0.64088464101E+02  0.51306426936E+02  0.17085862894E+04  0.17306452871E+04  0.26291884811E+03 0.  0.
         25    1    3    3    0    0  0.64088464101E+02 -0.51306426936E+02  0.42702727550E+03  0.45248147232E+03  0.12509000000E+03 0.  0.
         25    1    4    4    0    0  0.38294096490E+01  0.30340192266E+02  0.93058251691E+03  0.93945011604E+03  0.12509000000E+03 0.  0.
         25    1    4    4    0    0 -0.67917873750E+02  0.20966234670E+02  0.77800377251E+03  0.79119517106E+03  0.12509000000E+03 0.  0.
<mgrwt>
<rscale>  2 0.45298692E+03</rscale>
<asrwt>0</asrwt>
<pdfrwt beam="1">  1       21 0.31755430E+00 0.45298692E+03</pdfrwt>
<pdfrwt beam="2">  1       21 0.34936187E-02 0.45298692E+03</pdfrwt>
<totfact> 0.11116661E+04</totfact>
</mgrwt>
</event>
<event>
 7    0  0.4748297E-002  0.4545757E+03  0.7546771E-02  0.1026366E+00
         21   -1    0    0  502  501  0.00000000000E+00  0.00000000000E+00  0.96396845595E+02  0.96396845595E+02  0.00000000000E+00 0. -1.
         21   -1    0    0  501  502 -0.00000000000E+00 -0.00000000000E+00 -0.53590730117E+03  0.53590730117E+03  0.00000000000E+00 0. -1.
      99926    2    1    2    0    0  0.72164496601E-15  0.19984014443E-14 -0.43951045558E+03  0.63230414677E+03  0.45457572907E+03 0.  0.
      99925    2    3    3    0    0 -0.30239274268E+00  0.11420753200E+01 -0.11978804775E+03  0.28898021526E+03  0.26298097393E+03 0.  0.
         25    1    4    4    0    0 -0.10595111720E+02  0.30782435790E+02 -0.87330535736E+02  0.15599341434E+03  0.12509000000E+03 0.  0.
         25    1    4    4    0    0  0.10292718977E+02 -0.29640360470E+02 -0.32457512010E+02  0.13298680092E+03  0.12509000000E+03 0.  0.
         25    1    3    3    0    0  0.30239274268E+00 -0.11420753200E+01 -0.31972240783E+03  0.34332393151E+03  0.12509000000E+03 0.  0.
<mgrwt>
<rscale>  2 0.45457573E+03</rscale>
<asrwt>0</asrwt>
<pdfrwt beam="1">  1       21 0.14176007E-01 0.45457573E+03</pdfrwt>
<pdfrwt beam="2">  1       21 0.78809895E-01 0.45457573E+03</pdfrwt>
<totfact> 0.56923037E+04</totfact>
</mgrwt>
</event>
<event>
 7    0  0.4748297E-002  0.4540482E+03  0.7546771E-02  0.1026522E+00
         21   -1    0    0  502  501  0.00000000000E+00  0.00000000000E+00  0.54335993487E+02  0.54335993487E+02  0.00000000000E+00 0.  1.
         21   -1    0    0  501  502 -0.00000000000E+00 -0.00000000000E+00 -0.94854157951E+03  0.94854157951E+03  0.00000000000E+00 0.  1.
      99926    2    1    2    0    0  0.00000000000E+00  0.00000000000E+00 -0.89420558602E+03  0.10028775730E+04  0.45404823130E+03 0.  0.
      99925    2    3    3    0    0  0.70981134552E+02 -0.83257400715E+02 -0.61721978147E+03  0.67986246459E+03  0.26321587316E+03 0.  0.
         25    1    4    4    0    0  0.11817406694E+02 -0.52103042370E+02 -0.37830826104E+03  0.40201868936E+03  0.12509000000E+03 0.  0.
         25    1    3    3    0    0 -0.70981134552E+02  0.83257400715E+02 -0.27698580456E+03  0.32301510841E+03  0.12509000000E+03 0.  0.
         25    1    4    4    0    0  0.59163727858E+02 -0.31154358345E+02 -0.23891152043E+03  0.27784377523E+03  0.12509000000E+03 0.  0.
<mgrwt>
<rscale>  2 0.45404823E+03</rscale>
<asrwt>0</asrwt>
<pdfrwt beam="1">  1       21 0.79905876E-02 0.45404823E+03</pdfrwt>
<pdfrwt beam="2">  1       21 0.13949140E+00 0.45404823E+03</pdfrwt>
<totfact> 0.39346703E+04</totfact>
</mgrwt>
</event>
<event>
 7    0  0.4748297E-002  0.4536960E+03  0.7546771E-02  0.1026626E+00
         21   -1    0    0  502  501  0.00000000000E+00  0.00000000000E+00  0.38926004894E+02  0.38926004894E+02  0.00000000000E+00 0.  1.
         21   -1    0    0  501  502 -0.00000000000E+00 -0.00000000000E+00 -0.13219958949E+04  0.13219958949E+04  0.00000000000E+00 0.  1.
      99926    2    1    2    0    0  0.00000000000E+00  0.00000000000E+00 -0.12830698900E+04  0.13609218998E+04  0.45369601574E+03 0.  0.
      99925    2    3    3    0    0 -0.63627786083E+02 -0.30037943103E+02 -0.10697344617E+04  0.11038026934E+04  0.26286459328E+03 0.  0.
         25    1    4    4    0    0 -0.45313481174E+02 -0.23359911364E+02 -0.39956911363E+03  0.42178428338E+03  0.12509000000E+03 0.  0.
         25    1    3    3    0    0  0.63627786083E+02  0.30037943103E+02 -0.21333542835E+03  0.25711920636E+03  0.12509000000E+03 0.  0.
         25    1    4    4    0    0 -0.18314304909E+02 -0.66780317390E+01 -0.67016534803E+03  0.68201841007E+03  0.12509000000E+03 0.  0.
<mgrwt>
<rscale>  2 0.45369602E+03</rscale>
<asrwt>0</asrwt>
<pdfrwt beam="1">  1       21 0.57244132E-02 0.45369602E+03</pdfrwt>
<pdfrwt beam="2">  1       21 0.19441114E+00 0.45369602E+03</pdfrwt>
<totfact> 0.27671650E+04</totfact>
</mgrwt>
</event>
<event>
 7    0  0.4748297E-002  0.4553638E+03  0.7546771E-02  0.1026134E+00
         21   -1    0    0  502  501  0.00000000000E+00  0.00000000000E+00  0.54101289631E+02  0.54101289631E+02  0.00000000000E+00 0.  1.
         21   -1    0    0  501  502 -0.00000000000E+00 -0.00000000000E+00 -0.95818507682E+03  0.95818507682E+03  0.00000000000E+00 0.  1.
      99926    2    1    2    0    0 -0.71054273576E-14  0.00000000000E+00 -0.90408378719E+03  0.10122863665E+04  0.45536380340E+03 0.  0.
      99925    2    3    3    0    0 -0.47744627773E+02 -0.54636870899E+02 -0.76273663903E+03  0.81007048790E+03  0.26302524160E+03 0.  0.
         25    1    4    4    0    0  0.11378415867E+02 -0.49048976694E+01 -0.36369042601E+03  0.38480093612E+03  0.12509000000E+03 0.  0.
         25    1    3    3    0    0  0.47744627773E+02  0.54636870899E+02 -0.14134714816E+03  0.20221587855E+03  0.12509000000E+03 0.  0.
         25    1    4    4    0    0 -0.59123043640E+02 -0.49731973230E+02 -0.39904621302E+03  0.42526955178E+03  0.12509000000E+03 0.  0.
<mgrwt>
<rscale>  2 0.45536380E+03</rscale>
<asrwt>0</asrwt>
<pdfrwt beam="1">  1       21 0.79560722E-02 0.45536380E+03</pdfrwt>
<pdfrwt beam="2">  1       21 0.14090957E+00 0.45536380E+03</pdfrwt>
<totfact> 0.38582549E+04</totfact>
</mgrwt>
</event>
<event>
 7    0  0.4748297E-002  0.4519506E+03  0.7546771E-02  0.1027142E+00
         21   -1    0    0  502  501  0.00000000000E+00  0.00000000000E+00  0.41488989333E+03  0.41488989333E+03  0.00000000000E+00 0. -1.
         21   -1    0    0  501  502 -0.00000000000E+00 -0.00000000000E+00 -0.12308046398E+03  0.12308046398E+03  0.00000000000E+00 0. -1.
      99926    2    1    2    0    0  0.00000000000E+00  0.00000000000E+00  0.29180942935E+03  0.53797035731E+03  0.45195061930E+03 0.  0.
      99925    2    3    3    0    0  0.88470318315E+02 -0.62295234683E+02  0.21041434734E+03  0.35363272968E+03  0.26281974135E+03 0.  0.
         25    1    4    4    0    0  0.32014552012E+02 -0.30470671997E+02  0.15025800013E+03  0.20044542424E+03  0.12509000000E+03 0.  0.
         25    1    4    4    0    0  0.56455766303E+02 -0.31824562686E+02  0.60156347207E+02  0.15318730544E+03  0.12509000000E+03 0.  0.
         25    1    3    3    0    0 -0.88470318315E+02  0.62295234683E+02  0.81395082005E+02  0.18433762763E+03  0.12509000000E+03 0.  0.
<mgrwt>
<rscale>  2 0.45195062E+03</rscale>
<asrwt>0</asrwt>
<pdfrwt beam="1">  1       21 0.61013219E-01 0.45195062E+03</pdfrwt>
<pdfrwt beam="2">  1       21 0.18100068E-01 0.45195062E+03</pdfrwt>
<totfact> 0.64204014E+04</totfact>
</mgrwt>
</event>
<event>
 7    0  0.4748297E-002  0.4519222E+03  0.7546771E-02  0.1027150E+00
         21   -1    0    0  502  501  0.00000000000E+00  0.00000000000E+00  0.42759136222E+03  0.42759136222E+03  0.00000000000E+00 0.  1.
         21   -1    0    0  501  502 -0.00000000000E+00 -0.00000000000E+00 -0.11940938063E+03  0.11940938063E+03  0.00000000000E+00 0.  1.
      99926    2    1    2    0    0  0.00000000000E+00  0.00000000000E+00  0.30818198159E+03  0.54700074285E+03  0.45192220448E+03 0.  0.
      99925    2    3    3    0    0 -0.70252030764E+02 -0.37131755599E+02  0.10205391824E+03  0.29312990620E+03  0.26305137251E+03 0.  0.
         25    1    3    3    0    0  0.70252030764E+02  0.37131755599E+02  0.20612806335E+03  0.25387083664E+03  0.12509000000E+03 0.  0.
         25    1    4    4    0    0 -0.29487690748E+02 -0.79247463447E+01  0.91474984903E+02  0.15794779667E+03  0.12509000000E+03 0.  0.
         25    1    4    4    0    0 -0.40764340016E+02 -0.29207009254E+02  0.10578933342E+02  0.13518210953E+03  0.12509000000E+03 0.  0.
<mgrwt>
<rscale>  2 0.45192220E+03</rscale>
<asrwt>0</asrwt>
<pdfrwt beam="1">  1       21 0.62881082E-01 0.45192220E+03</pdfrwt>
<pdfrwt beam="2">  1       21 0.17560203E-01 0.45192220E+03</pdfrwt>
<totfact> 0.63599892E+04</totfact>
</mgrwt>
</event>
<event>
 7    0  0.4748297E-002  0.4505400E+03  0.7546771E-02  0.1027561E+00
         21   -1    0    0  502  501  0.00000000000E+00  0.00000000000E+00  0.39634500737E+02  0.39634500737E+02  0.00000000000E+00 0.  1.
         21   -1    0    0  501  502 -0.00000000000E+00 -0.00000000000E+00 -0.12803633782E+04  0.12803633782E+04  0.00000000000E+00 0.  1.
      99926    2    1    2    0    0  0.00000000000E+00  0.00000000000E+00 -0.12407288774E+04  0.13199978789E+04  0.45053995719E+03 0.  0.
      99925    2    3    3    0    0 -0.58125134994E+02  0.33685575686E+02 -0.53325934008E+03  0.59842050696E+03  0.26311277057E+03 0.  0.
         25    1    4    4    0    0 -0.15950735780E+01  0.17350338876E+02 -0.18769141539E+03  0.22622810177E+03  0.12509000000E+03 0.  0.
         25    1    4    4    0    0 -0.56530061416E+02  0.16335236810E+02 -0.34556792469E+03  0.37219240519E+03  0.12509000000E+03 0.  0.
         25    1    3    3    0    0  0.58125134994E+02 -0.33685575686E+02 -0.70746953735E+03  0.72157737195E+03  0.12509000000E+03 0.  0.
<mgrwt>
<rscale>  2 0.45053996E+03</rscale>
<asrwt>0</asrwt>
<pdfrwt beam="1">  1       21 0.58286025E-02 0.45053996E+03</pdfrwt>
<pdfrwt beam="2">  1       21 0.18828875E+00 0.45053996E+03</pdfrwt>
<totfact> 0.29551069E+04</totfact>
</mgrwt>
</event>
<event>
 7    0  0.4748297E-002  0.4553041E+03  0.7546771E-02  0.1026152E+00
         21   -1    0    0  502  501  0.00000000000E+00  0.00000000000E+00  0.63965736161E+02  0.63965736161E+02  0.00000000000E+00 0. -1.
         21   -1    0    0  501  502 -0.00000000000E+00 -0.00000000000E+00 -0.81020637606E+03  0.81020637606E+03  0.00000000000E+00 0. -1.
      99926    2    1    2    0    0  0.00000000000E+00  0.00000000000E+00 -0.74624063990E+03  0.87417211222E+03  0.45530406230E+03 0.  0.
      99925    2    3    3    0    0  0.67465627055E+02  0.91126166288E+02 -0.46217125074E+03  0.54372012634E+03  0.26300897658E+03 0.  0.
         25    1    4    4    0    0  0.51269465796E+02  0.37851922702E+02 -0.16582662511E+03  0.21727241857E+03  0.12509000000E+03 0.  0.
         25    1    4    4    0    0  0.16196161259E+02  0.53274243587E+02 -0.29634462563E+03  0.32644770777E+03  0.12509000000E+03 0.  0.
         25    1    3    3    0    0 -0.67465627055E+02 -0.91126166288E+02 -0.28406938916E+03  0.33045198589E+03  0.12509000000E+03 0.  0.
<mgrwt>
<rscale>  2 0.45530406E+03</rscale>
<asrwt>0</asrwt>
<pdfrwt beam="1">  1       21 0.94067266E-02 0.45530406E+03</pdfrwt>
<pdfrwt beam="2">  1       21 0.11914799E+00 0.45530406E+03</pdfrwt>
<totfact> 0.44263755E+04</totfact>
</mgrwt>
</event>
<event>
 7    0  0.4748297E-002  0.4700592E+03  0.7546771E-02  0.1021903E+00
         21   -1    0    0  502  501  0.00000000000E+00  0.00000000000E+00  0.28373140821E+03  0.28373140821E+03  0.00000000000E+00 0. -1.
         21   -1    0    0  501  502 -0.00000000000E+00 -0.00000000000E+00 -0.19468735440E+03  0.19468735440E+03  0.00000000000E+00 0. -1.
      99926    2    1    2    0    0  0.88817841970E-15 -0.14210854715E-13  0.89044053808E+02  0.47841876261E+03  0.47005921850E+03 0.  0.
      99925    2    3    3    0    0  0.48460761933E+01 -0.91776719923E+02  0.14426430580E+03  0.31366672133E+03  0.26292236756E+03 0.  0.
         25    1    3    3    0    0 -0.48460761933E+01  0.91776719923E+02 -0.55220251997E+02  0.16475204128E+03  0.12509000000E+03 0.  0.
         25    1    4    4    0    0  0.71631780691E+01 -0.60796764244E+02  0.11707872208E+03  0.18194090504E+03  0.12509000000E+03 0.  0.
         25    1    4    4    0    0 -0.23171018759E+01 -0.30979955679E+02  0.27185583727E+02  0.13172581629E+03  0.12509000000E+03 0.  0.
<mgrwt>
<rscale>  2 0.47005922E+03</rscale>
<asrwt>0</asrwt>
<pdfrwt beam="1">  1       21 0.41725207E-01 0.47005922E+03</pdfrwt>
<pdfrwt beam="2">  1       21 0.28630493E-01 0.47005922E+03</pdfrwt>
<totfact> 0.59391056E+04</totfact>
</mgrwt>
</event>
<event>
 7    0  0.4748297E-002  0.4556085E+03  0.7546771E-02  0.1026063E+00
         21   -1    0    0  502  501  0.00000000000E+00  0.00000000000E+00  0.13647876309E+03  0.13647876309E+03  0.00000000000E+00 0. -1.
         21   -1    0    0  501  502 -0.00000000000E+00 -0.00000000000E+00 -0.38024072339E+03  0.38024072339E+03  0.00000000000E+00 0. -1.
      99926    2    1    2    0    0  0.00000000000E+00  0.00000000000E+00 -0.24376196030E+03  0.51671948649E+03  0.45560853199E+03 0.  0.
      99925    2    3    3    0    0 -0.54005269453E+02 -0.89793928239E+02 -0.20347710258E+03  0.34864243112E+03  0.26300018028E+03 0.  0.
         25    1    4    4    0    0 -0.18664014726E+02 -0.35199384532E+02 -0.14612726464E+03  0.19643835595E+03  0.12509000000E+03 0.  0.
         25    1    4    4    0    0 -0.35341254727E+02 -0.54594543707E+02 -0.57349837936E+02  0.15220407517E+03  0.12509000000E+03 0.  0.
         25    1    3    3    0    0  0.54005269453E+02  0.89793928239E+02 -0.40284857726E+02  0.16807705536E+03  0.12509000000E+03 0.  0.
<mgrwt>
<rscale>  2 0.45560853E+03</rscale>
<asrwt>0</asrwt>
<pdfrwt beam="1">  1       21 0.20070407E-01 0.45560853E+03</pdfrwt>
<pdfrwt beam="2">  1       21 0.55917752E-01 0.45560853E+03</pdfrwt>
<totfact> 0.63802698E+04</totfact>
</mgrwt>
</event>
<event>
 7    0  0.4748297E-002  0.4427413E+03  0.7546771E-02  0.1029909E+00
         21   -1    0    0  502  501  0.00000000000E+00  0.00000000000E+00  0.74872717229E+02  0.74872717229E+02  0.00000000000E+00 0.  1.
         21   -1    0    0  501  502 -0.00000000000E+00 -0.00000000000E+00 -0.65451034151E+03  0.65451034151E+03  0.00000000000E+00 0.  1.
      99926    2    1    2    0    0  0.00000000000E+00  0.17763568394E-14 -0.57963762428E+03  0.72938305874E+03  0.44274131374E+03 0.  0.
      99925    2    3    3    0    0  0.41028598567E+02 -0.75162191249E+01 -0.21666348606E+03  0.34319971813E+03  0.26287476273E+03 0.  0.
         25    1    4    4    0    0 -0.14018898562E+02 -0.20940864895E+02 -0.87886012539E+02  0.15494033897E+03  0.12509000000E+03 0.  0.
         25    1    4    4    0    0  0.55047497129E+02  0.13424645770E+02 -0.12877747352E+03  0.18825937916E+03  0.12509000000E+03 0.  0.
         25    1    3    3    0    0 -0.41028598567E+02  0.75162191249E+01 -0.36297413822E+03  0.38618334061E+03  0.12509000000E+03 0.  0.
<mgrwt>
<rscale>  2 0.44274131E+03</rscale>
<asrwt>0</asrwt>
<pdfrwt beam="1">  1       21 0.11010694E-01 0.44274131E+03</pdfrwt>
<pdfrwt beam="2">  1       21 0.96251521E-01 0.44274131E+03</pdfrwt>
<totfact> 0.56598291E+04</totfact>
</mgrwt>
</event>
<event>
 7    0  0.4748297E-002  0.4577111E+03  0.7546771E-02  0.1025447E+00
         21   -1    0    0  502  501  0.00000000000E+00  0.00000000000E+00  0.64761310724E+02  0.64761310724E+02  0.00000000000E+00 0.  1.
         21   -1    0    0  501  502 -0.00000000000E+00 -0.00000000000E+00 -0.80873698490E+03  0.80873698490E+03  0.00000000000E+00 0.  1.
      99926    2    1    2    0    0  0.14210854715E-13 -0.88817841970E-15 -0.74397567417E+03  0.87349829562E+03  0.45771111926E+03 0.  0.
      99925    2    3    3    0    0  0.11434114715E+03  0.23008535108E+01 -0.50056144332E+03  0.57688880869E+03  0.26298240852E+03 0.  0.
         25    1    4    4    0    0  0.83279262134E+02 -0.31364824384E+02 -0.26285639935E+03  0.30440135100E+03  0.12509000000E+03 0.  0.
         25    1    3    3    0    0 -0.11434114715E+03 -0.23008535108E+01 -0.24341423086E+03  0.29660948694E+03  0.12509000000E+03 0.  0.
         25    1    4    4    0    0  0.31061885013E+02  0.33665677894E+02 -0.23770504396E+03  0.27248745768E+03  0.12509000000E+03 0.  0.
<mgrwt>
<rscale>  2 0.45771112E+03</rscale>
<asrwt>0</asrwt>
<pdfrwt beam="1">  1       21 0.95237228E-02 0.45771112E+03</pdfrwt>
<pdfrwt beam="2">  1       21 0.11893190E+00 0.45771112E+03</pdfrwt>
<totfact> 0.43468927E+04</totfact>
</mgrwt>
</event>
<event>
 7    0  0.4748297E-002  0.4452630E+03  0.7546771E-02  0.1029144E+00
         21   -1    0    0  502  501  0.00000000000E+00  0.00000000000E+00  0.17499424069E+03  0.17499424069E+03  0.00000000000E+00 0. -1.
         21   -1    0    0  501  502 -0.00000000000E+00 -0.00000000000E+00 -0.28323664996E+03  0.28323664996E+03  0.00000000000E+00 0. -1.
      99926    2    1    2    0    0 -0.26645352591E-14  0.00000000000E+00 -0.10824240927E+03  0.45823089065E+03  0.44526298968E+03 0.  0.
      99925    2    3    3    0    0  0.40132032676E+01  0.51934216373E+01 -0.17512167401E+03  0.31623292735E+03  0.26323484990E+03 0.  0.
         25    1    4    4    0    0  0.34168562756E+02  0.12432161317E+02 -0.59979689703E+02  0.14341241436E+03  0.12509000000E+03 0.  0.
         25    1    4    4    0    0 -0.30155359489E+02 -0.72387396793E+01 -0.11514198431E+03  0.17282051299E+03  0.12509000000E+03 0.  0.
         25    1    3    3    0    0 -0.40132032676E+01 -0.51934216373E+01  0.66879264743E+02  0.14199796330E+03  0.12509000000E+03 0.  0.
<mgrwt>
<rscale>  2 0.44526299E+03</rscale>
<asrwt>0</asrwt>
<pdfrwt beam="1">  1       21 0.25734447E-01 0.44526299E+03</pdfrwt>
<pdfrwt beam="2">  1       21 0.41652448E-01 0.44526299E+03</pdfrwt>
<totfact> 0.73863360E+04</totfact>
</mgrwt>
</event>
<event>
 7    0  0.4748297E-002  0.4614825E+03  0.7546771E-02  0.1024352E+00
         21   -1    0    0  502  501  0.00000000000E+00  0.00000000000E+00  0.76922908605E+03  0.76922908605E+03  0.00000000000E+00 0. -1.
         21   -1    0    0  501  502 -0.00000000000E+00 -0.00000000000E+00 -0.69214125554E+02  0.69214125554E+02  0.00000000000E+00 0. -1.
      99926    2    1    2    0    0  0.00000000000E+00  0.14210854715E-13  0.70001496050E+03  0.83844321160E+03  0.46148247439E+03 0.  0.
      99925    2    3    3    0    0 -0.56746282936E+02 -0.10033543432E+03  0.49220299861E+03  0.56989031252E+03  0.26310423115E+03 0.  0.
         25    1    4    4    0    0 -0.10611569529E+02 -0.85653130216E+02  0.28663659808E+03  0.32443352413E+03  0.12509000000E+03 0.  0.
         25    1    4    4    0    0 -0.46134713407E+02 -0.14682304100E+02  0.20556640054E+03  0.24545678839E+03  0.12509000000E+03 0.  0.
         25    1    3    3    0    0  0.56746282936E+02  0.10033543432E+03  0.20781196188E+03  0.26855289909E+03  0.12509000000E+03 0.  0.
<mgrwt>
<rscale>  2 0.46148247E+03</rscale>
<asrwt>0</asrwt>
<pdfrwt beam="1">  1       21 0.11312192E+00 0.46148247E+03</pdfrwt>
<pdfrwt beam="2">  1       21 0.10178548E-01 0.46148247E+03</pdfrwt>
<totfact> 0.43695796E+04</totfact>
</mgrwt>
</event>
<event>
 7    0  0.4748297E-002  0.4482748E+03  0.7546771E-02  0.1028238E+00
         21   -1    0    0  502  501  0.00000000000E+00  0.00000000000E+00  0.26377341718E+03  0.26377341718E+03  0.00000000000E+00 0. -1.
         21   -1    0    0  501  502 -0.00000000000E+00 -0.00000000000E+00 -0.19045729368E+03  0.19045729368E+03  0.00000000000E+00 0. -1.
      99926    2    1    2    0    0  0.00000000000E+00 -0.14210854715E-13  0.73316123499E+02  0.45423071087E+03  0.44827478708E+03 0.  0.
      99925    2    3    3    0    0  0.22133451643E+02 -0.72839573267E+02 -0.29419811935E+02  0.27535177515E+03  0.26297829117E+03 0.  0.
         25    1    3    3    0    0 -0.22133451643E+02  0.72839573267E+02  0.10273593543E+03  0.17887893572E+03  0.12509000000E+03 0.  0.
         25    1    4    4    0    0  0.12502600970E+02 -0.22819763310E+02  0.24190111746E+02  0.13003740321E+03  0.12509000000E+03 0.  0.
         25    1    4    4    0    0  0.96308506729E+01 -0.50019809956E+02 -0.53609923682E+02  0.14531437193E+03  0.12509000000E+03 0.  0.
<mgrwt>
<rscale>  2 0.44827479E+03</rscale>
<asrwt>0</asrwt>
<pdfrwt beam="1">  1       21 0.38790209E-01 0.44827479E+03</pdfrwt>
<pdfrwt beam="2">  1       21 0.28008425E-01 0.44827479E+03</pdfrwt>
<totfact> 0.72409103E+04</totfact>
</mgrwt>
</event>
<event>
 7    0  0.4748297E-002  0.4515006E+03  0.7546771E-02  0.1027276E+00
         21   -1    0    0  502  501  0.00000000000E+00  0.00000000000E+00  0.44516050416E+02  0.44516050416E+02  0.00000000000E+00 0. -1.
         21   -1    0    0  501  502 -0.00000000000E+00 -0.00000000000E+00 -0.11448272858E+04  0.11448272858E+04  0.00000000000E+00 0. -1.
      99926    2    1    2    0    0  0.71054273576E-14  0.00000000000E+00 -0.11003112354E+04  0.11893433362E+04  0.45150056112E+03 0.  0.
      99925    2    3    3    0    0  0.48388592193E+02 -0.98457992621E+02 -0.74311484895E+03  0.79529740140E+03  0.26123331674E+03 0.  0.
         25    1    4    4    0    0  0.33821741862E+02 -0.19859669831E+02 -0.28440563843E+03  0.31316511935E+03  0.12509000000E+03 0.  0.
         25    1    4    4    0    0  0.14566850331E+02 -0.78598322790E+02 -0.45870921052E+03  0.48213228204E+03  0.12509000000E+03 0.  0.
         25    1    3    3    0    0 -0.48388592193E+02  0.98457992621E+02 -0.35719638643E+03  0.39404593481E+03  0.12509000000E+03 0.  0.
<mgrwt>
<rscale>  2 0.45150056E+03</rscale>
<asrwt>0</asrwt>
<pdfrwt beam="1">  1       21 0.65464787E-02 0.45150056E+03</pdfrwt>
<pdfrwt beam="2">  1       21 0.16835693E+00 0.45150056E+03</pdfrwt>
<totfact> 0.33396791E+04</totfact>
</mgrwt>
</event>
<event>
 7    0  0.4748297E-002  0.4553334E+03  0.7546771E-02  0.1026143E+00
         21   -1    0    0  502  501  0.00000000000E+00  0.00000000000E+00  0.10521836704E+04  0.10521836704E+04  0.00000000000E+00 0.  1.
         21   -1    0    0  501  502 -0.00000000000E+00 -0.00000000000E+00 -0.49261471994E+02  0.49261471994E+02  0.00000000000E+00 0.  1.
      99926    2    1    2    0    0  0.00000000000E+00  0.00000000000E+00  0.10029221984E+04  0.11014451424E+04  0.45533335661E+03 0.  0.
      99925    2    3    3    0    0  0.44421950192E+02 -0.63141022320E+02  0.42984161861E+03  0.50981269112E+03  0.26303053925E+03 0.  0.
         25    1    4    4    0    0  0.15763505220E+01 -0.63553903430E+02  0.19388240277E+03  0.23933131372E+03  0.12509000000E+03 0.  0.
         25    1    4    4    0    0  0.42845599670E+02  0.41288110944E+00  0.23595921584E+03  0.27048137740E+03  0.12509000000E+03 0.  0.
         25    1    3    3    0    0 -0.44421950192E+02  0.63141022320E+02  0.57308057975E+03  0.59163245123E+03  0.12509000000E+03 0.  0.
<mgrwt>
<rscale>  2 0.45533336E+03</rscale>
<asrwt>0</asrwt>
<pdfrwt beam="1">  1       21 0.15473288E+00 0.45533336E+03</pdfrwt>
<pdfrwt beam="2">  1       21 0.72443348E-02 0.45533336E+03</pdfrwt>
<totfact> 0.35352128E+04</totfact>
</mgrwt>
</event>
<event>
 7    0  0.4748297E-002  0.4634410E+03  0.7546771E-02  0.1023788E+00
         21   -1    0    0  502  501  0.00000000000E+00  0.00000000000E+00  0.32739989077E+03  0.32739989077E+03  0.00000000000E+00 0.  1.
         21   -1    0    0  501  502 -0.00000000000E+00 -0.00000000000E+00 -0.16400247395E+03  0.16400247395E+03  0.00000000000E+00 0.  1.
      99926    2    1    2    0    0  0.00000000000E+00  0.00000000000E+00  0.16339741683E+03  0.49140236472E+03  0.46344100836E+03 0.  0.
      99925    2    3    3    0    0  0.11643772386E+03  0.25943815214E+02  0.12338910096E+03  0.31397914605E+03  0.26292053711E+03 0.  0.
         25    1    4    4    0    0  0.43600074605E+02 -0.91993676087E+00  0.97528126320E+02  0.16450245078E+03  0.12509000000E+03 0.  0.
         25    1    3    3    0    0 -0.11643772386E+03 -0.25943815214E+02  0.40008315869E+02  0.17742321867E+03  0.12509000000E+03 0.  0.
         25    1    4    4    0    0  0.72837649255E+02  0.26863751975E+02  0.25860974637E+02  0.14947669527E+03  0.12509000000E+03 0.  0.
<mgrwt>
<rscale>  2 0.46344101E+03</rscale>
<asrwt>0</asrwt>
<pdfrwt beam="1">  1       21 0.48147043E-01 0.46344101E+03</pdfrwt>
<pdfrwt beam="2">  1       21 0.24118011E-01 0.46344101E+03</pdfrwt>
<totfact> 0.61643627E+04</totfact>
</mgrwt>
</event>
<event>
 7    0  0.4748297E-002  0.4492713E+03  0.7546771E-02  0.1027940E+00
         21   -1    0    0  502  501  0.00000000000E+00  0.00000000000E+00  0.25887908032E+03  0.25887908032E+03  0.00000000000E+00 0.  1.
         21   -1    0    0  501  502 -0.00000000000E+00 -0.00000000000E+00 -0.19492183412E+03  0.19492183412E+03  0.00000000000E+00 0.  1.
      99926    2    1    2    0    0  0.35527136788E-14  0.00000000000E+00  0.63957246201E+02  0.45380091444E+03  0.44927134407E+03 0.  0.
      99925    2    3    3    0    0  0.23574746730E+02 -0.64526788732E+02 -0.43364227498E+02  0.27523753083E+03  0.26297484101E+03 0.  0.
         25    1    4    4    0    0  0.52277230107E+02 -0.34472493083E+02 -0.26035381374E+02  0.14229058560E+03  0.12509000000E+03 0.  0.
         25    1    3    3    0    0 -0.23574746730E+02  0.64526788732E+02  0.10732147370E+03  0.17856338360E+03  0.12509000000E+03 0.  0.
         25    1    4    4    0    0 -0.28702483377E+02 -0.30054295649E+02 -0.17328846124E+02  0.13294694523E+03  0.12509000000E+03 0.  0.
<mgrwt>
<rscale>  2 0.44927134E+03</rscale>
<asrwt>0</asrwt>
<pdfrwt beam="1">  1       21 0.38070453E-01 0.44927134E+03</pdfrwt>
<pdfrwt beam="2">  1       21 0.28664976E-01 0.44927134E+03</pdfrwt>
<totfact> 0.71862014E+04</totfact>
</mgrwt>
</event>
<event>
 7    0  0.4748297E-002  0.4510516E+03  0.7546771E-02  0.1027409E+00
         21   -1    0    0  502  501  0.00000000000E+00  0.00000000000E+00  0.42385042167E+03  0.42385042167E+03  0.00000000000E+00 0.  1.
         21   -1    0    0  501  502 -0.00000000000E+00 -0.00000000000E+00 -0.11999959233E+03  0.11999959233E+03  0.00000000000E+00 0.  1.
      99926    2    1    2    0    0  0.00000000000E+00  0.00000000000E+00  0.30385082934E+03  0.54385001401E+03  0.45105156163E+03 0.  0.
      99925    2    3    3    0    0  0.20117376509E+02  0.17847969876E+02  0.64158405333E+02  0.27214571685E+03  0.26310403144E+03 0.  0.
         25    1    4    4    0    0 -0.15535839117E+02  0.95943180445E+01  0.64263624493E+02  0.14181232234E+03  0.12509000000E+03 0.  0.
         25    1    4    4    0    0  0.35653215627E+02  0.82536518316E+01 -0.10521916010E+00  0.13033339451E+03  0.12509000000E+03 0.  0.
         25    1    3    3    0    0 -0.20117376509E+02 -0.17847969876E+02  0.23969242400E+03  0.27170429715E+03  0.12509000000E+03 0.  0.
<mgrwt>
<rscale>  2 0.45105156E+03</rscale>
<asrwt>0</asrwt>
<pdfrwt beam="1">  1       21 0.62330944E-01 0.45105156E+03</pdfrwt>
<pdfrwt beam="2">  1       21 0.17646999E-01 0.45105156E+03</pdfrwt>
<totfact> 0.64259066E+04</totfact>
</mgrwt>
</event>
<event>
 7    0  0.4748297E-002  0.4800054E+03  0.7546771E-02  0.1019134E+00
         21   -1    0    0  502  501  0.00000000000E+00  0.00000000000E+00  0.51220354826E+03  0.51220354826E+03  0.00000000000E+00 0.  1.
         21   -1    0    0  501  502 -0.00000000000E+00 -0.00000000000E+00 -0.11245780900E+03  0.11245780900E+03  0.00000000000E+00 0.  1.
      99926    2    1    2    0    0 -0.71054273576E-14  0.00000000000E+00  0.39974573926E+03  0.62466135727E+03  0.48000536997E+03 0.  0.
      99925    2    3    3    0    0 -0.37779023127E+02  0.12854145990E+03  0.22941512677E+03  0.37444108000E+03  0.26386485272E+03 0.  0.
         25    1    3    3    0    0  0.37779023127E+02 -0.12854145990E+03  0.17033061249E+03  0.25022027726E+03  0.12509000000E+03 0.  0.
         25    1    4    4    0    0  0.15337524350E+02  0.88435075948E+02  0.12753793993E+03  0.19992357673E+03  0.12509000000E+03 0.  0.
         25    1    4    4    0    0 -0.53116547477E+02  0.40106383955E+02  0.10187718684E+03  0.17451750327E+03  0.12509000000E+03 0.  0.
<mgrwt>
<rscale>  2 0.48000537E+03</rscale>
<asrwt>0</asrwt>
<pdfrwt beam="1">  1       21 0.75324050E-01 0.48000537E+03</pdfrwt>
<pdfrwt beam="2">  1       21 0.16537913E-01 0.48000537E+03</pdfrwt>
<totfact> 0.47160115E+04</totfact>
</mgrwt>
</event>
<event>
 7    0  0.4748297E-002  0.4290585E+03  0.7546771E-02  0.1034158E+00
         21   -1    0    0  502  501  0.00000000000E+00  0.00000000000E+00  0.15630359272E+03  0.15630359272E+03  0.00000000000E+00 0.  1.
         21   -1    0    0  501  502 -0.00000000000E+00 -0.00000000000E+00 -0.29444493609E+03  0.29444493609E+03  0.00000000000E+00 0.  1.
      99926    2    1    2    0    0  0.71054273576E-14 -0.71054273576E-14 -0.13814134337E+03  0.45074852881E+03  0.42905851055E+03 0.  0.
      99925    2    3    3    0    0  0.32881093489E+02  0.63108697998E+02 -0.37533603816E+02  0.27515439613E+03  0.26312980869E+03 0.  0.
         25    1    3    3    0    0 -0.32881093489E+02 -0.63108697998E+02 -0.10060773955E+03  0.17559413267E+03  0.12509000000E+03 0.  0.
         25    1    4    4    0    0  0.44018298258E+02  0.26408322014E+02 -0.48994645583E+02  0.14381583170E+03  0.12509000000E+03 0.  0.
         25    1    4    4    0    0 -0.11137204768E+02  0.36700375984E+02  0.11461041768E+02  0.13133856443E+03  0.12509000000E+03 0.  0.
<mgrwt>
<rscale>  2 0.42905851E+03</rscale>
<asrwt>0</asrwt>
<pdfrwt beam="1">  1       21 0.22985823E-01 0.42905851E+03</pdfrwt>
<pdfrwt beam="2">  1       21 0.43300725E-01 0.42905851E+03</pdfrwt>
<totfact> 0.85107269E+04</totfact>
</mgrwt>
</event>
<event>
 7    0  0.4748297E-002  0.4507067E+03  0.7546771E-02  0.1027512E+00
         21   -1    0    0  502  501  0.00000000000E+00  0.00000000000E+00  0.34140650214E+03  0.34140650214E+03  0.00000000000E+00 0. -1.
         21   -1    0    0  501  502 -0.00000000000E+00 -0.00000000000E+00 -0.14874975114E+03  0.14874975114E+03  0.00000000000E+00 0. -1.
      99926    2    1    2    0    0  0.00000000000E+00  0.00000000000E+00  0.19265675100E+03  0.49015625328E+03  0.45070669944E+03 0.  0.
      99925    2    3    3    0    0  0.56208838495E+02  0.60604308274E+02  0.19912882384E+03  0.34008389895E+03  0.26300656672E+03 0.  0.
         25    1    3    3    0    0 -0.56208838495E+02 -0.60604308274E+02 -0.64720728403E+01  0.15007235433E+03  0.12509000000E+03 0.  0.
         25    1    4    4    0    0  0.14182053189E+02  0.58805826078E+02  0.70564196808E+02  0.15583988509E+03  0.12509000000E+03 0.  0.
         25    1    4    4    0    0  0.42026785306E+02  0.17984821963E+01  0.12856462703E+03  0.18424401386E+03  0.12509000000E+03 0.  0.
<mgrwt>
<rscale>  2 0.45070670E+03</rscale>
<asrwt>0</asrwt>
<pdfrwt beam="1">  1       21 0.50206838E-01 0.45070670E+03</pdfrwt>
<pdfrwt beam="2">  1       21 0.21874963E-01 0.45070670E+03</pdfrwt>
<totfact> 0.68265077E+04</totfact>
</mgrwt>
</event>
<event>
 7    0  0.4748297E-002  0.4626075E+03  0.7546771E-02  0.1024028E+00
         21   -1    0    0  502  501  0.00000000000E+00  0.00000000000E+00  0.25244234548E+03  0.25244234548E+03  0.00000000000E+00 0.  1.
         21   -1    0    0  501  502 -0.00000000000E+00 -0.00000000000E+00 -0.21193518871E+03  0.21193518871E+03  0.00000000000E+00 0.  1.
      99926    2    1    2    0    0 -0.71054273576E-14 -0.17763568394E-14  0.40507156771E+02  0.46437753418E+03  0.46260746266E+03 0.  0.
      99925    2    3    3    0    0 -0.42621785371E+02 -0.15161006522E+02 -0.86372168559E+02  0.28055059382E+03  0.26306275199E+03 0.  0.
         25    1    4    4    0    0 -0.34199117946E+02 -0.28414731009E+02 -0.78508331885E+02  0.15423372809E+03  0.12509000000E+03 0.  0.
         25    1    4    4    0    0 -0.84226674253E+01  0.13253724487E+02 -0.78638366741E+01  0.12631686572E+03  0.12509000000E+03 0.  0.
         25    1    3    3    0    0  0.42621785371E+02  0.15161006522E+02  0.12687932533E+03  0.18382694036E+03  0.12509000000E+03 0.  0.
<mgrwt>
<rscale>  2 0.46260746E+03</rscale>
<asrwt>0</asrwt>
<pdfrwt beam="1">  1       21 0.37123874E-01 0.46260746E+03</pdfrwt>
<pdfrwt beam="2">  1       21 0.31166940E-01 0.46260746E+03</pdfrwt>
<totfact> 0.63896872E+04</totfact>
</mgrwt>
</event>
<event>
 7    0  0.4748297E-002  0.4529237E+03  0.7546771E-02  0.1026854E+00
         21   -1    0    0  502  501  0.00000000000E+00  0.00000000000E+00  0.15379646905E+03  0.15379646905E+03  0.00000000000E+00 0. -1.
         21   -1    0    0  501  502 -0.00000000000E+00 -0.00000000000E+00 -0.33345995492E+03  0.33345995492E+03  0.00000000000E+00 0. -1.
      99926    2    1    2    0    0  0.00000000000E+00 -0.71054273576E-14 -0.17966348587E+03  0.48725642397E+03  0.45292367408E+03 0.  0.
      99925    2    3    3    0    0 -0.99487574748E+02  0.44593733698E+02 -0.13696158838E+03  0.31591658983E+03  0.26297991638E+03 0.  0.
         25    1    4    4    0    0 -0.46315198852E+02 -0.12585219400E+02 -0.41527500359E+02  0.14026947914E+03  0.12509000000E+03 0.  0.
         25    1    3    3    0    0  0.99487574748E+02 -0.44593733698E+02 -0.42701897485E+02  0.17133983414E+03  0.12509000000E+03 0.  0.
         25    1    4    4    0    0 -0.53172375897E+02  0.57178953098E+02 -0.95434088025E+02  0.17564711069E+03  0.12509000000E+03 0.  0.
<mgrwt>
<rscale>  2 0.45292367E+03</rscale>
<asrwt>0</asrwt>
<pdfrwt beam="1">  1       21 0.22617128E-01 0.45292367E+03</pdfrwt>
<pdfrwt beam="2">  1       21 0.49038228E-01 0.45292367E+03</pdfrwt>
<totfact> 0.67277692E+04</totfact>
</mgrwt>
</event>
<event>
 7    0  0.4748297E-002  0.4580053E+03  0.7546771E-02  0.1025361E+00
         21   -1    0    0  502  501  0.00000000000E+00  0.00000000000E+00  0.76915239147E+02  0.76915239147E+02  0.00000000000E+00 0.  1.
         21   -1    0    0  501  502 -0.00000000000E+00 -0.00000000000E+00 -0.68181822532E+03  0.68181822532E+03  0.00000000000E+00 0.  1.
      99926    2    1    2    0    0  0.00000000000E+00  0.00000000000E+00 -0.60490298617E+03  0.75873346446E+03  0.45800529191E+03 0.  0.
      99925    2    3    3    0    0  0.10336855024E+02  0.10812152096E+03 -0.44682728515E+03  0.52975191669E+03  0.26303109439E+03 0.  0.
         25    1    3    3    0    0 -0.10336855024E+02 -0.10812152096E+03 -0.15807570102E+03  0.22898154777E+03  0.12509000000E+03 0.  0.
         25    1    4    4    0    0 -0.34382028847E+02  0.60777648228E+02 -0.23704401858E+03  0.27697187813E+03  0.12509000000E+03 0.  0.
         25    1    4    4    0    0  0.44718883871E+02  0.47343872736E+02 -0.20978326658E+03  0.25278003856E+03  0.12509000000E+03 0.  0.
<mgrwt>
<rscale>  2 0.45800529E+03</rscale>
<asrwt>0</asrwt>
<pdfrwt beam="1">  1       21 0.11311064E-01 0.45800529E+03</pdfrwt>
<pdfrwt beam="2">  1       21 0.10026739E+00 0.45800529E+03</pdfrwt>
<totfact> 0.48666511E+04</totfact>
</mgrwt>
</event>
<event>
 7    0  0.4748297E-002  0.4621762E+03  0.7546771E-02  0.1024152E+00
         21   -1    0    0  502  501  0.00000000000E+00  0.00000000000E+00  0.24952429188E+03  0.24952429188E+03  0.00000000000E+00 0. -1.
         21   -1    0    0  501  502 -0.00000000000E+00 -0.00000000000E+00 -0.21401408296E+03  0.21401408296E+03  0.00000000000E+00 0. -1.
      99926    2    1    2    0    0  0.00000000000E+00  0.00000000000E+00  0.35510208915E+02  0.46353837484E+03  0.46217621100E+03 0.  0.
      99925    2    3    3    0    0 -0.10426992330E+03 -0.57562301120E+02  0.34100898663E+02  0.29080988944E+03  0.26310052279E+03 0.  0.
         25    1    4    4    0    0 -0.61458476222E+02 -0.31804924785E+02  0.57514568590E+02  0.15409130813E+03  0.12509000000E+03 0.  0.
         25    1    4    4    0    0 -0.42811447074E+02 -0.25757376335E+02 -0.23413669927E+02  0.13671858131E+03  0.12509000000E+03 0.  0.
         25    1    3    3    0    0  0.10426992330E+03  0.57562301120E+02  0.14093102513E+01  0.17272848540E+03  0.12509000000E+03 0.  0.
<mgrwt>
<rscale>  2 0.46217621E+03</rscale>
<asrwt>0</asrwt>
<pdfrwt beam="1">  1       21 0.36694749E-01 0.46217621E+03</pdfrwt>
<pdfrwt beam="2">  1       21 0.31472659E-01 0.46217621E+03</pdfrwt>
<totfact> 0.64171076E+04</totfact>
</mgrwt>
</event>
<event>
 7    0  0.4748297E-002  0.4578356E+03  0.7546771E-02  0.1025411E+00
         21   -1    0    0  502  501  0.00000000000E+00  0.00000000000E+00  0.32130655912E+03  0.32130655912E+03  0.00000000000E+00 0. -1.
         21   -1    0    0  501  502 -0.00000000000E+00 -0.00000000000E+00 -0.16309459460E+03  0.16309459460E+03  0.00000000000E+00 0. -1.
      99926    2    1    2    0    0  0.00000000000E+00 -0.71054273576E-14  0.15821196452E+03  0.48440115372E+03  0.45783561679E+03 0.  0.
      99925    2    3    3    0    0 -0.90699971143E+02  0.46288552794E+02  0.15790742983E+03  0.32310417381E+03  0.26285440049E+03 0.  0.
         25    1    4    4    0    0 -0.77982364646E+01  0.36565271331E+02  0.86635302097E+02  0.15668763585E+03  0.12509000000E+03 0.  0.
         25    1    4    4    0    0 -0.82901734678E+02  0.97232814625E+01  0.71272127733E+02  0.16641653796E+03  0.12509000000E+03 0.  0.
         25    1    3    3    0    0  0.90699971143E+02 -0.46288552794E+02  0.30453469029E+00  0.16129697990E+03  0.12509000000E+03 0.  0.
<mgrwt>
<rscale>  2 0.45783562E+03</rscale>
<asrwt>0</asrwt>
<pdfrwt beam="1">  1       21 0.47250965E-01 0.45783562E+03</pdfrwt>
<pdfrwt beam="2">  1       21 0.23984499E-01 0.45783562E+03</pdfrwt>
<totfact> 0.64907729E+04</totfact>
</mgrwt>
</event>
<event>
 7    0  0.4748297E-002  0.4511200E+03  0.7546771E-02  0.1027389E+00
         21   -1    0    0  502  501  0.00000000000E+00  0.00000000000E+00  0.37814976897E+03  0.37814976897E+03  0.00000000000E+00 0.  1.
         21   -1    0    0  501  502 -0.00000000000E+00 -0.00000000000E+00 -0.13454278469E+03  0.13454278469E+03  0.00000000000E+00 0.  1.
      99926    2    1    2    0    0  0.00000000000E+00  0.00000000000E+00  0.24360698428E+03  0.51269255366E+03  0.45112004144E+03 0.  0.
      99925    2    3    3    0    0  0.31787424438E+02 -0.48338187363E+02  0.25950861931E+03  0.37395758760E+03  0.26296869228E+03 0.  0.
         25    1    4    4    0    0  0.22446620732E+02 -0.56135861044E+02  0.10149852496E+03  0.17205971158E+03  0.12509000000E+03 0.  0.
         25    1    4    4    0    0  0.93408037063E+01  0.77976736816E+01  0.15801009435E+03  0.20189787603E+03  0.12509000000E+03 0.  0.
         25    1    3    3    0    0 -0.31787424438E+02  0.48338187363E+02 -0.15901635036E+02  0.13873496606E+03  0.12509000000E+03 0.  0.
<mgrwt>
<rscale>  2 0.45112004E+03</rscale>
<asrwt>0</asrwt>
<pdfrwt beam="1">  1       21 0.55610260E-01 0.45112004E+03</pdfrwt>
<pdfrwt beam="2">  1       21 0.19785704E-01 0.45112004E+03</pdfrwt>
<totfact> 0.66409016E+04</totfact>
</mgrwt>
</event>
<event>
 7    0  0.4748297E-002  0.4556835E+03  0.7546771E-02  0.1026041E+00
         21   -1    0    0  502  501  0.00000000000E+00  0.00000000000E+00  0.71759849511E+02  0.71759849511E+02  0.00000000000E+00 0. -1.
         21   -1    0    0  501  502 -0.00000000000E+00 -0.00000000000E+00 -0.72341104520E+03  0.72341104520E+03  0.00000000000E+00 0. -1.
      99926    2    1    2    0    0  0.14210854715E-13  0.35527136788E-14 -0.65165119569E+03  0.79517089471E+03  0.45568352061E+03 0.  0.
      99925    2    3    3    0    0 -0.70922503217E+02  0.26093267320E+02 -0.26128067464E+03  0.37834057927E+03  0.26298886464E+03 0.  0.
         25    1    3    3    0    0  0.70922503217E+02 -0.26093267320E+02 -0.39037052105E+03  0.41683031543E+03  0.12509000000E+03 0.  0.
         25    1    4    4    0    0  0.58123739171E+01  0.45733697115E+01 -0.11883486884E+03  0.17269607278E+03  0.12509000000E+03 0.  0.
         25    1    4    4    0    0 -0.76734877135E+02  0.21519897608E+02 -0.14244580580E+03  0.20564450650E+03  0.12509000000E+03 0.  0.
<mgrwt>
<rscale>  2 0.45568352E+03</rscale>
<asrwt>0</asrwt>
<pdfrwt beam="1">  1       21 0.10552919E-01 0.45568352E+03</pdfrwt>
<pdfrwt beam="2">  1       21 0.10638398E+00 0.45568352E+03</pdfrwt>
<totfact> 0.47742655E+04</totfact>
</mgrwt>
</event>
<event>
 7    0  0.4748297E-002  0.4573603E+03  0.7546771E-02  0.1025550E+00
         21   -1    0    0  502  501  0.00000000000E+00  0.00000000000E+00  0.45220718002E+03  0.45220718002E+03  0.00000000000E+00 0.  1.
         21   -1    0    0  501  502 -0.00000000000E+00 -0.00000000000E+00 -0.11564301691E+03  0.11564301691E+03  0.00000000000E+00 0.  1.
      99926    2    1    2    0    0 -0.14210854715E-13  0.71054273576E-14  0.33656416311E+03  0.56785019693E+03  0.45736026311E+03 0.  0.
      99925    2    3    3    0    0 -0.10213599052E+03  0.41969570765E+02  0.16995520213E+03  0.33205524489E+03  0.26302606239E+03 0.  0.
         25    1    4    4    0    0 -0.22953661890E+02  0.50618888571E+02  0.77523369966E+02  0.15731027768E+03  0.12509000000E+03 0.  0.
         25    1    3    3    0    0  0.10213599052E+03 -0.41969570765E+02  0.16660896098E+03  0.23579495204E+03  0.12509000000E+03 0.  0.
         25    1    4    4    0    0 -0.79182328635E+02 -0.86493178062E+01  0.92431832168E+02  0.17474496721E+03  0.12509000000E+03 0.  0.
<mgrwt>
<rscale>  2 0.45736026E+03</rscale>
<asrwt>0</asrwt>
<pdfrwt beam="1">  1       21 0.66501055E-01 0.45736026E+03</pdfrwt>
<pdfrwt beam="2">  1       21 0.17006326E-01 0.45736026E+03</pdfrwt>
<totfact> 0.59582183E+04</totfact>
</mgrwt>
</event>
<event>
 7    0  0.4748297E-002  0.4579119E+03  0.7546771E-02  0.1025389E+00
         21   -1    0    0  502  501  0.00000000000E+00  0.00000000000E+00  0.10324003846E+03  0.10324003846E+03  0.00000000000E+00 0. -1.
         21   -1    0    0  501  502 -0.00000000000E+00 -0.00000000000E+00 -0.50775683062E+03  0.50775683062E+03  0.00000000000E+00 0. -1.
      99926    2    1    2    0    0  0.00000000000E+00  0.00000000000E+00 -0.40451679216E+03  0.61099686907E+03  0.45791193354E+03 0.  0.
      99925    2    3    3    0    0 -0.35690848620E+02 -0.10755016629E+03 -0.22234413978E+03  0.36265183023E+03  0.26313220732E+03 0.  0.
         25    1    4    4    0    0  0.12336890221E+02 -0.75386714521E+02 -0.92514658956E+02  0.17332577941E+03  0.12509000000E+03 0.  0.
         25    1    4    4    0    0 -0.48027738841E+02 -0.32163451765E+02 -0.12982948082E+03  0.18932605082E+03  0.12509000000E+03 0.  0.
         25    1    3    3    0    0  0.35690848620E+02  0.10755016629E+03 -0.18217265238E+03  0.24834503884E+03  0.12509000000E+03 0.  0.
<mgrwt>
<rscale>  2 0.45791193E+03</rscale>
<asrwt>0</asrwt>
<pdfrwt beam="1">  1       21 0.15182359E-01 0.45791193E+03</pdfrwt>
<pdfrwt beam="2">  1       21 0.74670121E-01 0.45791193E+03</pdfrwt>
<totfact> 0.56691198E+04</totfact>
</mgrwt>
</event>
<event>
 7    0  0.4748297E-002  0.4661869E+03  0.7546771E-02  0.1023002E+00
         21   -1    0    0  502  501  0.00000000000E+00  0.00000000000E+00  0.64827125923E+02  0.64827125923E+02  0.00000000000E+00 0.  1.
         21   -1    0    0  501  502 -0.00000000000E+00 -0.00000000000E+00 -0.83811441757E+03  0.83811441757E+03  0.00000000000E+00 0.  1.
      99926    2    1    2    0    0  0.00000000000E+00  0.00000000000E+00 -0.77328729165E+03  0.90294154349E+03  0.46618686762E+03 0.  0.
      99925    2    3    3    0    0 -0.32446213721E+02 -0.88254875885E+02 -0.32731849023E+03  0.43031340230E+03  0.26304096688E+03 0.  0.
         25    1    4    4    0    0  0.62345270941E+01 -0.24724385372E+02 -0.10862281940E+03  0.16762037333E+03  0.12509000000E+03 0.  0.
         25    1    4    4    0    0 -0.38680740815E+02 -0.63530490512E+02 -0.21869567083E+03  0.26269302898E+03  0.12509000000E+03 0.  0.
         25    1    3    3    0    0  0.32446213721E+02  0.88254875885E+02 -0.44596880142E+03  0.47262814119E+03  0.12509000000E+03 0.  0.
<mgrwt>
<rscale>  2 0.46618687E+03</rscale>
<asrwt>0</asrwt>
<pdfrwt beam="1">  1       21 0.95334010E-02 0.46618687E+03</pdfrwt>
<pdfrwt beam="2">  1       21 0.12325212E+00 0.46618687E+03</pdfrwt>
<totfact> 0.39529180E+04</totfact>
</mgrwt>
</event>
<event>
 7    0  0.4748297E-002  0.4538365E+03  0.7546771E-02  0.1026584E+00
         21   -1    0    0  502  501  0.00000000000E+00  0.00000000000E+00  0.15008675817E+03  0.15008675817E+03  0.00000000000E+00 0. -1.
         21   -1    0    0  501  502 -0.00000000000E+00 -0.00000000000E+00 -0.34308089199E+03  0.34308089199E+03  0.00000000000E+00 0. -1.
      99926    2    1    2    0    0  0.00000000000E+00  0.14210854715E-13 -0.19299413382E+03  0.49316765016E+03  0.45383652947E+03 0.  0.
      99925    2    3    3    0    0  0.38013052735E+02  0.77031693538E+02 -0.19981260953E+03  0.34127007382E+03  0.26298538053E+03 0.  0.
         25    1    3    3    0    0 -0.38013052735E+02 -0.77031693538E+02  0.68184757091E+01  0.15189757634E+03  0.12509000000E+03 0.  0.
         25    1    4    4    0    0  0.25280839514E+02  0.75368314495E+02 -0.13163766935E+03  0.19823089509E+03  0.12509000000E+03 0.  0.
         25    1    4    4    0    0  0.12732213221E+02  0.16633790424E+01 -0.68174940178E+02  0.14303917873E+03  0.12509000000E+03 0.  0.
<mgrwt>
<rscale>  2 0.45383653E+03</rscale>
<asrwt>0</asrwt>
<pdfrwt beam="1">  1       21 0.22071582E-01 0.45383653E+03</pdfrwt>
<pdfrwt beam="2">  1       21 0.50453073E-01 0.45383653E+03</pdfrwt>
<totfact> 0.66364211E+04</totfact>
</mgrwt>
</event>
<event>
 7    0  0.4748297E-002  0.4596706E+03  0.7546771E-02  0.1024877E+00
         21   -1    0    0  502  501  0.00000000000E+00  0.00000000000E+00  0.80244476415E+02  0.80244476415E+02  0.00000000000E+00 0.  1.
         21   -1    0    0  501  502 -0.00000000000E+00 -0.00000000000E+00 -0.65829167427E+03  0.65829167427E+03  0.00000000000E+00 0.  1.
      99926    2    1    2    0    0 -0.71054273576E-14  0.14210854715E-13 -0.57804719786E+03  0.73853615069E+03  0.45967062438E+03 0.  0.
      99925    2    3    3    0    0  0.60475593863E+02 -0.10055304840E+03 -0.37260764344E+03  0.47091490412E+03  0.26297562240E+03 0.  0.
         25    1    3    3    0    0 -0.60475593863E+02  0.10055304840E+03 -0.20543955442E+03  0.26762124657E+03  0.12509000000E+03 0.  0.
         25    1    4    4    0    0  0.51362469181E+02 -0.15791930368E+02 -0.16338755141E+03  0.21267460676E+03  0.12509000000E+03 0.  0.
         25    1    4    4    0    0  0.91131246818E+01 -0.84761118029E+02 -0.20922009203E+03  0.25824029736E+03  0.12509000000E+03 0.  0.
<mgrwt>
<rscale>  2 0.45967062E+03</rscale>
<asrwt>0</asrwt>
<pdfrwt beam="1">  1       21 0.11800657E-01 0.45967062E+03</pdfrwt>
<pdfrwt beam="2">  1       21 0.96807606E-01 0.45967062E+03</pdfrwt>
<totfact> 0.49034639E+04</totfact>
</mgrwt>
</event>
<event>
 7    0  0.4748297E-002  0.4529935E+03  0.7546771E-02  0.1026833E+00
         21   -1    0    0  502  501  0.00000000000E+00  0.00000000000E+00  0.55769999578E+02  0.55769999578E+02  0.00000000000E+00 0.  1.
         21   -1    0    0  501  502 -0.00000000000E+00 -0.00000000000E+00 -0.91986325321E+03  0.91986325321E+03  0.00000000000E+00 0.  1.
      99926    2    1    2    0    0 -0.14210854715E-13  0.00000000000E+00 -0.86409325363E+03  0.97563325279E+03  0.45299348006E+03 0.  0.
      99925    2    3    3    0    0  0.11036808550E+03 -0.10136409641E+02 -0.56697853080E+03  0.63473953369E+03  0.26295581405E+03 0.  0.
         25    1    4    4    0    0  0.84474701112E+02 -0.38601981830E+01 -0.23892704664E+03  0.28263849344E+03  0.12509000000E+03 0.  0.
         25    1    4    4    0    0  0.25893384388E+02 -0.62762114583E+01 -0.32805148416E+03  0.35210104025E+03  0.12509000000E+03 0.  0.
         25    1    3    3    0    0 -0.11036808550E+03  0.10136409641E+02 -0.29711472283E+03  0.34089371910E+03  0.12509000000E+03 0.  0.
<mgrwt>
<rscale>  2 0.45299348E+03</rscale>
<asrwt>0</asrwt>
<pdfrwt beam="1">  1       21 0.82014705E-02 0.45299348E+03</pdfrwt>
<pdfrwt beam="2">  1       21 0.13527401E+00 0.45299348E+03</pdfrwt>
<totfact> 0.40755388E+04</totfact>
</mgrwt>
</event>
<event>
 7    0  0.4748297E-002  0.4585629E+03  0.7546771E-02  0.1025199E+00
         21   -1    0    0  502  501  0.00000000000E+00  0.00000000000E+00  0.20892289661E+04  0.20892289661E+04  0.00000000000E+00 0.  1.
         21   -1    0    0  501  502 -0.00000000000E+00 -0.00000000000E+00 -0.25162389182E+02  0.25162389182E+02  0.00000000000E+00 0.  1.
      99926    2    1    2    0    0  0.00000000000E+00  0.13322676296E-14  0.20640665769E+04  0.21143913553E+04  0.45856293935E+03 0.  0.
      99925    2    3    3    0    0 -0.11046125634E+03  0.20559045150E+01  0.14507199325E+04  0.14787440237E+04  0.26436650512E+03 0.  0.
         25    1    4    4    0    0 -0.18264495812E+02 -0.21214639767E+02  0.58483723609E+03  0.59872009618E+03  0.12509000000E+03 0.  0.
         25    1    3    3    0    0  0.11046125634E+03 -0.20559045150E+01  0.61334664442E+03  0.63564733164E+03  0.12509000000E+03 0.  0.
         25    1    4    4    0    0 -0.92196760526E+02  0.23270544282E+02  0.86588269642E+03  0.88002392748E+03  0.12509000000E+03 0.  0.
<mgrwt>
<rscale>  2 0.45856294E+03</rscale>
<asrwt>0</asrwt>
<pdfrwt beam="1">  1       21 0.30723944E+00 0.45856294E+03</pdfrwt>
<pdfrwt beam="2">  1       21 0.37003528E-02 0.45856294E+03</pdfrwt>
<totfact> 0.11606150E+04</totfact>
</mgrwt>
</event>
<event>
 7    0  0.4748297E-002  0.4523189E+03  0.7546771E-02  0.1027033E+00
         21   -1    0    0  502  501  0.00000000000E+00  0.00000000000E+00  0.91861720389E+03  0.91861720389E+03  0.00000000000E+00 0. -1.
         21   -1    0    0  501  502 -0.00000000000E+00 -0.00000000000E+00 -0.55679440862E+02  0.55679440862E+02  0.00000000000E+00 0. -1.
      99926    2    1    2    0    0  0.00000000000E+00  0.00000000000E+00  0.86293776302E+03  0.97429664475E+03  0.45231887990E+03 0.  0.
      99925    2    3    3    0    0  0.73518581534E+02  0.82445275311E+02  0.55335241564E+03  0.62259677175E+03  0.26310765676E+03 0.  0.
         25    1    4    4    0    0  0.25187029255E+02  0.22547034026E+02  0.33745894728E+03  0.36148140254E+03  0.12509000000E+03 0.  0.
         25    1    4    4    0    0  0.48331552279E+02  0.59898241285E+02  0.21589346836E+03  0.26111536920E+03  0.12509000000E+03 0.  0.
         25    1    3    3    0    0 -0.73518581534E+02 -0.82445275311E+02  0.30958534739E+03  0.35169987300E+03  0.12509000000E+03 0.  0.
<mgrwt>
<rscale>  2 0.45231888E+03</rscale>
<asrwt>0</asrwt>
<pdfrwt beam="1">  1       21 0.13509076E+00 0.45231888E+03</pdfrwt>
<pdfrwt beam="2">  1       21 0.81881536E-02 0.45231888E+03</pdfrwt>
<totfact> 0.41025437E+04</totfact>
</mgrwt>
</event>
<event>
 7    0  0.4748297E-002  0.4623869E+03  0.7546771E-02  0.1024091E+00
         21   -1    0    0  502  501  0.00000000000E+00  0.00000000000E+00  0.29003318753E+03  0.29003318753E+03  0.00000000000E+00 0.  1.
         21   -1    0    0  501  502 -0.00000000000E+00 -0.00000000000E+00 -0.18429067996E+03  0.18429067996E+03  0.00000000000E+00 0.  1.
      99926    2    1    2    0    0 -0.88817841970E-15 -0.14210854715E-13  0.10574250757E+03  0.47432386750E+03  0.46238690874E+03 0.  0.
      99925    2    3    3    0    0 -0.67509499867E+01 -0.10304361547E+03  0.36806283326E+01  0.28267915114E+03  0.26311669169E+03 0.  0.
         25    1    4    4    0    0 -0.20543434960E+02 -0.88247479564E+02 -0.12367949095E+02  0.15495200752E+03  0.12509000000E+03 0.  0.
         25    1    4    4    0    0  0.13792484973E+02 -0.14796135905E+02  0.16048577427E+02  0.12772714362E+03  0.12509000000E+03 0.  0.
         25    1    3    3    0    0  0.67509499867E+01  0.10304361547E+03  0.10206187924E+03  0.19164471636E+03  0.12509000000E+03 0.  0.
<mgrwt>
<rscale>  2 0.46238691E+03</rscale>
<asrwt>0</asrwt>
<pdfrwt beam="1">  1       21 0.42651939E-01 0.46238691E+03</pdfrwt>
<pdfrwt beam="2">  1       21 0.27101571E-01 0.46238691E+03</pdfrwt>
<totfact> 0.63322860E+04</totfact>
</mgrwt>
</event>
<event>
 7    0  0.4748297E-002  0.4590783E+03  0.7546771E-02  0.1025049E+00
         21   -1    0    0  502  501  0.00000000000E+00  0.00000000000E+00  0.22510112450E+02  0.22510112450E+02  0.00000000000E+00 0.  1.
         21   -1    0    0  501  502 -0.00000000000E+00 -0.00000000000E+00 -0.23406469895E+04  0.23406469895E+04  0.00000000000E+00 0.  1.
      99926    2    1    2    0    0  0.00000000000E+00  0.00000000000E+00 -0.23181368770E+04  0.23631571019E+04  0.45907832420E+03 0.  0.
      99925    2    3    3    0    0 -0.30442933956E+02 -0.41134724927E+02 -0.91068357528E+03  0.94922954278E+03  0.26281802216E+03 0.  0.
         25    1    3    3    0    0  0.30442933956E+02  0.41134724927E+02 -0.14074533017E+04  0.14139275591E+04  0.12509000000E+03 0.  0.
         25    1    4    4    0    0 -0.35260127134E+02 -0.47087634378E+02 -0.56056465962E+03  0.57735670742E+03  0.12509000000E+03 0.  0.
         25    1    4    4    0    0  0.48171931790E+01  0.59529094514E+01 -0.35011891566E+03  0.37187283536E+03  0.12509000000E+03 0.  0.
<mgrwt>
<rscale>  2 0.45907832E+03</rscale>
<asrwt>0</asrwt>
<pdfrwt beam="1">  1       21 0.33103128E-02 0.45907832E+03</pdfrwt>
<pdfrwt beam="2">  1       21 0.34421257E+00 0.45907832E+03</pdfrwt>
<totfact> 0.83668915E+03</totfact>
</mgrwt>
</event>
<event>
 7    0  0.4748297E-002  0.4511464E+03  0.7546771E-02  0.1027381E+00
         21   -1    0    0  502  501  0.00000000000E+00  0.00000000000E+00  0.32233898087E+03  0.32233898087E+03  0.00000000000E+00 0.  1.
         21   -1    0    0  501  502 -0.00000000000E+00 -0.00000000000E+00 -0.15785640893E+03  0.15785640893E+03  0.00000000000E+00 0.  1.
      99926    2    1    2    0    0  0.00000000000E+00  0.00000000000E+00  0.16448257194E+03  0.48019538979E+03  0.45114642402E+03 0.  0.
      99925    2    3    3    0    0 -0.25068994608E+02  0.10554163210E+03  0.11972286197E+03  0.30867737228E+03  0.26302217754E+03 0.  0.
         25    1    3    3    0    0  0.25068994608E+02 -0.10554163210E+03  0.44759709967E+02  0.17151801752E+03  0.12509000000E+03 0.  0.
         25    1    4    4    0    0 -0.19752203925E+02  0.80832279146E+02  0.97597370218E+02  0.17915569119E+03  0.12509000000E+03 0.  0.
         25    1    4    4    0    0 -0.53167906835E+01  0.24709352952E+02  0.22125491752E+02  0.12952168109E+03  0.12509000000E+03 0.  0.
<mgrwt>
<rscale>  2 0.45114642E+03</rscale>
<asrwt>0</asrwt>
<pdfrwt beam="1">  1       21 0.47402791E-01 0.45114642E+03</pdfrwt>
<pdfrwt beam="2">  1       21 0.23214178E-01 0.45114642E+03</pdfrwt>
<totfact> 0.68765431E+04</totfact>
</mgrwt>
</event>
<event>
 7    0  0.4748297E-002  0.4623129E+03  0.7546771E-02  0.1024113E+00
         21   -1    0    0  502  501  0.00000000000E+00  0.00000000000E+00  0.83512872671E+03  0.83512872671E+03  0.00000000000E+00 0. -1.
         21   -1    0    0  501  502 -0.00000000000E+00 -0.00000000000E+00 -0.63982110356E+02  0.63982110356E+02  0.00000000000E+00 0. -1.
      99926    2    1    2    0    0 -0.35527136788E-14  0.00000000000E+00  0.77114661635E+03  0.89911083706E+03  0.46231287395E+03 0.  0.
      99925    2    3    3    0    0  0.18764208725E+02 -0.92787046889E+02  0.33914055752E+03  0.43950418506E+03  0.26303246821E+03 0.  0.
         25    1    3    3    0    0 -0.18764208725E+02  0.92787046889E+02  0.43200605883E+03  0.45960665200E+03  0.12509000000E+03 0.  0.
         25    1    4    4    0    0  0.67616551580E+01 -0.24146737082E+02  0.10583718298E+03  0.16576429740E+03  0.12509000000E+03 0.  0.
         25    1    4    4    0    0  0.12002553567E+02 -0.68640309807E+02  0.23330337455E+03  0.27373988766E+03  0.12509000000E+03 0.  0.
<mgrwt>
<rscale>  2 0.46231287E+03</rscale>
<asrwt>0</asrwt>
<pdfrwt beam="1">  1       21 0.12281304E+00 0.46231287E+03</pdfrwt>
<pdfrwt beam="2">  1       21 0.94091344E-02 0.46231287E+03</pdfrwt>
<totfact> 0.40880686E+04</totfact>
</mgrwt>
</event>
<event>
 7    0  0.4748297E-002  0.4753685E+03  0.7546771E-02  0.1020416E+00
         21   -1    0    0  502  501  0.00000000000E+00  0.00000000000E+00  0.81871930171E+03  0.81871930171E+03  0.00000000000E+00 0.  1.
         21   -1    0    0  501  502 -0.00000000000E+00 -0.00000000000E+00 -0.69002638134E+02  0.69002638134E+02  0.00000000000E+00 0.  1.
      99926    2    1    2    0    0  0.00000000000E+00  0.00000000000E+00  0.74971666357E+03  0.88772193984E+03  0.47536845376E+03 0.  0.
      99925    2    3    3    0    0  0.12016888076E+03 -0.34166542427E+02  0.53800946298E+03  0.61190432001E+03  0.26337198422E+03 0.  0.
         25    1    4    4    0    0  0.26800207507E+02 -0.43033819769E+02  0.23849341392E+03  0.27403791225E+03  0.12509000000E+03 0.  0.
         25    1    4    4    0    0  0.93368673249E+02  0.88672773420E+01  0.29951604907E+03  0.33786640777E+03  0.12509000000E+03 0.  0.
         25    1    3    3    0    0 -0.12016888076E+03  0.34166542427E+02  0.21170720059E+03  0.27581761982E+03  0.12509000000E+03 0.  0.
<mgrwt>
<rscale>  2 0.47536845E+03</rscale>
<asrwt>0</asrwt>
<pdfrwt beam="1">  1       21 0.12039989E+00 0.47536845E+03</pdfrwt>
<pdfrwt beam="2">  1       21 0.10147447E-01 0.47536845E+03</pdfrwt>
<totfact> 0.37431381E+04</totfact>
</mgrwt>
</event>
<event>
 7    0  0.4748297E-002  0.4192102E+03  0.7546771E-02  0.1037324E+00
         21   -1    0    0  502  501  0.00000000000E+00  0.00000000000E+00  0.42178336332E+02  0.42178336332E+02  0.00000000000E+00 0.  1.
         21   -1    0    0  501  502 -0.00000000000E+00 -0.00000000000E+00 -0.10416317773E+04  0.10416317773E+04  0.00000000000E+00 0.  1.
      99926    2    1    2    0    0  0.00000000000E+00  0.17763568394E-14 -0.99945344097E+03  0.10838101136E+04  0.41921018803E+03 0.  0.
      99925    2    3    3    0    0  0.47482279796E+02  0.10869405819E+02 -0.79896639597E+03  0.84253169729E+03  0.26294419214E+03 0.  0.
         25    1    4    4    0    0  0.27325062548E+02  0.44827038763E+02 -0.43395968311E+03  0.45466981108E+03  0.12509000000E+03 0.  0.
         25    1    4    4    0    0  0.20157217248E+02 -0.33957632944E+02 -0.36500671286E+03  0.38786188621E+03  0.12509000000E+03 0.  0.
         25    1    3    3    0    0 -0.47482279796E+02 -0.10869405819E+02 -0.20048704500E+03  0.24127841634E+03  0.12509000000E+03 0.  0.
<mgrwt>
<rscale>  2 0.41921019E+03</rscale>
<asrwt>0</asrwt>
<pdfrwt beam="1">  1       21 0.62026966E-02 0.41921019E+03</pdfrwt>
<pdfrwt beam="2">  1       21 0.15318114E+00 0.41921019E+03</pdfrwt>
<totfact> 0.48170677E+04</totfact>
</mgrwt>
</event>
<event>
 7    0  0.4748297E-002  0.4590055E+03  0.7546771E-02  0.1025070E+00
         21   -1    0    0  502  501  0.00000000000E+00  0.00000000000E+00  0.62416792698E+02  0.62416792698E+02  0.00000000000E+00 0. -1.
         21   -1    0    0  501  502 -0.00000000000E+00 -0.00000000000E+00 -0.84386770007E+03  0.84386770007E+03  0.00000000000E+00 0. -1.
      99926    2    1    2    0    0  0.00000000000E+00  0.00000000000E+00 -0.78145090737E+03  0.90628449277E+03  0.45900551325E+03 0.  0.
      99925    2    3    3    0    0  0.77766166079E+02  0.38342879343E+02 -0.64477020721E+03  0.70171940562E+03  0.26299002098E+03 0.  0.
         25    1    3    3    0    0 -0.77766166079E+02 -0.38342879343E+02 -0.13668070016E+03  0.20456508715E+03  0.12509000000E+03 0.  0.
         25    1    4    4    0    0  0.35420629270E+02  0.55852932358E+02 -0.37604108576E+03  0.40178175333E+03  0.12509000000E+03 0.  0.
         25    1    4    4    0    0  0.42345536809E+02 -0.17510053016E+02 -0.26872912145E+03  0.29993765229E+03  0.12509000000E+03 0.  0.
<mgrwt>
<rscale>  2 0.45900551E+03</rscale>
<asrwt>0</asrwt>
<pdfrwt beam="1">  1       21 0.91789397E-02 0.45900551E+03</pdfrwt>
<pdfrwt beam="2">  1       21 0.12409820E+00 0.45900551E+03</pdfrwt>
<totfact> 0.41641843E+04</totfact>
</mgrwt>
</event>
<event>
 7    0  0.4748297E-002  0.4604691E+03  0.7546771E-02  0.1024645E+00
         21   -1    0    0  502  501  0.00000000000E+00  0.00000000000E+00  0.18422307658E+04  0.18422307658E+04  0.00000000000E+00 0. -1.
         21   -1    0    0  501  502 -0.00000000000E+00 -0.00000000000E+00 -0.28773780087E+02  0.28773780087E+02  0.00000000000E+00 0. -1.
      99926    2    1    2    0    0  0.00000000000E+00  0.00000000000E+00  0.18134569857E+04  0.18710045458E+04  0.46046907789E+03 0.  0.
      99925    2    3    3    0    0 -0.72339375699E+02 -0.90875215860E+02  0.12247533682E+04  0.12580520620E+04  0.26302640103E+03 0.  0.
         25    1    4    4    0    0 -0.53617069540E+02 -0.10955774125E+02  0.52321606597E+03  0.54073780978E+03  0.12509000000E+03 0.  0.
         25    1    3    3    0    0  0.72339375699E+02  0.90875215860E+02  0.58870361743E+03  0.61295248381E+03  0.12509000000E+03 0.  0.
         25    1    4    4    0    0 -0.18722306159E+02 -0.79919441735E+02  0.70153730226E+03  0.71731425225E+03  0.12509000000E+03 0.  0.
<mgrwt>
<rscale>  2 0.46046908E+03</rscale>
<asrwt>0</asrwt>
<pdfrwt beam="1">  1       21 0.27091621E+00 0.46046908E+03</pdfrwt>
<pdfrwt beam="2">  1       21 0.42314395E-02 0.46046908E+03</pdfrwt>
<totfact> 0.15273816E+04</totfact>
</mgrwt>
</event>
<event>
 7    0  0.4748297E-002  0.4577654E+03  0.7546771E-02  0.1025431E+00
         21   -1    0    0  502  501  0.00000000000E+00  0.00000000000E+00  0.10970198955E+03  0.10970198955E+03  0.00000000000E+00 0. -1.
         21   -1    0    0  501  502 -0.00000000000E+00 -0.00000000000E+00 -0.47754176831E+03  0.47754176831E+03  0.00000000000E+00 0. -1.
      99926    2    1    2    0    0  0.00000000000E+00  0.00000000000E+00 -0.36783977876E+03  0.58724375786E+03  0.45776536381E+03 0.  0.
      99925    2    3    3    0    0 -0.44075662977E+02  0.94372433027E+02 -0.29571020581E+03  0.40920161797E+03  0.26296885394E+03 0.  0.
         25    1    3    3    0    0  0.44075662977E+02 -0.94372433027E+02 -0.72129572947E+02  0.17804213989E+03  0.12509000000E+03 0.  0.
         25    1    4    4    0    0 -0.60607351522E+02  0.49081940079E+02 -0.13467164068E+03  0.19966533701E+03  0.12509000000E+03 0.  0.
         25    1    4    4    0    0  0.16531688544E+02  0.45290492948E+02 -0.16103856514E+03  0.20953628096E+03  0.12509000000E+03 0.  0.
<mgrwt>
<rscale>  2 0.45776536E+03</rscale>
<asrwt>0</asrwt>
<pdfrwt beam="1">  1       21 0.16132645E-01 0.45776536E+03</pdfrwt>
<pdfrwt beam="2">  1       21 0.70226732E-01 0.45776536E+03</pdfrwt>
<totfact> 0.58188052E+04</totfact>
</mgrwt>
</event>
<event>
 7    0  0.4748297E-002  0.4532191E+03  0.7546771E-02  0.1026766E+00
         21   -1    0    0  502  501  0.00000000000E+00  0.00000000000E+00  0.40149069097E+02  0.40149069097E+02  0.00000000000E+00 0. -1.
         21   -1    0    0  501  502 -0.00000000000E+00 -0.00000000000E+00 -0.12790308511E+04  0.12790308511E+04  0.00000000000E+00 0. -1.
      99926    2    1    2    0    0  0.00000000000E+00  0.00000000000E+00 -0.12388817820E+04  0.13191799202E+04  0.45321914354E+03 0.  0.
      99925    2    3    3    0    0 -0.37586528696E+02 -0.61560421184E+02 -0.10271992034E+04  0.10629389110E+04  0.26362566744E+03 0.  0.
         25    1    4    4    0    0 -0.62880285240E+01 -0.92868833249E+01 -0.62093077740E+03  0.63350479393E+03  0.12509000000E+03 0.  0.
         25    1    3    3    0    0  0.37586528696E+02  0.61560421184E+02 -0.21168257867E+03  0.25624100922E+03  0.12509000000E+03 0.  0.
         25    1    4    4    0    0 -0.31298500172E+02 -0.52273537859E+02 -0.40626842595E+03  0.42943411706E+03  0.12509000000E+03 0.  0.
<mgrwt>
<rscale>  2 0.45321914E+03</rscale>
<asrwt>0</asrwt>
<pdfrwt beam="1">  1       21 0.59042756E-02 0.45321914E+03</pdfrwt>
<pdfrwt beam="2">  1       21 0.18809275E+00 0.45321914E+03</pdfrwt>
<totfact> 0.28961724E+04</totfact>
</mgrwt>
</event>
<event>
 7    0  0.4748297E-002  0.3927247E+03  0.7546771E-02  0.1046328E+00
         21   -1    0    0  502  501  0.00000000000E+00  0.00000000000E+00  0.56208407293E+02  0.56208407293E+02  0.00000000000E+00 0. -1.
         21   -1    0    0  501  502 -0.00000000000E+00 -0.00000000000E+00 -0.68598579685E+03  0.68598579685E+03  0.00000000000E+00 0. -1.
      99926    2    1    2    0    0  0.00000000000E+00 -0.53290705182E-14 -0.62977738956E+03  0.74219420415E+03  0.39272468253E+03 0.  0.
      99925    2    3    3    0    0  0.16891759093E+02  0.59235570718E+01 -0.38283172995E+03  0.46479541728E+03  0.26297191184E+03 0.  0.
         25    1    4    4    0    0  0.74922187799E+01  0.43461334434E+02 -0.19406623558E+03  0.23506218927E+03  0.12509000000E+03 0.  0.
         25    1    4    4    0    0  0.93995403135E+01 -0.37537777362E+02 -0.18876549437E+03  0.22973322801E+03  0.12509000000E+03 0.  0.
         25    1    3    3    0    0 -0.16891759093E+02 -0.59235570718E+01 -0.24694565961E+03  0.27739878687E+03  0.12509000000E+03 0.  0.
<mgrwt>
<rscale>  2 0.39272468E+03</rscale>
<asrwt>0</asrwt>
<pdfrwt beam="1">  1       21 0.82659425E-02 0.39272468E+03</pdfrwt>
<pdfrwt beam="2">  1       21 0.10088026E+00 0.39272468E+03</pdfrwt>
<totfact> 0.85412901E+04</totfact>
</mgrwt>
</event>
<event>
 7    0  0.4748297E-002  0.4566541E+03  0.7546771E-02  0.1025756E+00
         21   -1    0    0  502  501  0.00000000000E+00  0.00000000000E+00  0.11299260039E+03  0.11299260039E+03  0.00000000000E+00 0.  1.
         21   -1    0    0  501  502 -0.00000000000E+00 -0.00000000000E+00 -0.46138625858E+03  0.46138625858E+03  0.00000000000E+00 0.  1.
      99926    2    1    2    0    0  0.71054273576E-14  0.00000000000E+00 -0.34839365819E+03  0.57437885898E+03  0.45665406226E+03 0.  0.
      99925    2    3    3    0    0  0.56832658887E+02  0.65951181911E+02 -0.31300582085E+03  0.41792018506E+03  0.26287854170E+03 0.  0.
         25    1    3    3    0    0 -0.56832658887E+02 -0.65951181911E+02 -0.35387837336E+02  0.15645867391E+03  0.12509000000E+03 0.  0.
         25    1    4    4    0    0  0.53686772023E+02  0.30548185017E+02 -0.20956741803E+03  0.25175677131E+03  0.12509000000E+03 0.  0.
         25    1    4    4    0    0  0.31458868645E+01  0.35402996895E+02 -0.10343840282E+03  0.16616341376E+03  0.12509000000E+03 0.  0.
<mgrwt>
<rscale>  2 0.45665406E+03</rscale>
<asrwt>0</asrwt>
<pdfrwt beam="1">  1       21 0.16616559E-01 0.45665406E+03</pdfrwt>
<pdfrwt beam="2">  1       21 0.67850919E-01 0.45665406E+03</pdfrwt>
<totfact> 0.59501674E+04</totfact>
</mgrwt>
</event>
<event>
 7    0  0.4748297E-002  0.4570973E+03  0.7546771E-02  0.1025626E+00
         21   -1    0    0  502  501  0.00000000000E+00  0.00000000000E+00  0.82502447426E+02  0.82502447426E+02  0.00000000000E+00 0.  1.
         21   -1    0    0  501  502 -0.00000000000E+00 -0.00000000000E+00 -0.63312647106E+03  0.63312647106E+03  0.00000000000E+00 0.  1.
      99926    2    1    2    0    0 -0.71054273576E-14  0.00000000000E+00 -0.55062402363E+03  0.71562891849E+03  0.45709729114E+03 0.  0.
      99925    2    3    3    0    0  0.35978798811E+02  0.10130172973E+03 -0.40730635461E+03  0.49712496711E+03  0.26396638425E+03 0.  0.
         25    1    4    4    0    0  0.58212250146E+02  0.45639447054E+02 -0.22899610257E+03  0.27121642333E+03  0.12509000000E+03 0.  0.
         25    1    4    4    0    0 -0.22233451334E+02  0.55662282675E+02 -0.17831025204E+03  0.22590854378E+03  0.12509000000E+03 0.  0.
         25    1    3    3    0    0 -0.35978798811E+02 -0.10130172973E+03 -0.14331766902E+03  0.21850395137E+03  0.12509000000E+03 0.  0.
<mgrwt>
<rscale>  2 0.45709729E+03</rscale>
<asrwt>0</asrwt>
<pdfrwt beam="1">  1       21 0.12132712E-01 0.45709729E+03</pdfrwt>
<pdfrwt beam="2">  1       21 0.93106837E-01 0.45709729E+03</pdfrwt>
<totfact> 0.51212470E+04</totfact>
</mgrwt>
</event>
<event>
 7    0  0.4748297E-002  0.4770009E+03  0.7546771E-02  0.1019963E+00
         21   -1    0    0  502  501  0.00000000000E+00  0.00000000000E+00  0.41283461009E+02  0.41283461009E+02  0.00000000000E+00 0.  1.
         21   -1    0    0  501  502 -0.00000000000E+00 -0.00000000000E+00 -0.13778513542E+04  0.13778513542E+04  0.00000000000E+00 0.  1.
      99926    2    1    2    0    0  0.00000000000E+00 -0.71054273576E-14 -0.13365678932E+04  0.14191348152E+04  0.47700093358E+03 0.  0.
      99925    2    3    3    0    0  0.12602480610E+03  0.40217532566E+02 -0.79043506391E+03  0.84345410770E+03  0.26292116663E+03 0.  0.
         25    1    4    4    0    0  0.35877673844E+02  0.30191900617E+02 -0.45374812773E+03  0.47300489412E+03  0.12509000000E+03 0.  0.
         25    1    3    3    0    0 -0.12602480610E+03 -0.40217532566E+02 -0.54613282931E+03  0.57568070753E+03  0.12509000000E+03 0.  0.
         25    1    4    4    0    0  0.90147132253E+02  0.10025631949E+02 -0.33668693618E+03  0.37044921358E+03  0.12509000000E+03 0.  0.
<mgrwt>
<rscale>  2 0.47700093E+03</rscale>
<asrwt>0</asrwt>
<pdfrwt beam="1">  1       21 0.60710977E-02 0.47700093E+03</pdfrwt>
<pdfrwt beam="2">  1       21 0.20262518E+00 0.47700093E+03</pdfrwt>
<totfact> 0.21846197E+04</totfact>
</mgrwt>
</event>
<event>
 7    0  0.4748297E-002  0.4523053E+03  0.7546771E-02  0.1027037E+00
         21   -1    0    0  502  501  0.00000000000E+00  0.00000000000E+00  0.33551703668E+04  0.33551703668E+04  0.00000000000E+00 0. -1.
         21   -1    0    0  501  502 -0.00000000000E+00 -0.00000000000E+00 -0.15243646269E+02  0.15243646269E+02  0.00000000000E+00 0. -1.
      99926    2    1    2    0    0  0.00000000000E+00  0.00000000000E+00  0.33399267206E+04  0.33704140131E+04  0.45230534042E+03 0.  0.
      99925    2    3    3    0    0 -0.89085714560E+02  0.50356888004E+02  0.24209213682E+04  0.24373060737E+04  0.26292307891E+03 0.  0.
         25    1    3    3    0    0  0.89085714560E+02 -0.50356888004E+02  0.91900535239E+03  0.93310793938E+03  0.12509000000E+03 0.  0.
         25    1    4    4    0    0 -0.82663371800E+02  0.95171795839E+01  0.12496245177E+04  0.12586233564E+04  0.12509000000E+03 0.  0.
         25    1    4    4    0    0 -0.64223427599E+01  0.40839708420E+02  0.11712968504E+04  0.11786827174E+04  0.12509000000E+03 0.  0.
<mgrwt>
<rscale>  2 0.45230534E+03</rscale>
<asrwt>0</asrwt>
<pdfrwt beam="1">  1       21 0.49340690E+00 0.45230534E+03</pdfrwt>
<pdfrwt beam="2">  1       21 0.22417150E-02 0.45230534E+03</pdfrwt>
<totfact> 0.16930546E+03</totfact>
</mgrwt>
</event>
<event>
 7    0  0.4748297E-002  0.4536023E+03  0.7546771E-02  0.1026653E+00
         21   -1    0    0  502  501  0.00000000000E+00  0.00000000000E+00  0.19762172470E+03  0.19762172470E+03  0.00000000000E+00 0. -1.
         21   -1    0    0  501  502 -0.00000000000E+00 -0.00000000000E+00 -0.26028905036E+03  0.26028905036E+03  0.00000000000E+00 0. -1.
      99926    2    1    2    0    0  0.00000000000E+00  0.00000000000E+00 -0.62667325665E+02  0.45791077506E+03  0.45360234150E+03 0.  0.
      99925    2    3    3    0    0 -0.76570408082E+02  0.73280943145E+02 -0.35674235010E+01  0.28363102707E+03  0.26306027634E+03 0.  0.
         25    1    3    3    0    0  0.76570408082E+02 -0.73280943145E+02 -0.59099902164E+02  0.17427974799E+03  0.12509000000E+03 0.  0.
         25    1    4    4    0    0 -0.14942029483E+02  0.46935099055E+02  0.30124514038E+02  0.13777213875E+03  0.12509000000E+03 0.  0.
         25    1    4    4    0    0 -0.61628378599E+02  0.26345844090E+02 -0.33691937539E+02  0.14585888833E+03  0.12509000000E+03 0.  0.
<mgrwt>
<rscale>  2 0.45360234E+03</rscale>
<asrwt>0</asrwt>
<pdfrwt beam="1">  1       21 0.29062019E-01 0.45360234E+03</pdfrwt>
<pdfrwt beam="2">  1       21 0.38277801E-01 0.45360234E+03</pdfrwt>
<totfact> 0.69100082E+04</totfact>
</mgrwt>
</event>
<event>
 7    0  0.4748297E-002  0.4154200E+03  0.7546771E-02  0.1038567E+00
         21   -1    0    0  502  501  0.00000000000E+00  0.00000000000E+00  0.86647349472E+02  0.86647349472E+02  0.00000000000E+00 0.  1.
         21   -1    0    0  501  502 -0.00000000000E+00 -0.00000000000E+00 -0.49792003860E+03  0.49792003860E+03  0.00000000000E+00 0.  1.
      99926    2    1    2    0    0  0.00000000000E+00 -0.35527136788E-14 -0.41127268913E+03  0.58456738807E+03  0.41542003608E+03 0.  0.
      99925    2    3    3    0    0 -0.45105228509E+02 -0.18957188910E+02 -0.19892842583E+03  0.33330766009E+03  0.26292132097E+03 0.  0.
         25    1    3    3    0    0  0.45105228509E+02  0.18957188910E+02 -0.21234426330E+03  0.25125972798E+03  0.12509000000E+03 0.  0.
         25    1    4    4    0    0 -0.19456488183E+02 -0.29012831619E+02 -0.56148396473E+02  0.14149363893E+03  0.12509000000E+03 0.  0.
         25    1    4    4    0    0 -0.25648740326E+02  0.10055642708E+02 -0.14278002936E+03  0.19181402116E+03  0.12509000000E+03 0.  0.
<mgrwt>
<rscale>  2 0.41542004E+03</rscale>
<asrwt>0</asrwt>
<pdfrwt beam="1">  1       21 0.12742258E-01 0.41542004E+03</pdfrwt>
<pdfrwt beam="2">  1       21 0.73223534E-01 0.41542004E+03</pdfrwt>
<totfact> 0.82599747E+04</totfact>
</mgrwt>
</event>
<event>
 7    0  0.4748297E-002  0.4566646E+03  0.7546771E-02  0.1025753E+00
         21   -1    0    0  502  501  0.00000000000E+00  0.00000000000E+00  0.83441243308E+03  0.83441243308E+03  0.00000000000E+00 0.  1.
         21   -1    0    0  501  502 -0.00000000000E+00 -0.00000000000E+00 -0.62481869977E+02  0.62481869977E+02  0.00000000000E+00 0.  1.
      99926    2    1    2    0    0  0.00000000000E+00  0.00000000000E+00  0.77193056310E+03  0.89689430305E+03  0.45666464348E+03 0.  0.
      99925    2    3    3    0    0  0.14384575856E+02 -0.48049982839E+02  0.28260404870E+03  0.38934759322E+03  0.26307942361E+03 0.  0.
         25    1    3    3    0    0 -0.14384575856E+02  0.48049982839E+02  0.48932651440E+03  0.50754670984E+03  0.12509000000E+03 0.  0.
         25    1    4    4    0    0  0.22328427050E+02  0.58855123368E+01  0.17065885568E+03  0.21285006702E+03  0.12509000000E+03 0.  0.
         25    1    4    4    0    0 -0.79438511941E+01 -0.53935495176E+02  0.11194519302E+03  0.17649752619E+03  0.12509000000E+03 0.  0.
<mgrwt>
<rscale>  2 0.45666464E+03</rscale>
<asrwt>0</asrwt>
<pdfrwt beam="1">  1       21 0.12270770E+00 0.45666464E+03</pdfrwt>
<pdfrwt beam="2">  1       21 0.91885108E-02 0.45666464E+03</pdfrwt>
<totfact> 0.42807553E+04</totfact>
</mgrwt>
</event>
<event>
 7    0  0.4748297E-002  0.4580321E+03  0.7546771E-02  0.1025354E+00
         21   -1    0    0  502  501  0.00000000000E+00  0.00000000000E+00  0.91801663200E+03  0.91801663200E+03  0.00000000000E+00 0.  1.
         21   -1    0    0  501  502 -0.00000000000E+00 -0.00000000000E+00 -0.57132238435E+02  0.57132238435E+02  0.00000000000E+00 0.  1.
      99926    2    1    2    0    0  0.00000000000E+00  0.00000000000E+00  0.86088439356E+03  0.97514887043E+03  0.45803207358E+03 0.  0.
      99925    2    3    3    0    0  0.96905332972E+02  0.52362543645E+02  0.61701679011E+03  0.67976539823E+03  0.26313266202E+03 0.  0.
         25    1    4    4    0    0  0.42295668054E+02  0.14566394427E+02  0.39188731334E+03  0.41379255411E+03  0.12509000000E+03 0.  0.
         25    1    4    4    0    0  0.54609664918E+02  0.37796149219E+02  0.22512947677E+03  0.26597284412E+03  0.12509000000E+03 0.  0.
         25    1    3    3    0    0 -0.96905332972E+02 -0.52362543645E+02  0.24386760345E+03  0.29538347220E+03  0.12509000000E+03 0.  0.
<mgrwt>
<rscale>  2 0.45803207E+03</rscale>
<asrwt>0</asrwt>
<pdfrwt beam="1">  1       21 0.13500244E+00 0.45803207E+03</pdfrwt>
<pdfrwt beam="2">  1       21 0.84018003E-02 0.45803207E+03</pdfrwt>
<totfact> 0.39201370E+04</totfact>
</mgrwt>
</event>
<event>
 7    0  0.4748297E-002  0.4275511E+03  0.7546771E-02  0.1034636E+00
         21   -1    0    0  502  501  0.00000000000E+00  0.00000000000E+00  0.60186592498E+02  0.60186592498E+02  0.00000000000E+00 0. -1.
         21   -1    0    0  501  502 -0.00000000000E+00 -0.00000000000E+00 -0.75930515405E+03  0.75930515405E+03  0.00000000000E+00 0. -1.
      99926    2    1    2    0    0  0.00000000000E+00  0.35527136788E-14 -0.69911856156E+03  0.81949174655E+03  0.42755111923E+03 0.  0.
      99925    2    3    3    0    0  0.67449968574E+02 -0.18476735097E+02 -0.35970827737E+03  0.45106571990E+03  0.26301967771E+03 0.  0.
         25    1    4    4    0    0  0.21294204187E+01 -0.31371352968E+02 -0.19488378212E+03  0.23370043400E+03  0.12509000000E+03 0.  0.
         25    1    3    3    0    0 -0.67449968574E+02  0.18476735097E+02 -0.33941028419E+03  0.36842602665E+03  0.12509000000E+03 0.  0.
         25    1    4    4    0    0  0.65320548155E+02  0.12894617871E+02 -0.16482449525E+03  0.21736528590E+03  0.12509000000E+03 0.  0.
<mgrwt>
<rscale>  2 0.42755112E+03</rscale>
<asrwt>0</asrwt>
<pdfrwt beam="1">  1       21 0.88509694E-02 0.42755112E+03</pdfrwt>
<pdfrwt beam="2">  1       21 0.11166252E+00 0.42755112E+03</pdfrwt>
<totfact> 0.58443292E+04</totfact>
</mgrwt>
</event>
<event>
 7    0  0.4748297E-002  0.4140377E+03  0.7546771E-02  0.1039024E+00
         21   -1    0    0  502  501  0.00000000000E+00  0.00000000000E+00  0.38657523837E+02  0.38657523837E+02  0.00000000000E+00 0. -1.
         21   -1    0    0  501  502 -0.00000000000E+00 -0.00000000000E+00 -0.11086277744E+04  0.11086277744E+04  0.00000000000E+00 0. -1.
      99926    2    1    2    0    0  0.71054273576E-14  0.00000000000E+00 -0.10699702506E+04  0.11472852982E+04  0.41403770174E+03 0.  0.
      99925    2    3    3    0    0 -0.49582697584E+02 -0.40604799413E+02 -0.63721333316E+03  0.69227623097E+03  0.26286565842E+03 0.  0.
         25    1    3    3    0    0  0.49582697584E+02  0.40604799413E+02 -0.43275691741E+03  0.45500906727E+03  0.12509000000E+03 0.  0.
         25    1    4    4    0    0 -0.10722729035E+02  0.17181497242E+02 -0.27482377360E+03  0.30263145144E+03  0.12509000000E+03 0.  0.
         25    1    4    4    0    0 -0.38859968550E+02 -0.57786296655E+02 -0.36238955955E+03  0.38964477952E+03  0.12509000000E+03 0.  0.
<mgrwt>
<rscale>  2 0.41403770E+03</rscale>
<asrwt>0</asrwt>
<pdfrwt beam="1">  1       21 0.56849309E-02 0.41403770E+03</pdfrwt>
<pdfrwt beam="2">  1       21 0.16303347E+00 0.41403770E+03</pdfrwt>
<totfact> 0.47247028E+04</totfact>
</mgrwt>
</event>
<event>
 7    0  0.4748297E-002  0.4575790E+03  0.7546771E-02  0.1025486E+00
         21   -1    0    0  502  501  0.00000000000E+00  0.00000000000E+00  0.73424326183E+03  0.73424326183E+03  0.00000000000E+00 0. -1.
         21   -1    0    0  501  502 -0.00000000000E+00 -0.00000000000E+00 -0.71290604383E+02  0.71290604383E+02  0.00000000000E+00 0. -1.
      99926    2    1    2    0    0  0.00000000000E+00 -0.35527136788E-14  0.66295265744E+03  0.80553386621E+03  0.45757904629E+03 0.  0.
      99925    2    3    3    0    0 -0.48923532200E+01 -0.16262435229E+02  0.61751338440E+03  0.67136741156E+03  0.26291257001E+03 0.  0.
         25    1    4    4    0    0 -0.24031148198E+01 -0.36611335914E+02  0.38607817926E+03  0.40749237230E+03  0.12509000000E+03 0.  0.
         25    1    3    3    0    0  0.48923532200E+01  0.16262435229E+02  0.45439273044E+02  0.13416645465E+03  0.12509000000E+03 0.  0.
         25    1    4    4    0    0 -0.24892384002E+01  0.20348900685E+02  0.23143520514E+03  0.26387503926E+03  0.12509000000E+03 0.  0.
<mgrwt>
<rscale>  2 0.45757905E+03</rscale>
<asrwt>0</asrwt>
<pdfrwt beam="1">  1       21 0.10797695E+00 0.45757905E+03</pdfrwt>
<pdfrwt beam="2">  1       21 0.10483913E-01 0.45757905E+03</pdfrwt>
<totfact> 0.46549026E+04</totfact>
</mgrwt>
</event>
<event>
 7    0  0.4748297E-002  0.4533222E+03  0.7546771E-02  0.1026736E+00
         21   -1    0    0  502  501  0.00000000000E+00  0.00000000000E+00  0.72058973199E+02  0.72058973199E+02  0.00000000000E+00 0.  1.
         21   -1    0    0  501  502 -0.00000000000E+00 -0.00000000000E+00 -0.71296120212E+03  0.71296120212E+03  0.00000000000E+00 0.  1.
      99926    2    1    2    0    0  0.00000000000E+00  0.17763568394E-14 -0.64090222892E+03  0.78502017532E+03  0.45332219075E+03 0.  0.
      99925    2    3    3    0    0 -0.75414880778E+02 -0.13281732310E+02 -0.54456760002E+03  0.60954460015E+03  0.26292002572E+03 0.  0.
         25    1    4    4    0    0  0.40905976321E+01 -0.16812515753E+01 -0.25070872783E+03  0.28021765452E+03  0.12509000000E+03 0.  0.
         25    1    4    4    0    0 -0.79505478410E+02 -0.11600480734E+02 -0.29385887219E+03  0.32932694563E+03  0.12509000000E+03 0.  0.
         25    1    3    3    0    0  0.75414880778E+02  0.13281732310E+02 -0.96334628898E+02  0.17547557517E+03  0.12509000000E+03 0.  0.
<mgrwt>
<rscale>  2 0.45332219E+03</rscale>
<asrwt>0</asrwt>
<pdfrwt beam="1">  1       21 0.10596908E-01 0.45332219E+03</pdfrwt>
<pdfrwt beam="2">  1       21 0.10484724E+00 0.45332219E+03</pdfrwt>
<totfact> 0.49141886E+04</totfact>
</mgrwt>
</event>
<event>
 7    0  0.4748297E-002  0.4515026E+03  0.7546771E-02  0.1027275E+00
         21   -1    0    0  502  501  0.00000000000E+00  0.00000000000E+00  0.33163066382E+03  0.33163066382E+03  0.00000000000E+00 0. -1.
         21   -1    0    0  501  502 -0.00000000000E+00 -0.00000000000E+00 -0.15367592965E+03  0.15367592965E+03  0.00000000000E+00 0. -1.
      99926    2    1    2    0    0 -0.14210854715E-13 -0.71054273576E-14  0.17795473417E+03  0.48530659347E+03  0.45150260492E+03 0.  0.
      99925    2    3    3    0    0 -0.73217676855E+02 -0.36564456362E+02  0.19118308867E+03  0.33523899158E+03  0.26293805432E+03 0.  0.
         25    1    4    4    0    0 -0.40675226938E+02  0.25495117289E+01  0.13639790762E+03  0.18950691650E+03  0.12509000000E+03 0.  0.
         25    1    4    4    0    0 -0.32542449917E+02 -0.39113968091E+02  0.54785181049E+02  0.14573207509E+03  0.12509000000E+03 0.  0.
         25    1    3    3    0    0  0.73217676855E+02  0.36564456362E+02 -0.13228354505E+02  0.15006760189E+03  0.12509000000E+03 0.  0.
<mgrwt>
<rscale>  2 0.45150260E+03</rscale>
<asrwt>0</asrwt>
<pdfrwt beam="1">  1       21 0.48769215E-01 0.45150260E+03</pdfrwt>
<pdfrwt beam="2">  1       21 0.22599401E-01 0.45150260E+03</pdfrwt>
<totfact> 0.68189463E+04</totfact>
</mgrwt>
</event>
<event>
 7    0  0.4748297E-002  0.4526896E+03  0.7546771E-02  0.1026923E+00
         21   -1    0    0  502  501  0.00000000000E+00  0.00000000000E+00  0.35979367842E+03  0.35979367842E+03  0.00000000000E+00 0.  1.
         21   -1    0    0  501  502 -0.00000000000E+00 -0.00000000000E+00 -0.14239262958E+03  0.14239262958E+03  0.00000000000E+00 0.  1.
      99926    2    1    2    0    0  0.00000000000E+00  0.00000000000E+00  0.21740104884E+03  0.50218630800E+03  0.45268959775E+03 0.  0.
      99925    2    3    3    0    0 -0.20336891129E+02  0.96128806058E+02  0.19446294434E+03  0.34147538357E+03  0.26293585599E+03 0.  0.
         25    1    3    3    0    0  0.20336891129E+02 -0.96128806058E+02  0.22938104500E+02  0.16071092444E+03  0.12509000000E+03 0.  0.
         25    1    4    4    0    0 -0.23225075550E+02  0.49013969155E+02  0.14470000364E+03  0.19881492011E+03  0.12509000000E+03 0.  0.
         25    1    4    4    0    0  0.28881844214E+01  0.47114836902E+02  0.49762940697E+02  0.14266046345E+03  0.12509000000E+03 0.  0.
<mgrwt>
<rscale>  2 0.45268960E+03</rscale>
<asrwt>0</asrwt>
<pdfrwt beam="1">  1       21 0.52910835E-01 0.45268960E+03</pdfrwt>
<pdfrwt beam="2">  1       21 0.20940093E-01 0.45268960E+03</pdfrwt>
<totfact> 0.66325354E+04</totfact>
</mgrwt>
</event>
<event>
 7    0  0.4748297E-002  0.4576260E+03  0.7546771E-02  0.1025472E+00
         21   -1    0    0  502  501  0.00000000000E+00  0.00000000000E+00  0.16059969218E+03  0.16059969218E+03  0.00000000000E+00 0. -1.
         21   -1    0    0  501  502 -0.00000000000E+00 -0.00000000000E+00 -0.32599933267E+03  0.32599933267E+03  0.00000000000E+00 0. -1.
      99926    2    1    2    0    0  0.00000000000E+00  0.00000000000E+00 -0.16539964049E+03  0.48659902484E+03  0.45762601533E+03 0.  0.
      99925    2    3    3    0    0 -0.22483057780E+02 -0.13702706682E+02 -0.22351701220E+03  0.34617684337E+03  0.26303098693E+03 0.  0.
         25    1    3    3    0    0  0.22483057780E+02  0.13702706682E+02  0.58117371704E+02  0.14042218148E+03  0.12509000000E+03 0.  0.
         25    1    4    4    0    0  0.27929232395E+01 -0.18565126978E+02 -0.15875086674E+03  0.20298229024E+03  0.12509000000E+03 0.  0.
         25    1    4    4    0    0 -0.25275981020E+02  0.48624202957E+01 -0.64766145451E+02  0.14319455312E+03  0.12509000000E+03 0.  0.
<mgrwt>
<rscale>  2 0.45762602E+03</rscale>
<asrwt>0</asrwt>
<pdfrwt beam="1">  1       21 0.23617602E-01 0.45762602E+03</pdfrwt>
<pdfrwt beam="2">  1       21 0.47941078E-01 0.45762602E+03</pdfrwt>
<totfact> 0.64860117E+04</totfact>
</mgrwt>
</event>
<event>
 7    0  0.4748297E-002  0.4564013E+03  0.7546771E-02  0.1025830E+00
         21   -1    0    0  502  501  0.00000000000E+00  0.00000000000E+00  0.11054134459E+03  0.11054134459E+03  0.00000000000E+00 0.  1.
         21   -1    0    0  501  502 -0.00000000000E+00 -0.00000000000E+00 -0.47109562671E+03  0.47109562671E+03  0.00000000000E+00 0.  1.
      99926    2    1    2    0    0  0.00000000000E+00  0.00000000000E+00 -0.36055428212E+03  0.58163697130E+03  0.45640133220E+03 0.  0.
      99925    2    3    3    0    0 -0.55374414492E+02 -0.98513755893E+02 -0.20313247414E+03  0.35098480979E+03  0.26297575701E+03 0.  0.
         25    1    4    4    0    0 -0.64991156711E+02 -0.58372486988E+02 -0.88613515788E+02  0.17643996420E+03  0.12509000000E+03 0.  0.
         25    1    3    3    0    0  0.55374414492E+02  0.98513755893E+02 -0.15742180798E+03  0.23065216151E+03  0.12509000000E+03 0.  0.
         25    1    4    4    0    0  0.96167422185E+01 -0.40141268905E+02 -0.11451895835E+03  0.17454484559E+03  0.12509000000E+03 0.  0.
<mgrwt>
<rscale>  2 0.45640133E+03</rscale>
<asrwt>0</asrwt>
<pdfrwt beam="1">  1       21 0.16256080E-01 0.45640133E+03</pdfrwt>
<pdfrwt beam="2">  1       21 0.69278767E-01 0.45640133E+03</pdfrwt>
<totfact> 0.59164876E+04</totfact>
</mgrwt>
</event>
<event>
 7    0  0.4748297E-002  0.4562409E+03  0.7546771E-02  0.1025877E+00
         21   -1    0    0  502  501  0.00000000000E+00  0.00000000000E+00  0.93855856571E+03  0.93855856571E+03  0.00000000000E+00 0.  1.
         21   -1    0    0  501  502 -0.00000000000E+00 -0.00000000000E+00 -0.55445595721E+02  0.55445595721E+02  0.00000000000E+00 0.  1.
      99926    2    1    2    0    0  0.35527136788E-14  0.00000000000E+00  0.88311296999E+03  0.99400416143E+03  0.45624089600E+03 0.  0.
      99925    2    3    3    0    0 -0.29976598942E+02  0.85207562657E+02  0.70786912378E+03  0.76051574855E+03  0.26295737709E+03 0.  0.
         25    1    4    4    0    0 -0.51479934737E+02  0.44404373929E+02  0.31609184571E+03  0.34667491275E+03  0.12509000000E+03 0.  0.
         25    1    4    4    0    0  0.21503335795E+02  0.40803188728E+02  0.39177727807E+03  0.41384083580E+03  0.12509000000E+03 0.  0.
         25    1    3    3    0    0  0.29976598942E+02 -0.85207562657E+02  0.17524384621E+03  0.23348841289E+03  0.12509000000E+03 0.  0.
<mgrwt>
<rscale>  2 0.45624090E+03</rscale>
<asrwt>0</asrwt>
<pdfrwt beam="1">  1       21 0.13802331E+00 0.45624090E+03</pdfrwt>
<pdfrwt beam="2">  1       21 0.81537647E-02 0.45624090E+03</pdfrwt>
<totfact> 0.39021237E+04</totfact>
</mgrwt>
</event>
<event>
 7    0  0.4748297E-002  0.4386918E+03  0.7546771E-02  0.1031149E+00
         21   -1    0    0  502  501  0.00000000000E+00  0.00000000000E+00  0.12126830599E+03  0.12126830599E+03  0.00000000000E+00 0.  1.
         21   -1    0    0  501  502 -0.00000000000E+00 -0.00000000000E+00 -0.39674518298E+03  0.39674518298E+03  0.00000000000E+00 0.  1.
      99926    2    1    2    0    0  0.00000000000E+00  0.00000000000E+00 -0.27547687699E+03  0.51801348898E+03  0.43869176537E+03 0.  0.
      99925    2    3    3    0    0 -0.40864692193E+02  0.84509529638E+02 -0.20868554222E+03  0.34795357551E+03  0.26212640369E+03 0.  0.
         25    1    4    4    0    0 -0.48629793659E+02  0.16963577828E+02 -0.11466825187E+03  0.17733847832E+03  0.12509000000E+03 0.  0.
         25    1    3    3    0    0  0.40864692193E+02 -0.84509529638E+02 -0.66791334773E+02  0.17005991347E+03  0.12509000000E+03 0.  0.
         25    1    4    4    0    0  0.77651014658E+01  0.67545951811E+02 -0.94017290345E+02  0.17061509719E+03  0.12509000000E+03 0.  0.
<mgrwt>
<rscale>  2 0.43869177E+03</rscale>
<asrwt>0</asrwt>
<pdfrwt beam="1">  1       21 0.17833574E-01 0.43869177E+03</pdfrwt>
<pdfrwt beam="2">  1       21 0.58344880E-01 0.43869177E+03</pdfrwt>
<totfact> 0.73012236E+04</totfact>
</mgrwt>
</event>
<event>
 7    0  0.4748297E-002  0.4527908E+03  0.7546771E-02  0.1026893E+00
         21   -1    0    0  502  501  0.00000000000E+00  0.00000000000E+00  0.25667204336E+03  0.25667204336E+03  0.00000000000E+00 0. -1.
         21   -1    0    0  501  502 -0.00000000000E+00 -0.00000000000E+00 -0.19969013897E+03  0.19969013897E+03  0.00000000000E+00 0. -1.
      99926    2    1    2    0    0 -0.71054273576E-14  0.00000000000E+00  0.56981904387E+02  0.45636218233E+03  0.45279079500E+03 0.  0.
      99925    2    3    3    0    0  0.50958857841E+02 -0.48992900305E+02 -0.50342823980E+02  0.27702112487E+03  0.26307640378E+03 0.  0.
         25    1    4    4    0    0  0.65083723560E+02 -0.18684596145E+02 -0.36154671685E+02  0.14676400645E+03  0.12509000000E+03 0.  0.
         25    1    3    3    0    0 -0.50958857841E+02  0.48992900305E+02  0.10732472837E+03  0.17934105746E+03  0.12509000000E+03 0.  0.
         25    1    4    4    0    0 -0.14124865719E+02 -0.30308304160E+02 -0.14188152295E+02  0.13025711842E+03  0.12509000000E+03 0.  0.
<mgrwt>
<rscale>  2 0.45279079E+03</rscale>
<asrwt>0</asrwt>
<pdfrwt beam="1">  1       21 0.37745889E-01 0.45279079E+03</pdfrwt>
<pdfrwt beam="2">  1       21 0.29366197E-01 0.45279079E+03</pdfrwt>
<totfact> 0.69665786E+04</totfact>
</mgrwt>
</event>
<event>
 7    0  0.4748297E-002  0.4507852E+03  0.7546771E-02  0.1027488E+00
         21   -1    0    0  502  501  0.00000000000E+00  0.00000000000E+00  0.68262598199E+03  0.68262598199E+03  0.00000000000E+00 0. -1.
         21   -1    0    0  501  502 -0.00000000000E+00 -0.00000000000E+00 -0.74421180766E+02  0.74421180766E+02  0.00000000000E+00 0. -1.
      99926    2    1    2    0    0  0.00000000000E+00 -0.44408920985E-15  0.60820480123E+03  0.75704716276E+03  0.45078523313E+03 0.  0.
      99925    2    3    3    0    0  0.10313630848E+03 -0.13333085225E+01  0.32429464343E+03  0.43010471884E+03  0.26302885312E+03 0.  0.
         25    1    4    4    0    0  0.92026133664E+02  0.72582144790E+01  0.15944833261E+03  0.22269434170E+03  0.12509000000E+03 0.  0.
         25    1    3    3    0    0 -0.10313630848E+03  0.13333085225E+01  0.28391015780E+03  0.32694244392E+03  0.12509000000E+03 0.  0.
         25    1    4    4    0    0  0.11110174811E+02 -0.85915230014E+01  0.16484631082E+03  0.20741037713E+03  0.12509000000E+03 0.  0.
<mgrwt>
<rscale>  2 0.45078523E+03</rscale>
<asrwt>0</asrwt>
<pdfrwt beam="1">  1       21 0.10038617E+00 0.45078523E+03</pdfrwt>
<pdfrwt beam="2">  1       21 0.10944292E-01 0.45078523E+03</pdfrwt>
<totfact> 0.51598376E+04</totfact>
</mgrwt>
</event>
<event>
 7    0  0.4748297E-002  0.4589047E+03  0.7546771E-02  0.1025099E+00
         21   -1    0    0  502  501  0.00000000000E+00  0.00000000000E+00  0.39456169391E+03  0.39456169391E+03  0.00000000000E+00 0.  1.
         21   -1    0    0  501  502 -0.00000000000E+00 -0.00000000000E+00 -0.13343511676E+03  0.13343511676E+03  0.00000000000E+00 0.  1.
      99926    2    1    2    0    0 -0.26645352591E-14 -0.14210854715E-13  0.26112657715E+03  0.52799681066E+03  0.45890472081E+03 0.  0.
      99925    2    3    3    0    0  0.75707942652E+01 -0.10704610956E+03  0.11064639020E+03  0.30481979289E+03  0.26297584676E+03 0.  0.
         25    1    4    4    0    0 -0.26173268039E+02 -0.25266941796E+02  0.60261843694E+02  0.14353555731E+03  0.12509000000E+03 0.  0.
         25    1    4    4    0    0  0.33744062304E+02 -0.81779167761E+02  0.50384546505E+02  0.16128423558E+03  0.12509000000E+03 0.  0.
         25    1    3    3    0    0 -0.75707942652E+01  0.10704610956E+03  0.15048018695E+03  0.22317701777E+03  0.12509000000E+03 0.  0.
<mgrwt>
<rscale>  2 0.45890472E+03</rscale>
<asrwt>0</asrwt>
<pdfrwt beam="1">  1       21 0.58023778E-01 0.45890472E+03</pdfrwt>
<pdfrwt beam="2">  1       21 0.19622811E-01 0.45890472E+03</pdfrwt>
<totfact> 0.61419101E+04</totfact>
</mgrwt>
</event>
<event>
 7    0  0.4748297E-002  0.4610024E+03  0.7546771E-02  0.1024491E+00
         21   -1    0    0  502  501  0.00000000000E+00  0.00000000000E+00  0.19132589248E+03  0.19132589248E+03  0.00000000000E+00 0. -1.
         21   -1    0    0  501  502 -0.00000000000E+00 -0.00000000000E+00 -0.27769794425E+03  0.27769794425E+03  0.00000000000E+00 0. -1.
      99926    2    1    2    0    0  0.00000000000E+00  0.00000000000E+00 -0.86372051775E+02  0.46902383673E+03  0.46100241658E+03 0.  0.
      99925    2    3    3    0    0 -0.61586894300E+02  0.67409882618E+02  0.21503706764E+02  0.28028665119E+03  0.26412337951E+03 0.  0.
         25    1    4    4    0    0 -0.34271296183E+02  0.32846274028E+02  0.53112766939E+02  0.14395094154E+03  0.12509000000E+03 0.  0.
         25    1    3    3    0    0  0.61586894300E+02 -0.67409882618E+02 -0.10787575854E+03  0.18873718554E+03  0.12509000000E+03 0.  0.
         25    1    4    4    0    0 -0.27315598117E+02  0.34563608590E+02 -0.31609060175E+02  0.13633570964E+03  0.12509000000E+03 0.  0.
<mgrwt>
<rscale>  2 0.46100242E+03</rscale>
<asrwt>0</asrwt>
<pdfrwt beam="1">  1       21 0.28136161E-01 0.46100242E+03</pdfrwt>
<pdfrwt beam="2">  1       21 0.40837933E-01 0.46100242E+03</pdfrwt>
<totfact> 0.64385110E+04</totfact>
</mgrwt>
</event>
<event>
 7    0  0.4748297E-002  0.4295074E+03  0.7546771E-02  0.1034016E+00
         21   -1    0    0  502  501  0.00000000000E+00  0.00000000000E+00  0.12069524595E+04  0.12069524595E+04  0.00000000000E+00 0.  1.
         21   -1    0    0  501  502 -0.00000000000E+00 -0.00000000000E+00 -0.38211247410E+02  0.38211247410E+02  0.00000000000E+00 0.  1.
      99926    2    1    2    0    0  0.00000000000E+00  0.00000000000E+00  0.11687412121E+04  0.12451637069E+04  0.42950743435E+03 0.  0.
      99925    2    3    3    0    0 -0.41310979269E+02 -0.76498845922E+02  0.75534822039E+03  0.80459595488E+03  0.26318253387E+03 0.  0.
         25    1    4    4    0    0 -0.30521544907E+01 -0.25907647451E+02  0.25889969009E+03  0.28871626119E+03  0.12509000000E+03 0.  0.
         25    1    4    4    0    0 -0.38258824778E+02 -0.50591198471E+02  0.49644853029E+03  0.51587969370E+03  0.12509000000E+03 0.  0.
         25    1    3    3    0    0  0.41310979269E+02  0.76498845922E+02  0.41339299167E+03  0.44056775199E+03  0.12509000000E+03 0.  0.
<mgrwt>
<rscale>  2 0.42950743E+03</rscale>
<asrwt>0</asrwt>
<pdfrwt beam="1">  1       21 0.17749298E+00 0.42950743E+03</pdfrwt>
<pdfrwt beam="2">  1       21 0.56193019E-02 0.42950743E+03</pdfrwt>
<totfact> 0.37689879E+04</totfact>
</mgrwt>
</event>
<event>
 7    0  0.4748297E-002  0.4519921E+03  0.7546771E-02  0.1027130E+00
         21   -1    0    0  502  501  0.00000000000E+00  0.00000000000E+00  0.35578522236E+02  0.35578522236E+02  0.00000000000E+00 0. -1.
         21   -1    0    0  501  502 -0.00000000000E+00 -0.00000000000E+00 -0.14355348283E+04  0.14355348283E+04  0.00000000000E+00 0. -1.
      99926    2    1    2    0    0  0.00000000000E+00  0.00000000000E+00 -0.13999563061E+04  0.14711133505E+04  0.45199206989E+03 0.  0.
      99925    2    3    3    0    0  0.88025134039E+02  0.60110614046E+02 -0.97282772618E+03  0.10134584128E+04  0.26332956460E+03 0.  0.
         25    1    4    4    0    0  0.65020770802E+02  0.63917904272E+02 -0.59368666906E+03  0.61353448822E+03  0.12509000000E+03 0.  0.
         25    1    4    4    0    0  0.23004363237E+02 -0.38072902254E+01 -0.37914105712E+03  0.39992392462E+03  0.12509000000E+03 0.  0.
         25    1    3    3    0    0 -0.88025134039E+02 -0.60110614046E+02 -0.42712857990E+03  0.45765493771E+03  0.12509000000E+03 0.  0.
<mgrwt>
<rscale>  2 0.45199207E+03</rscale>
<asrwt>0</asrwt>
<pdfrwt beam="1">  1       21 0.52321366E-02 0.45199207E+03</pdfrwt>
<pdfrwt beam="2">  1       21 0.21110802E+00 0.45199207E+03</pdfrwt>
<totfact> 0.25076891E+04</totfact>
</mgrwt>
</event>
<event>
 7    0  0.4748297E-002  0.4594755E+03  0.7546771E-02  0.1024933E+00
         21   -1    0    0  502  501  0.00000000000E+00  0.00000000000E+00  0.99485156489E+02  0.99485156489E+02  0.00000000000E+00 0. -1.
         21   -1    0    0  501  502 -0.00000000000E+00 -0.00000000000E+00 -0.53052573889E+03  0.53052573889E+03  0.00000000000E+00 0. -1.
      99926    2    1    2    0    0  0.00000000000E+00  0.14210854715E-13 -0.43104058240E+03  0.63001089538E+03  0.45947551036E+03 0.  0.
      99925    2    3    3    0    0  0.69100371925E+02 -0.84116491846E+02 -0.33010824103E+03  0.43588389768E+03  0.26300736845E+03 0.  0.
         25    1    4    4    0    0  0.41875135357E+02 -0.71959071838E+02 -0.22096350208E+03  0.26721529210E+03  0.12509000000E+03 0.  0.
         25    1    3    3    0    0 -0.69100371925E+02  0.84116491846E+02 -0.10093234137E+03  0.19412699770E+03  0.12509000000E+03 0.  0.
         25    1    4    4    0    0  0.27225236568E+02 -0.12157420008E+02 -0.10914473895E+03  0.16866860558E+03  0.12509000000E+03 0.  0.
<mgrwt>
<rscale>  2 0.45947551E+03</rscale>
<asrwt>0</asrwt>
<pdfrwt beam="1">  1       21 0.14630170E-01 0.45947551E+03</pdfrwt>
<pdfrwt beam="2">  1       21 0.78018491E-01 0.45947551E+03</pdfrwt>
<totfact> 0.54902392E+04</totfact>
</mgrwt>
</event>
<event>
 7    0  0.4748297E-002  0.4450695E+03  0.7546771E-02  0.1029203E+00
         21   -1    0    0  502  501  0.00000000000E+00  0.00000000000E+00  0.47235577318E+03  0.47235577318E+03  0.00000000000E+00 0. -1.
         21   -1    0    0  501  502 -0.00000000000E+00 -0.00000000000E+00 -0.10483984758E+03  0.10483984758E+03  0.00000000000E+00 0. -1.
      99926    2    1    2    0    0  0.71054273576E-14  0.00000000000E+00  0.36751592560E+03  0.57719562076E+03  0.44506946544E+03 0.  0.
      99925    2    3    3    0    0 -0.62945503820E+02 -0.72023598271E+02  0.18159909310E+03  0.33355220947E+03  0.26292453418E+03 0.  0.
         25    1    3    3    0    0  0.62945503820E+02  0.72023598271E+02  0.18591683250E+03  0.24364341129E+03  0.12509000000E+03 0.  0.
         25    1    4    4    0    0 -0.26916133542E+02 -0.95532053681E+00  0.11056129178E+03  0.16910558306E+03  0.12509000000E+03 0.  0.
         25    1    4    4    0    0 -0.36029370279E+02 -0.71068277734E+02  0.71037801319E+02  0.16444662641E+03  0.12509000000E+03 0.  0.
<mgrwt>
<rscale>  2 0.44506947E+03</rscale>
<asrwt>0</asrwt>
<pdfrwt beam="1">  1       21 0.69464083E-01 0.44506947E+03</pdfrwt>
<pdfrwt beam="2">  1       21 0.15417625E-01 0.44506947E+03</pdfrwt>
<totfact> 0.65064150E+04</totfact>
</mgrwt>
</event>
<event>
 7    0  0.4748297E-002  0.4538711E+03  0.7546771E-02  0.1026574E+00
         21   -1    0    0  502  501  0.00000000000E+00  0.00000000000E+00  0.46786497177E+03  0.46786497177E+03  0.00000000000E+00 0.  1.
         21   -1    0    0  501  502 -0.00000000000E+00 -0.00000000000E+00 -0.11007392570E+03  0.11007392570E+03  0.00000000000E+00 0.  1.
      99926    2    1    2    0    0  0.00000000000E+00  0.00000000000E+00  0.35779104607E+03  0.57793889747E+03  0.45387105719E+03 0.  0.
      99925    2    3    3    0    0 -0.10726418980E+03  0.21660516638E+02  0.19419602816E+03  0.34473164547E+03  0.26296962874E+03 0.  0.
         25    1    4    4    0    0 -0.36005013967E+02  0.19504740808E+01  0.13582833600E+03  0.18814093213E+03  0.12509000000E+03 0.  0.
         25    1    4    4    0    0 -0.71259175836E+02  0.19710042557E+02  0.58367692153E+02  0.15659071334E+03  0.12509000000E+03 0.  0.
         25    1    3    3    0    0  0.10726418980E+03 -0.21660516638E+02  0.16359501792E+03  0.23320725199E+03  0.12509000000E+03 0.  0.
<mgrwt>
<rscale>  2 0.45387106E+03</rscale>
<asrwt>0</asrwt>
<pdfrwt beam="1">  1       21 0.68803671E-01 0.45387106E+03</pdfrwt>
<pdfrwt beam="2">  1       21 0.16187342E-01 0.45387106E+03</pdfrwt>
<totfact> 0.60596204E+04</totfact>
</mgrwt>
</event>
<event>
 7    0  0.4748297E-002  0.4512093E+03  0.7546771E-02  0.1027362E+00
         21   -1    0    0  502  501  0.00000000000E+00  0.00000000000E+00  0.11084307914E+03  0.11084307914E+03  0.00000000000E+00 0.  1.
         21   -1    0    0  501  502 -0.00000000000E+00 -0.00000000000E+00 -0.45918473373E+03  0.45918473373E+03  0.00000000000E+00 0.  1.
      99926    2    1    2    0    0  0.35527136788E-14  0.00000000000E+00 -0.34834165459E+03  0.57002781287E+03  0.45120926312E+03 0.  0.
      99925    2    3    3    0    0  0.27159839697E+02 -0.59487761621E+02 -0.33100336324E+03  0.42781468014E+03  0.26303179159E+03 0.  0.
         25    1    3    3    0    0 -0.27159839697E+02  0.59487761621E+02 -0.17338291340E+02  0.14221313273E+03  0.12509000000E+03 0.  0.
         25    1    4    4    0    0  0.13269891168E+02 -0.25605617061E+01 -0.10963336739E+03  0.16688208362E+03  0.12509000000E+03 0.  0.
         25    1    4    4    0    0  0.13889948529E+02 -0.56927199915E+02 -0.22136999585E+03  0.26093259652E+03  0.12509000000E+03 0.  0.
<mgrwt>
<rscale>  2 0.45120926E+03</rscale>
<asrwt>0</asrwt>
<pdfrwt beam="1">  1       21 0.16300453E-01 0.45120926E+03</pdfrwt>
<pdfrwt beam="2">  1       21 0.67527167E-01 0.45120926E+03</pdfrwt>
<totfact> 0.62412075E+04</totfact>
</mgrwt>
</event>
<event>
 7    0  0.4748297E-002  0.4455540E+03  0.7546771E-02  0.1029056E+00
         21   -1    0    0  502  501  0.00000000000E+00  0.00000000000E+00  0.39225918166E+03  0.39225918166E+03  0.00000000000E+00 0. -1.
         21   -1    0    0  501  502 -0.00000000000E+00 -0.00000000000E+00 -0.12652245668E+03  0.12652245668E+03  0.00000000000E+00 0. -1.
      99926    2    1    2    0    0  0.00000000000E+00  0.14210854715E-13  0.26573672498E+03  0.51878163834E+03  0.44555401611E+03 0.  0.
      99925    2    3    3    0    0  0.65408193680E+02  0.80783293331E+02  0.16152551915E+03  0.32561938581E+03  0.26293215626E+03 0.  0.
         25    1    4    4    0    0  0.62792694514E+02  0.47594489835E+02  0.54166290444E+02  0.15744730251E+03  0.12509000000E+03 0.  0.
         25    1    4    4    0    0  0.26154991669E+01  0.33188803496E+02  0.10735922870E+03  0.16817208330E+03  0.12509000000E+03 0.  0.
         25    1    3    3    0    0 -0.65408193680E+02 -0.80783293331E+02  0.10421120583E+03  0.19316225253E+03  0.12509000000E+03 0.  0.
<mgrwt>
<rscale>  2 0.44555402E+03</rscale>
<asrwt>0</asrwt>
<pdfrwt beam="1">  1       21 0.57685173E-01 0.44555402E+03</pdfrwt>
<pdfrwt beam="2">  1       21 0.18606244E-01 0.44555402E+03</pdfrwt>
<totfact> 0.68995209E+04</totfact>
</mgrwt>
</event>
<event>
 7    0  0.4748297E-002  0.4578971E+03  0.7546771E-02  0.1025393E+00
         21   -1    0    0  502  501  0.00000000000E+00  0.00000000000E+00  0.25268589003E+03  0.25268589003E+03  0.00000000000E+00 0.  1.
         21   -1    0    0  501  502 -0.00000000000E+00 -0.00000000000E+00 -0.20744108500E+03  0.20744108500E+03  0.00000000000E+00 0.  1.
      99926    2    1    2    0    0  0.71054273576E-14  0.00000000000E+00  0.45244805037E+02  0.46012697503E+03  0.45789708534E+03 0.  0.
      99925    2    3    3    0    0 -0.38217044760E+02 -0.81515212622E+02  0.10207183967E+03  0.29586470801E+03  0.26270133725E+03 0.  0.
         25    1    4    4    0    0 -0.40884730048E+02 -0.42038399591E+02  0.16287077644E+02  0.13910990328E+03  0.12509000000E+03 0.  0.
         25    1    3    3    0    0  0.38217044760E+02  0.81515212622E+02 -0.56827034637E+02  0.16426226701E+03  0.12509000000E+03 0.  0.
         25    1    4    4    0    0  0.26676852881E+01 -0.39476813031E+02  0.85784762030E+02  0.15675480474E+03  0.12509000000E+03 0.  0.
<mgrwt>
<rscale>  2 0.45789709E+03</rscale>
<asrwt>0</asrwt>
<pdfrwt beam="1">  1       21 0.37159690E-01 0.45789709E+03</pdfrwt>
<pdfrwt beam="2">  1       21 0.30506042E-01 0.45789709E+03</pdfrwt>
<totfact> 0.66618579E+04</totfact>
</mgrwt>
</event>
<event>
 7    0  0.4748297E-002  0.4547835E+03  0.7546771E-02  0.1026305E+00
         21   -1    0    0  502  501  0.00000000000E+00  0.00000000000E+00  0.11467322061E+04  0.11467322061E+04  0.00000000000E+00 0.  1.
         21   -1    0    0  501  502 -0.00000000000E+00 -0.00000000000E+00 -0.45090751878E+02  0.45090751878E+02  0.00000000000E+00 0.  1.
      99926    2    1    2    0    0 -0.35527136788E-14  0.00000000000E+00  0.11016414542E+04  0.11918229580E+04  0.45478354137E+03 0.  0.
      99925    2    3    3    0    0  0.18370000281E+02  0.10793062395E+03  0.61818277252E+03  0.68058301283E+03  0.26278664468E+03 0.  0.
         25    1    4    4    0    0 -0.17511689722E+02  0.44431974533E+02  0.22814808037E+03  0.26453717001E+03  0.12509000000E+03 0.  0.
         25    1    4    4    0    0  0.35881690002E+02  0.63498649419E+02  0.39003469214E+03  0.41604584282E+03  0.12509000000E+03 0.  0.
         25    1    3    3    0    0 -0.18370000281E+02 -0.10793062395E+03  0.48345868172E+03  0.51123994516E+03  0.12509000000E+03 0.  0.
<mgrwt>
<rscale>  2 0.45478354E+03</rscale>
<asrwt>0</asrwt>
<pdfrwt beam="1">  1       21 0.16863707E+00 0.45478354E+03</pdfrwt>
<pdfrwt beam="2">  1       21 0.66309936E-02 0.45478354E+03</pdfrwt>
<totfact> 0.32470913E+04</totfact>
</mgrwt>
</event>
<event>
 7    0  0.4748297E-002  0.4621714E+03  0.7546771E-02  0.1024153E+00
         21   -1    0    0  502  501  0.00000000000E+00  0.00000000000E+00  0.72063692356E+02  0.72063692356E+02  0.00000000000E+00 0. -1.
         21   -1    0    0  501  502 -0.00000000000E+00 -0.00000000000E+00 -0.74101950404E+03  0.74101950404E+03  0.00000000000E+00 0. -1.
      99926    2    1    2    0    0 -0.71054273576E-14  0.00000000000E+00 -0.66895581168E+03  0.81308319639E+03  0.46217140357E+03 0.  0.
      99925    2    3    3    0    0  0.35510103942E+02  0.45557564224E+02 -0.23342099918E+03  0.35627411140E+03  0.26288670649E+03 0.  0.
         25    1    4    4    0    0  0.51204996552E+02  0.38847497213E+02 -0.99831798898E+02  0.17246731830E+03  0.12509000000E+03 0.  0.
         25    1    4    4    0    0 -0.15694892610E+02  0.67100670115E+01 -0.13358920029E+03  0.18380679309E+03  0.12509000000E+03 0.  0.
         25    1    3    3    0    0 -0.35510103942E+02 -0.45557564224E+02 -0.43553481250E+03  0.45680908500E+03  0.12509000000E+03 0.  0.
<mgrwt>
<rscale>  2 0.46217140E+03</rscale>
<asrwt>0</asrwt>
<pdfrwt beam="1">  1       21 0.10597602E-01 0.46217140E+03</pdfrwt>
<pdfrwt beam="2">  1       21 0.10897345E+00 0.46217140E+03</pdfrwt>
<totfact> 0.44576537E+04</totfact>
</mgrwt>
</event>
<event>
 7    0  0.4748297E-002  0.4495439E+03  0.7546771E-02  0.1027858E+00
         21   -1    0    0  502  501  0.00000000000E+00  0.00000000000E+00  0.12297216761E+03  0.12297216761E+03  0.00000000000E+00 0. -1.
         21   -1    0    0  501  502 -0.00000000000E+00 -0.00000000000E+00 -0.41084437699E+03  0.41084437699E+03  0.00000000000E+00 0. -1.
      99926    2    1    2    0    0 -0.14210854715E-13  0.14210854715E-13 -0.28787220938E+03  0.53381654459E+03  0.44954387366E+03 0.  0.
      99925    2    3    3    0    0 -0.82855661371E+02  0.68426689097E+02 -0.16974657570E+03  0.33096574762E+03  0.26301550093E+03 0.  0.
         25    1    3    3    0    0  0.82855661371E+02 -0.68426689097E+02 -0.11812563368E+03  0.20285079698E+03  0.12509000000E+03 0.  0.
         25    1    4    4    0    0 -0.71350366176E+02  0.66154317783E+02 -0.95703122421E+02  0.18513201845E+03  0.12509000000E+03 0.  0.
         25    1    4    4    0    0 -0.11505295195E+02  0.22723713145E+01 -0.74043453281E+02  0.14583372917E+03  0.12509000000E+03 0.  0.
<mgrwt>
<rscale>  2 0.44954387E+03</rscale>
<asrwt>0</asrwt>
<pdfrwt beam="1">  1       21 0.18084142E-01 0.44954387E+03</pdfrwt>
<pdfrwt beam="2">  1       21 0.60418292E-01 0.44954387E+03</pdfrwt>
<totfact> 0.65742219E+04</totfact>
</mgrwt>
</event>
<event>
 7    0  0.4748297E-002  0.4577295E+03  0.7546771E-02  0.1025442E+00
         21   -1    0    0  502  501  0.00000000000E+00  0.00000000000E+00  0.20323241748E+03  0.20323241748E+03  0.00000000000E+00 0. -1.
         21   -1    0    0  501  502 -0.00000000000E+00 -0.00000000000E+00 -0.25772986291E+03  0.25772986291E+03  0.00000000000E+00 0. -1.
      99926    2    1    2    0    0 -0.14210854715E-13 -0.17763568394E-14 -0.54497445437E+02  0.46096228039E+03  0.45772945326E+03 0.  0.
      99925    2    3    3    0    0  0.10429123269E+03  0.13887862041E+02 -0.82604604068E+02  0.29510977244E+03  0.26305270051E+03 0.  0.
         25    1    3    3    0    0 -0.10429123269E+03 -0.13887862041E+02  0.28107158631E+02  0.16585250795E+03  0.12509000000E+03 0.  0.
         25    1    4    4    0    0  0.32318446807E+02 -0.29404364262E+02 -0.34018416196E+02  0.13679860885E+03  0.12509000000E+03 0.  0.
         25    1    4    4    0    0  0.71972785884E+02  0.43292226303E+02 -0.48586187873E+02  0.15831116359E+03  0.12509000000E+03 0.  0.
<mgrwt>
<rscale>  2 0.45772945E+03</rscale>
<asrwt>0</asrwt>
<pdfrwt beam="1">  1       21 0.29887120E-01 0.45772945E+03</pdfrwt>
<pdfrwt beam="2">  1       21 0.37901450E-01 0.45772945E+03</pdfrwt>
<totfact> 0.66647840E+04</totfact>
</mgrwt>
</event>
<event>
 7    0  0.4748297E-002  0.4078998E+03  0.7546771E-02  0.1041078E+00
         21   -1    0    0  502  501  0.00000000000E+00  0.00000000000E+00  0.12648719632E+03  0.12648719632E+03  0.00000000000E+00 0.  1.
         21   -1    0    0  501  502 -0.00000000000E+00 -0.00000000000E+00 -0.32885193092E+03  0.32885193092E+03  0.00000000000E+00 0.  1.
      99926    2    1    2    0    0 -0.35527136788E-14  0.00000000000E+00 -0.20236473460E+03  0.45533912724E+03  0.40789978546E+03 0.  0.
      99925    2    3    3    0    0 -0.19589770510E+02 -0.87186244624E+01 -0.72257585460E+02  0.27358337938E+03  0.26299607087E+03 0.  0.
         25    1    3    3    0    0  0.19589770510E+02  0.87186244624E+01 -0.13010714914E+03  0.18175574786E+03  0.12509000000E+03 0.  0.
         25    1    4    4    0    0  0.15860223198E+01 -0.13514151688E+01 -0.76113426609E+02  0.14644146817E+03  0.12509000000E+03 0.  0.
         25    1    4    4    0    0 -0.21175792829E+02 -0.73672092936E+01  0.38558411491E+01  0.12714191121E+03  0.12509000000E+03 0.  0.
<mgrwt>
<rscale>  2 0.40789979E+03</rscale>
<asrwt>0</asrwt>
<pdfrwt beam="1">  1       21 0.18601058E-01 0.40789979E+03</pdfrwt>
<pdfrwt beam="2">  1       21 0.48360578E-01 0.40789979E+03</pdfrwt>
<totfact> 0.10150105E+05</totfact>
</mgrwt>
</event>
<event>
 7    0  0.4748297E-002  0.4576149E+03  0.7546771E-02  0.1025475E+00
         21   -1    0    0  502  501  0.00000000000E+00  0.00000000000E+00  0.15926612961E+04  0.15926612961E+04  0.00000000000E+00 0.  1.
         21   -1    0    0  501  502 -0.00000000000E+00 -0.00000000000E+00 -0.32871296466E+02  0.32871296466E+02  0.00000000000E+00 0.  1.
      99926    2    1    2    0    0 -0.14210854715E-13  0.00000000000E+00  0.15597899996E+04  0.16255325925E+04  0.45761486704E+03 0.  0.
      99925    2    3    3    0    0  0.10455764150E+03 -0.33802660265E+02  0.85135653738E+03  0.89779610263E+03  0.26297332170E+03 0.  0.
         25    1    4    4    0    0  0.79674286794E+02 -0.49845617307E+02  0.46880890656E+03  0.49422856707E+03  0.12509000000E+03 0.  0.
         25    1    4    4    0    0  0.24883354707E+02  0.16042957041E+02  0.38254763082E+03  0.40356753556E+03  0.12509000000E+03 0.  0.
         25    1    3    3    0    0 -0.10455764150E+03  0.33802660265E+02  0.70843346224E+03  0.72773648992E+03  0.12509000000E+03 0.  0.
<mgrwt>
<rscale>  2 0.45761487E+03</rscale>
<asrwt>0</asrwt>
<pdfrwt beam="1">  1       21 0.23421484E+00 0.45761487E+03</pdfrwt>
<pdfrwt beam="2">  1       21 0.48340153E-02 0.45761487E+03</pdfrwt>
<totfact> 0.20440736E+04</totfact>
</mgrwt>
</event>
<event>
 6    0  0.4748297E-002  0.4595311E+03  0.7546771E-02  0.1024917E+00
         21   -1    0    0  502  501  0.00000000000E+00  0.00000000000E+00  0.12766513872E+03  0.12766513872E+03  0.00000000000E+00 0. -1.
         21   -1    0    0  501  502 -0.00000000000E+00 -0.00000000000E+00 -0.41352098397E+03  0.41352098397E+03  0.00000000000E+00 0. -1.
      99926    2    1    2    0    0  0.00000000000E+00 -0.88817841970E-15 -0.28585584524E+03  0.54118612269E+03  0.45953112531E+03 0.  0.
         25    1    3    3    0    0 -0.41115011778E+02  0.22532049309E+02 -0.67508279327E+02  0.14967636192E+03  0.12509000000E+03 0.  0.
         25    1    3    3    0    0  0.11886275182E+03 -0.70333572373E+01 -0.86156880088E+02  0.19299828489E+03  0.12509000000E+03 0.  0.
         25    1    3    3    0    0 -0.77747740038E+02 -0.15498692072E+02 -0.13219068583E+03  0.19851147588E+03  0.12509000000E+03 0.  0.
<mgrwt>
<rscale>  2 0.45953113E+03</rscale>
<asrwt>0</asrwt>
<pdfrwt beam="1">  1       21 0.18774285E-01 0.45953113E+03</pdfrwt>
<pdfrwt beam="2">  1       21 0.60811909E-01 0.45953113E+03</pdfrwt>
<totfact> 0.60262387E+04</totfact>
</mgrwt>
</event>
<event>
 7    0  0.4748297E-002  0.4523569E+03  0.7546771E-02  0.1027022E+00
         21   -1    0    0  502  501  0.00000000000E+00  0.00000000000E+00  0.69849160403E+02  0.69849160403E+02  0.00000000000E+00 0.  1.
         21   -1    0    0  501  502 -0.00000000000E+00 -0.00000000000E+00 -0.73238795441E+03  0.73238795441E+03  0.00000000000E+00 0.  1.
      99926    2    1    2    0    0 -0.17763568394E-14  0.00000000000E+00 -0.66253879401E+03  0.80223711481E+03  0.45235686667E+03 0.  0.
      99925    2    3    3    0    0  0.12008013030E+02  0.98354591807E+02 -0.33037553027E+03  0.43372963866E+03  0.26297450512E+03 0.  0.
         25    1    4    4    0    0 -0.26452322886E+02  0.35712548655E+02 -0.12550018814E+03  0.18268255757E+03  0.12509000000E+03 0.  0.
         25    1    3    3    0    0 -0.12008013030E+02 -0.98354591807E+02 -0.33216326374E+03  0.36850747616E+03  0.12509000000E+03 0.  0.
         25    1    4    4    0    0  0.38460335916E+02  0.62642043151E+02 -0.20487534213E+03  0.25104708109E+03  0.12509000000E+03 0.  0.
<mgrwt>
<rscale>  2 0.45235687E+03</rscale>
<asrwt>0</asrwt>
<pdfrwt beam="1">  1       21 0.10271935E-01 0.45235687E+03</pdfrwt>
<pdfrwt beam="2">  1       21 0.10770411E+00 0.45235687E+03</pdfrwt>
<totfact> 0.48658259E+04</totfact>
</mgrwt>
</event>
<event>
 6    0  0.4748297E-002  0.4613528E+03  0.7546771E-02  0.1024390E+00
         21   -1    0    0  502  501  0.00000000000E+00  0.00000000000E+00  0.20786636058E+04  0.20786636058E+04  0.00000000000E+00 0. -1.
         21   -1    0    0  501  502 -0.00000000000E+00 -0.00000000000E+00 -0.25598952144E+02  0.25598952144E+02  0.00000000000E+00 0. -1.
      99926    2    1    2    0    0  0.00000000000E+00  0.14210854715E-13  0.20530646536E+04  0.21042625579E+04  0.46135283750E+03 0.  0.
         25    1    3    3    0    0 -0.57790229569E+02 -0.10185097873E+03  0.76351356490E+03  0.78250482707E+03  0.12509000000E+03 0.  0.
         25    1    3    3    0    0  0.18905199960E+02  0.94204574159E+02  0.75954438747E+03  0.77574937513E+03  0.12509000000E+03 0.  0.
         25    1    3    3    0    0  0.38885029609E+02  0.76464045737E+01  0.53000670124E+03  0.54600835570E+03  0.12509000000E+03 0.  0.
<mgrwt>
<rscale>  2 0.46135284E+03</rscale>
<asrwt>0</asrwt>
<pdfrwt beam="1">  1       21 0.30568571E+00 0.46135284E+03</pdfrwt>
<pdfrwt beam="2">  1       21 0.37645532E-02 0.46135284E+03</pdfrwt>
<totfact> 0.11503239E+04</totfact>
</mgrwt>
</event>
<event>
 7    0  0.4748297E-002  0.4530066E+03  0.7546771E-02  0.1026829E+00
         21   -1    0    0  502  501  0.00000000000E+00  0.00000000000E+00  0.17154930984E+03  0.17154930984E+03  0.00000000000E+00 0. -1.
         21   -1    0    0  501  502 -0.00000000000E+00 -0.00000000000E+00 -0.29906119174E+03  0.29906119174E+03  0.00000000000E+00 0. -1.
      99926    2    1    2    0    0  0.00000000000E+00  0.00000000000E+00 -0.12751188190E+03  0.47061050159E+03  0.45300658293E+03 0.  0.
      99925    2    3    3    0    0  0.84272416007E+02  0.68677511031E+02 -0.10480140663E+03  0.30333314386E+03  0.26307645412E+03 0.  0.
         25    1    4    4    0    0  0.59300930144E+02  0.22532411274E+02 -0.90531339657E+02  0.16693633946E+03  0.12509000000E+03 0.  0.
         25    1    3    3    0    0 -0.84272416007E+02 -0.68677511031E+02 -0.22710475268E+02  0.16727735773E+03  0.12509000000E+03 0.  0.
         25    1    4    4    0    0  0.24971485863E+02  0.46145099757E+02 -0.14270066974E+02  0.13639680440E+03  0.12509000000E+03 0.  0.
<mgrwt>
<rscale>  2 0.45300658E+03</rscale>
<asrwt>0</asrwt>
<pdfrwt beam="1">  1       21 0.25227840E-01 0.45300658E+03</pdfrwt>
<pdfrwt beam="2">  1       21 0.43979587E-01 0.45300658E+03</pdfrwt>
<totfact> 0.68466790E+04</totfact>
</mgrwt>
</event>
<event>
 7    0  0.4748297E-002  0.4612705E+03  0.7546771E-02  0.1024413E+00
         21   -1    0    0  502  501  0.00000000000E+00  0.00000000000E+00  0.27324008639E+03  0.27324008639E+03  0.00000000000E+00 0. -1.
         21   -1    0    0  501  502 -0.00000000000E+00 -0.00000000000E+00 -0.19467357168E+03  0.19467357168E+03  0.00000000000E+00 0. -1.
      99926    2    1    2    0    0  0.00000000000E+00  0.00000000000E+00  0.78566514713E+02  0.46791365808E+03  0.46127052169E+03 0.  0.
      99925    2    3    3    0    0 -0.56487027682E+02  0.10358434047E+03  0.47149017129E+02  0.29311358044E+03  0.26414397841E+03 0.  0.
         25    1    3    3    0    0  0.56487027682E+02 -0.10358434047E+03  0.31417497583E+02  0.17480007764E+03  0.12509000000E+03 0.  0.
         25    1    4    4    0    0 -0.43782743583E+02  0.15346122202E+02  0.36475950606E+01  0.13346626972E+03  0.12509000000E+03 0.  0.
         25    1    4    4    0    0 -0.12704284098E+02  0.88238218272E+02  0.43501422069E+02  0.15964731072E+03  0.12509000000E+03 0.  0.
<mgrwt>
<rscale>  2 0.46127052E+03</rscale>
<asrwt>0</asrwt>
<pdfrwt beam="1">  1       21 0.40182366E-01 0.46127052E+03</pdfrwt>
<pdfrwt beam="2">  1       21 0.28628466E-01 0.46127052E+03</pdfrwt>
<totfact> 0.64327566E+04</totfact>
</mgrwt>
</event>
<event>
 7    0  0.4748297E-002  0.4400931E+03  0.7546771E-02  0.1030718E+00
         21   -1    0    0  502  501  0.00000000000E+00  0.00000000000E+00  0.11733907843E+03  0.11733907843E+03  0.00000000000E+00 0. -1.
         21   -1    0    0  501  502 -0.00000000000E+00 -0.00000000000E+00 -0.41265430061E+03  0.41265430061E+03  0.00000000000E+00 0. -1.
      99926    2    1    2    0    0  0.00000000000E+00  0.00000000000E+00 -0.29531522219E+03  0.52999337904E+03  0.44009305990E+03 0.  0.
      99925    2    3    3    0    0 -0.47078904689E+02  0.68742813546E+02 -0.12470049948E+03  0.30261948127E+03  0.26284280130E+03 0.  0.
         25    1    4    4    0    0 -0.27829207963E+02  0.10338606728E+02 -0.24310957763E+02  0.13084296837E+03  0.12509000000E+03 0.  0.
         25    1    3    3    0    0  0.47078904689E+02 -0.68742813546E+02 -0.17061472271E+03  0.22737389777E+03  0.12509000000E+03 0.  0.
         25    1    4    4    0    0 -0.19249696726E+02  0.58404206817E+02 -0.10038954172E+03  0.17177651290E+03  0.12509000000E+03 0.  0.
<mgrwt>
<rscale>  2 0.44009306E+03</rscale>
<asrwt>0</asrwt>
<pdfrwt beam="1">  1       21 0.17255747E-01 0.44009306E+03</pdfrwt>
<pdfrwt beam="2">  1       21 0.60684457E-01 0.44009306E+03</pdfrwt>
<totfact> 0.71250974E+04</totfact>
</mgrwt>
</event>
<event>
 7    0  0.4748297E-002  0.4546708E+03  0.7546771E-02  0.1026338E+00
         21   -1    0    0  502  501  0.00000000000E+00  0.00000000000E+00  0.26084980635E+04  0.26084980635E+04  0.00000000000E+00 0. -1.
         21   -1    0    0  501  502 -0.00000000000E+00 -0.00000000000E+00 -0.19812698730E+02  0.19812698730E+02  0.00000000000E+00 0. -1.
      99926    2    1    2    0    0  0.00000000000E+00 -0.17763568394E-14  0.25886853648E+04  0.26283107623E+04  0.45467080958E+03 0.  0.
      99925    2    3    3    0    0 -0.10271678598E+03 -0.14731209141E+02  0.18861761082E+04  0.19072459175E+04  0.26298085866E+03 0.  0.
         25    1    4    4    0    0 -0.39763522294E+02 -0.37344437610E+02  0.10928516160E+04  0.11013391427E+04  0.12509000000E+03 0.  0.
         25    1    3    3    0    0  0.10271678598E+03  0.14731209141E+02  0.70250925662E+03  0.72106484478E+03  0.12509000000E+03 0.  0.
         25    1    4    4    0    0 -0.62953263688E+02  0.22613228469E+02  0.79332449223E+03  0.80590677474E+03  0.12509000000E+03 0.  0.
<mgrwt>
<rscale>  2 0.45467081E+03</rscale>
<asrwt>0</asrwt>
<pdfrwt beam="1">  1       21 0.38360242E+00 0.45467081E+03</pdfrwt>
<pdfrwt beam="2">  1       21 0.29136340E-02 0.45467081E+03</pdfrwt>
<totfact> 0.59212678E+03</totfact>
</mgrwt>
</event>
<event>
 7    0  0.4748297E-002  0.4559874E+03  0.7546771E-02  0.1025951E+00
         21   -1    0    0  502  501  0.00000000000E+00  0.00000000000E+00  0.81360944669E+03  0.81360944669E+03  0.00000000000E+00 0. -1.
         21   -1    0    0  501  502 -0.00000000000E+00 -0.00000000000E+00 -0.63889536724E+02  0.63889536724E+02  0.00000000000E+00 0. -1.
      99926    2    1    2    0    0  0.00000000000E+00 -0.14210854715E-13  0.74971990996E+03  0.87749898341E+03  0.45598741484E+03 0.  0.
      99925    2    3    3    0    0 -0.70009908896E+02 -0.82527042557E+02  0.40191283157E+03  0.49236345924E+03  0.26301283566E+03 0.  0.
         25    1    4    4    0    0 -0.57165033322E+02 -0.54799239814E+02  0.27058364012E+03  0.30843769568E+03  0.12509000000E+03 0.  0.
         25    1    3    3    0    0  0.70009908896E+02  0.82527042557E+02  0.34780707839E+03  0.38513552417E+03  0.12509000000E+03 0.  0.
         25    1    4    4    0    0 -0.12844875575E+02 -0.27727802743E+02  0.13132919145E+03  0.18392576356E+03  0.12509000000E+03 0.  0.
<mgrwt>
<rscale>  2 0.45598741E+03</rscale>
<asrwt>0</asrwt>
<pdfrwt beam="1">  1       21 0.11964844E+00 0.45598741E+03</pdfrwt>
<pdfrwt beam="2">  1       21 0.93955206E-02 0.45598741E+03</pdfrwt>
<totfact> 0.43880545E+04</totfact>
</mgrwt>
</event>
<event>
 7    0  0.4748297E-002  0.4549555E+03  0.7546771E-02  0.1026254E+00
         21   -1    0    0  502  501  0.00000000000E+00  0.00000000000E+00  0.94477297885E+02  0.94477297885E+02  0.00000000000E+00 0. -1.
         21   -1    0    0  501  502 -0.00000000000E+00 -0.00000000000E+00 -0.54770966296E+03  0.54770966296E+03  0.00000000000E+00 0. -1.
      99926    2    1    2    0    0 -0.17763568394E-14  0.00000000000E+00 -0.45323236507E+03  0.64218696084E+03  0.45495550983E+03 0.  0.
      99925    2    3    3    0    0  0.12279230969E+02  0.23909854589E+02 -0.13052157200E+03  0.29503825391E+03  0.26322847462E+03 0.  0.
         25    1    3    3    0    0 -0.12279230969E+02 -0.23909854589E+02 -0.32271079308E+03  0.34714870694E+03  0.12509000000E+03 0.  0.
         25    1    4    4    0    0  0.25497058111E+02  0.19225695304E+02 -0.26610772626E+02  0.13181566163E+03  0.12509000000E+03 0.  0.
         25    1    4    4    0    0 -0.13217827142E+02  0.46841592853E+01 -0.10391079937E+03  0.16322259227E+03  0.12509000000E+03 0.  0.
<mgrwt>
<rscale>  2 0.45495551E+03</rscale>
<asrwt>0</asrwt>
<pdfrwt beam="1">  1       21 0.13893721E-01 0.45495551E+03</pdfrwt>
<pdfrwt beam="2">  1       21 0.80545537E-01 0.45495551E+03</pdfrwt>
<totfact> 0.56173574E+04</totfact>
</mgrwt>
</event>
<event>
 7    0  0.4748297E-002  0.4574650E+03  0.7546771E-02  0.1025519E+00
         21   -1    0    0  502  501  0.00000000000E+00  0.00000000000E+00  0.10272529026E+03  0.10272529026E+03  0.00000000000E+00 0. -1.
         21   -1    0    0  501  502 -0.00000000000E+00 -0.00000000000E+00 -0.50930551742E+03  0.50930551742E+03  0.00000000000E+00 0. -1.
      99926    2    1    2    0    0  0.00000000000E+00  0.71054273576E-14 -0.40658022716E+03  0.61203080768E+03  0.45746500242E+03 0.  0.
      99925    2    3    3    0    0  0.88945483781E+02  0.61521256156E+02 -0.30903051251E+03  0.42004221695E+03  0.26313388667E+03 0.  0.
         25    1    4    4    0    0  0.71058482698E+02  0.55805916443E+02 -0.13586440003E+03  0.20559730438E+03  0.12509000000E+03 0.  0.
         25    1    3    3    0    0 -0.88945483781E+02 -0.61521256156E+02 -0.97549714648E+02  0.19198859073E+03  0.12509000000E+03 0.  0.
         25    1    4    4    0    0  0.17887001083E+02  0.57153397134E+01 -0.17316611248E+03  0.21444491257E+03  0.12509000000E+03 0.  0.
<mgrwt>
<rscale>  2 0.45746500E+03</rscale>
<asrwt>0</asrwt>
<pdfrwt beam="1">  1       21 0.15106661E-01 0.45746500E+03</pdfrwt>
<pdfrwt beam="2">  1       21 0.74897869E-01 0.45746500E+03</pdfrwt>
<totfact> 0.56829216E+04</totfact>
</mgrwt>
</event>
<event>
 7    0  0.4748297E-002  0.4441633E+03  0.7546771E-02  0.1029477E+00
         21   -1    0    0  502  501  0.00000000000E+00  0.00000000000E+00  0.14460486556E+03  0.14460486556E+03  0.00000000000E+00 0. -1.
         21   -1    0    0  501  502 -0.00000000000E+00 -0.00000000000E+00 -0.34106908275E+03  0.34106908275E+03  0.00000000000E+00 0. -1.
      99926    2    1    2    0    0  0.00000000000E+00  0.00000000000E+00 -0.19646421718E+03  0.48567394831E+03  0.44416325313E+03 0.  0.
      99925    2    3    3    0    0 -0.20520046123E+02  0.18627878067E+02 -0.16838441800E+02  0.26503624207E+03  0.26304487517E+03 0.  0.
         25    1    4    4    0    0  0.21566615122E+02  0.72952700680E+01  0.17105407543E+02  0.12829046309E+03  0.12509000000E+03 0.  0.
         25    1    4    4    0    0 -0.42086661245E+02  0.11332607999E+02 -0.33943849343E+02  0.13674577897E+03  0.12509000000E+03 0.  0.
         25    1    3    3    0    0  0.20520046123E+02 -0.18627878067E+02 -0.17962577538E+03  0.22063770624E+03  0.12509000000E+03 0.  0.
<mgrwt>
<rscale>  2 0.44416325E+03</rscale>
<asrwt>0</asrwt>
<pdfrwt beam="1">  1       21 0.21265422E-01 0.44416325E+03</pdfrwt>
<pdfrwt beam="2">  1       21 0.50157217E-01 0.44416325E+03</pdfrwt>
<totfact> 0.72312971E+04</totfact>
</mgrwt>
</event>
<event>
 7    0  0.4748297E-002  0.4590913E+03  0.7546771E-02  0.1025045E+00
         21   -1    0    0  502  501  0.00000000000E+00  0.00000000000E+00  0.47163407722E+03  0.47163407722E+03  0.00000000000E+00 0. -1.
         21   -1    0    0  501  502 -0.00000000000E+00 -0.00000000000E+00 -0.11172050253E+03  0.11172050253E+03  0.00000000000E+00 0. -1.
      99926    2    1    2    0    0  0.00000000000E+00  0.00000000000E+00  0.35991357469E+03  0.58335457975E+03  0.45909125941E+03 0.  0.
      99925    2    3    3    0    0  0.50035729399E+02  0.10283236253E+03  0.25669048418E+03  0.38490916279E+03  0.26303419916E+03 0.  0.
         25    1    3    3    0    0 -0.50035729399E+02 -0.10283236253E+03  0.10322309051E+03  0.19844541696E+03  0.12509000000E+03 0.  0.
         25    1    4    4    0    0  0.42375222645E+02  0.86313030380E+02  0.11638125383E+03  0.19605535711E+03  0.12509000000E+03 0.  0.
         25    1    4    4    0    0  0.76605067540E+01  0.16519332147E+02  0.14030923035E+03  0.18885380568E+03  0.12509000000E+03 0.  0.
<mgrwt>
<rscale>  2 0.45909126E+03</rscale>
<asrwt>0</asrwt>
<pdfrwt beam="1">  1       21 0.69357952E-01 0.45909126E+03</pdfrwt>
<pdfrwt beam="2">  1       21 0.16429486E-01 0.45909126E+03</pdfrwt>
<totfact> 0.57821837E+04</totfact>
</mgrwt>
</event>
<event>
 7    0  0.4748297E-002  0.4525178E+03  0.7546771E-02  0.1026974E+00
         21   -1    0    0  502  501  0.00000000000E+00  0.00000000000E+00  0.41241531154E+03  0.41241531154E+03  0.00000000000E+00 0. -1.
         21   -1    0    0  501  502 -0.00000000000E+00 -0.00000000000E+00 -0.12412996798E+03  0.12412996798E+03  0.00000000000E+00 0. -1.
      99926    2    1    2    0    0  0.00000000000E+00  0.00000000000E+00  0.28828534355E+03  0.53654527952E+03  0.45251784238E+03 0.  0.
      99925    2    3    3    0    0 -0.46838191493E+02  0.99785928465E+02  0.17170968676E+03  0.33310379024E+03  0.26329236762E+03 0.  0.
         25    1    4    4    0    0 -0.18304996039E+01  0.84455321245E+02  0.79586770665E+02  0.17063884136E+03  0.12509000000E+03 0.  0.
         25    1    4    4    0    0 -0.45007691889E+02  0.15330607220E+02  0.92122916090E+02  0.16246494888E+03  0.12509000000E+03 0.  0.
         25    1    3    3    0    0  0.46838191493E+02 -0.99785928465E+02  0.11657565680E+03  0.20344148928E+03  0.12509000000E+03 0.  0.
<mgrwt>
<rscale>  2 0.45251784E+03</rscale>
<asrwt>0</asrwt>
<pdfrwt beam="1">  1       21 0.60649310E-01 0.45251784E+03</pdfrwt>
<pdfrwt beam="2">  1       21 0.18254407E-01 0.45251784E+03</pdfrwt>
<totfact> 0.64012771E+04</totfact>
</mgrwt>
</event>
<event>
 7    0  0.4748297E-002  0.4624447E+03  0.7546771E-02  0.1024075E+00
         21   -1    0    0  502  501  0.00000000000E+00  0.00000000000E+00  0.50987777143E+03  0.50987777143E+03  0.00000000000E+00 0.  1.
         21   -1    0    0  501  502 -0.00000000000E+00 -0.00000000000E+00 -0.10485606463E+03  0.10485606463E+03  0.00000000000E+00 0.  1.
      99926    2    1    2    0    0  0.00000000000E+00  0.00000000000E+00  0.40502170680E+03  0.61473383606E+03  0.46244470612E+03 0.  0.
      99925    2    3    3    0    0 -0.99856641811E+02 -0.66562871549E+02  0.25246442224E+03  0.38381567317E+03  0.26300992698E+03 0.  0.
         25    1    4    4    0    0 -0.10879507188E+02 -0.35592171794E+02  0.13728205760E+03  0.18941762803E+03  0.12509000000E+03 0.  0.
         25    1    3    3    0    0  0.99856641811E+02  0.66562871549E+02  0.15255728457E+03  0.23091816290E+03  0.12509000000E+03 0.  0.
         25    1    4    4    0    0 -0.88977134623E+02 -0.30970699755E+02  0.11518236464E+03  0.19439804513E+03  0.12509000000E+03 0.  0.
<mgrwt>
<rscale>  2 0.46244471E+03</rscale>
<asrwt>0</asrwt>
<pdfrwt beam="1">  1       21 0.74982024E-01 0.46244471E+03</pdfrwt>
<pdfrwt beam="2">  1       21 0.15420010E-01 0.46244471E+03</pdfrwt>
<totfact> 0.54504194E+04</totfact>
</mgrwt>
</event>
<event>
 7    0  0.4748297E-002  0.4510728E+03  0.7546771E-02  0.1027403E+00
         21   -1    0    0  502  501  0.00000000000E+00  0.00000000000E+00  0.53769405834E+03  0.53769405834E+03  0.00000000000E+00 0. -1.
         21   -1    0    0  501  502 -0.00000000000E+00 -0.00000000000E+00 -0.94601504925E+02  0.94601504925E+02  0.00000000000E+00 0. -1.
      99926    2    1    2    0    0  0.00000000000E+00  0.00000000000E+00  0.44309255342E+03  0.63229556327E+03  0.45107279727E+03 0.  0.
      99925    2    3    3    0    0 -0.41336074243E+02  0.12581383203E+02  0.13881291727E+03  0.30048150794E+03  0.26296986211E+03 0.  0.
         25    1    3    3    0    0  0.41336074243E+02 -0.12581383203E+02  0.30427963615E+03  0.33181405532E+03  0.12509000000E+03 0.  0.
         25    1    4    4    0    0 -0.49822248039E+02  0.16154013483E+01  0.10328720882E+03  0.16970745866E+03  0.12509000000E+03 0.  0.
         25    1    4    4    0    0  0.84861737958E+01  0.10965981855E+02  0.35525708455E+02  0.13077404928E+03  0.12509000000E+03 0.  0.
<mgrwt>
<rscale>  2 0.45107280E+03</rscale>
<asrwt>0</asrwt>
<pdfrwt beam="1">  1       21 0.79072654E-01 0.45107280E+03</pdfrwt>
<pdfrwt beam="2">  1       21 0.13911986E-01 0.45107280E+03</pdfrwt>
<totfact> 0.58526385E+04</totfact>
</mgrwt>
</event>
<event>
 7    0  0.4748297E-002  0.4619049E+03  0.7546771E-02  0.1024230E+00
         21   -1    0    0  502  501  0.00000000000E+00  0.00000000000E+00  0.29393125980E+02  0.29393125980E+02  0.00000000000E+00 0.  1.
         21   -1    0    0  501  502 -0.00000000000E+00 -0.00000000000E+00 -0.18146772975E+04  0.18146772975E+04  0.00000000000E+00 0.  1.
      99926    2    1    2    0    0  0.00000000000E+00  0.00000000000E+00 -0.17852841715E+04  0.18440704235E+04  0.46190491843E+03 0.  0.
      99925    2    3    3    0    0  0.94645538830E+02 -0.30541553888E+02 -0.13814519618E+04  0.14097680792E+04  0.26295617476E+03 0.  0.
         25    1    4    4    0    0  0.15780022180E+02  0.12030277647E+02 -0.66972188171E+03  0.68159272563E+03  0.12509000000E+03 0.  0.
         25    1    3    3    0    0 -0.94645538830E+02  0.30541553888E+02 -0.40383220966E+03  0.43430234422E+03  0.12509000000E+03 0.  0.
         25    1    4    4    0    0  0.78865516651E+02 -0.42571831534E+02 -0.71173008013E+03  0.72817535362E+03  0.12509000000E+03 0.  0.
<mgrwt>
<rscale>  2 0.46190492E+03</rscale>
<asrwt>0</asrwt>
<pdfrwt beam="1">  1       21 0.43225174E-02 0.46190492E+03</pdfrwt>
<pdfrwt beam="2">  1       21 0.26686438E+00 0.46190492E+03</pdfrwt>
<totfact> 0.15575590E+04</totfact>
</mgrwt>
</event>
<event>
 7    0  0.4748297E-002  0.4805045E+03  0.7546771E-02  0.1018997E+00
         21   -1    0    0  502  501  0.00000000000E+00  0.00000000000E+00  0.31868385817E+02  0.31868385817E+02  0.00000000000E+00 0. -1.
         21   -1    0    0  501  502 -0.00000000000E+00 -0.00000000000E+00 -0.18112354430E+04  0.18112354430E+04  0.00000000000E+00 0. -1.
      99926    2    1    2    0    0 -0.71054273576E-14  0.28421709430E-13 -0.17793670572E+04  0.18431038288E+04  0.48050452612E+03 0.  0.
      99925    2    3    3    0    0 -0.27566456727E+02  0.13289853402E+03 -0.10965596385E+04  0.11357881927E+04  0.26296358718E+03 0.  0.
         25    1    3    3    0    0  0.27566456727E+02 -0.13289853402E+03 -0.68280741875E+03  0.70731563611E+03  0.12509000000E+03 0.  0.
         25    1    4    4    0    0  0.73819740081E+01  0.85837114408E+02 -0.46058719866E+03  0.48498513320E+03  0.12509000000E+03 0.  0.
         25    1    4    4    0    0 -0.34948430736E+02  0.47061419612E+02 -0.63597243980E+03  0.65080305954E+03  0.12509000000E+03 0.  0.
<mgrwt>
<rscale>  2 0.48050453E+03</rscale>
<asrwt>0</asrwt>
<pdfrwt beam="1">  1       21 0.46865289E-02 0.48050453E+03</pdfrwt>
<pdfrwt beam="2">  1       21 0.26635806E+00 0.48050453E+03</pdfrwt>
<totfact> 0.13556039E+04</totfact>
</mgrwt>
</event>
<event>
 7    0  0.4748297E-002  0.4555062E+03  0.7546771E-02  0.1026093E+00
         21   -1    0    0  502  501  0.00000000000E+00  0.00000000000E+00  0.18560401792E+03  0.18560401792E+03  0.00000000000E+00 0.  1.
         21   -1    0    0  501  502 -0.00000000000E+00 -0.00000000000E+00 -0.27947390023E+03  0.27947390023E+03  0.00000000000E+00 0.  1.
      99926    2    1    2    0    0  0.00000000000E+00  0.00000000000E+00 -0.93869882318E+02  0.46507791815E+03  0.45550621856E+03 0.  0.
      99925    2    3    3    0    0  0.39566103860E+02  0.92830887693E+02 -0.56539431850E+01  0.28174049616E+03  0.26298800318E+03 0.  0.
         25    1    4    4    0    0  0.10963180343E+02  0.86387613274E+02  0.74249340711E+01  0.15259635905E+03  0.12509000000E+03 0.  0.
         25    1    3    3    0    0 -0.39566103860E+02 -0.92830887693E+02 -0.88215939133E+02  0.18333742199E+03  0.12509000000E+03 0.  0.
         25    1    4    4    0    0  0.28602923517E+02  0.64432744194E+01 -0.13078877256E+02  0.12914413711E+03  0.12509000000E+03 0.  0.
<mgrwt>
<rscale>  2 0.45550622E+03</rscale>
<asrwt>0</asrwt>
<pdfrwt beam="1">  1       21 0.27294709E-01 0.45550622E+03</pdfrwt>
<pdfrwt beam="2">  1       21 0.41099102E-01 0.45550622E+03</pdfrwt>
<totfact> 0.67532335E+04</totfact>
</mgrwt>
</event>
<event>
 7    0  0.4748297E-002  0.4611351E+03  0.7546771E-02  0.1024453E+00
         21   -1    0    0  502  501  0.00000000000E+00  0.00000000000E+00  0.38215203759E+02  0.38215203759E+02  0.00000000000E+00 0.  1.
         21   -1    0    0  501  502 -0.00000000000E+00 -0.00000000000E+00 -0.13911059516E+04  0.13911059516E+04  0.00000000000E+00 0.  1.
      99926    2    1    2    0    0  0.35527136788E-14  0.17763568394E-14 -0.13528907478E+04  0.14293211554E+04  0.46113510988E+03 0.  0.
      99925    2    3    3    0    0 -0.23178724597E+02  0.12480630420E+02 -0.12062532809E+04  0.12347881910E+04  0.26260593971E+03 0.  0.
         25    1    4    4    0    0 -0.44514032300E+02 -0.10350312425E+01 -0.71538598988E+03  0.72760373349E+03  0.12509000000E+03 0.  0.
         25    1    4    4    0    0  0.21335307703E+02  0.13515661663E+02 -0.49086729099E+03  0.50718445750E+03  0.12509000000E+03 0.  0.
         25    1    3    3    0    0  0.23178724597E+02 -0.12480630420E+02 -0.14663746697E+03  0.19453296437E+03  0.12509000000E+03 0.  0.
<mgrwt>
<rscale>  2 0.46113511E+03</rscale>
<asrwt>0</asrwt>
<pdfrwt beam="1">  1       21 0.56198837E-02 0.46113511E+03</pdfrwt>
<pdfrwt beam="2">  1       21 0.20457437E+00 0.46113511E+03</pdfrwt>
<totfact> 0.24378049E+04</totfact>
</mgrwt>
</event>
<event>
 7    0  0.4748297E-002  0.4553609E+03  0.7546771E-02  0.1026135E+00
         21   -1    0    0  502  501  0.00000000000E+00  0.00000000000E+00  0.24976860575E+02  0.24976860575E+02  0.00000000000E+00 0.  1.
         21   -1    0    0  501  502 -0.00000000000E+00 -0.00000000000E+00 -0.20754569321E+04  0.20754569321E+04  0.00000000000E+00 0.  1.
      99926    2    1    2    0    0 -0.14210854715E-13  0.00000000000E+00 -0.20504800715E+04  0.21004337927E+04  0.45536094880E+03 0.  0.
      99925    2    3    3    0    0 -0.59890228528E+02 -0.96303714250E+02 -0.13071311729E+04  0.13381501591E+04  0.26304505363E+03 0.  0.
         25    1    4    4    0    0 -0.70320337467E+02 -0.55012840054E+02 -0.74667203254E+03  0.76232407459E+03  0.12509000000E+03 0.  0.
         25    1    3    3    0    0  0.59890228528E+02  0.96303714250E+02 -0.74334889865E+03  0.76228363362E+03  0.12509000000E+03 0.  0.
         25    1    4    4    0    0  0.10430108938E+02 -0.41290874196E+02 -0.56045914035E+03  0.57582608448E+03  0.12509000000E+03 0.  0.
<mgrwt>
<rscale>  2 0.45536095E+03</rscale>
<asrwt>0</asrwt>
<pdfrwt beam="1">  1       21 0.36730689E-02 0.45536095E+03</pdfrwt>
<pdfrwt beam="2">  1       21 0.30521416E+00 0.45536095E+03</pdfrwt>
<totfact> 0.12104489E+04</totfact>
</mgrwt>
</event>
<event>
 7    0  0.4748297E-002  0.4892495E+03  0.7546771E-02  0.1016624E+00
         21   -1    0    0  502  501  0.00000000000E+00  0.00000000000E+00  0.99138160726E+02  0.99138160726E+02  0.00000000000E+00 0. -1.
         21   -1    0    0  501  502 -0.00000000000E+00 -0.00000000000E+00 -0.60361487751E+03  0.60361487751E+03  0.00000000000E+00 0. -1.
      99926    2    1    2    0    0  0.00000000000E+00  0.00000000000E+00 -0.50447671679E+03  0.70275303824E+03  0.48924950176E+03 0.  0.
      99925    2    3    3    0    0 -0.69879187385E+02 -0.12289230729E+03 -0.28423735817E+03  0.41268666100E+03  0.26369259444E+03 0.  0.
         25    1    3    3    0    0  0.69879187385E+02  0.12289230729E+03 -0.22023935862E+03  0.29006637724E+03  0.12509000000E+03 0.  0.
         25    1    4    4    0    0 -0.32755561260E+02 -0.10683262444E+03 -0.15927662675E+03  0.23130648147E+03  0.12509000000E+03 0.  0.
         25    1    4    4    0    0 -0.37123626125E+02 -0.16059682852E+02 -0.12496073142E+03  0.18138017953E+03  0.12509000000E+03 0.  0.
<mgrwt>
<rscale>  2 0.48924950E+03</rscale>
<asrwt>0</asrwt>
<pdfrwt beam="1">  1       21 0.14579142E-01 0.48924950E+03</pdfrwt>
<pdfrwt beam="2">  1       21 0.88766892E-01 0.48924950E+03</pdfrwt>
<totfact> 0.40633084E+04</totfact>
</mgrwt>
</event>
<event>
 7    0  0.4748297E-002  0.4680862E+03  0.7546771E-02  0.1022462E+00
         21   -1    0    0  502  501  0.00000000000E+00  0.00000000000E+00  0.42236366919E+03  0.42236366919E+03  0.00000000000E+00 0. -1.
         21   -1    0    0  501  502 -0.00000000000E+00 -0.00000000000E+00 -0.12968957322E+03  0.12968957322E+03  0.00000000000E+00 0. -1.
      99926    2    1    2    0    0  0.00000000000E+00  0.00000000000E+00  0.29267409597E+03  0.55205324242E+03  0.46808616302E+03 0.  0.
      99925    2    3    3    0    0 -0.89636757110E+02  0.32102624100E+02  0.27772351938E+03  0.39414075228E+03  0.26296625771E+03 0.  0.
         25    1    4    4    0    0 -0.61600140426E+02  0.53714636250E+02  0.14024493953E+03  0.20492923318E+03  0.12509000000E+03 0.  0.
         25    1    4    4    0    0 -0.28036616685E+02 -0.21612012150E+02  0.13747857985E+03  0.18921151910E+03  0.12509000000E+03 0.  0.
         25    1    3    3    0    0  0.89636757110E+02 -0.32102624100E+02  0.14950576596E+02  0.15791249013E+03  0.12509000000E+03 0.  0.
<mgrwt>
<rscale>  2 0.46808616E+03</rscale>
<asrwt>0</asrwt>
<pdfrwt beam="1">  1       21 0.62112304E-01 0.46808616E+03</pdfrwt>
<pdfrwt beam="2">  1       21 0.19071996E-01 0.46808616E+03</pdfrwt>
<totfact> 0.55731162E+04</totfact>
</mgrwt>
</event>
<event>
 6    0  0.4748297E-002  0.4415523E+03  0.7546771E-02  0.1030272E+00
         21   -1    0    0  502  501  0.00000000000E+00  0.00000000000E+00  0.54297778948E+02  0.54297778948E+02  0.00000000000E+00 0.  1.
         21   -1    0    0  501  502 -0.00000000000E+00 -0.00000000000E+00 -0.89768133542E+03  0.89768133542E+03  0.00000000000E+00 0.  1.
      99926    2    1    2    0    0 -0.71054273576E-14  0.00000000000E+00 -0.84338355647E+03  0.95197911437E+03  0.44155227421E+03 0.  0.
         25    1    3    3    0    0 -0.39230613777E+02  0.43334626857E+02 -0.12504738576E+03  0.18628281651E+03  0.12509000000E+03 0.  0.
         25    1    3    3    0    0  0.11534689293E+02 -0.30866192020E+02 -0.27242578131E+03  0.30157766046E+03  0.12509000000E+03 0.  0.
         25    1    3    3    0    0  0.27695924484E+02 -0.12468434837E+02 -0.44591038940E+03  0.46411863739E+03  0.12509000000E+03 0.  0.
<mgrwt>
<rscale>  2 0.44155227E+03</rscale>
<asrwt>0</asrwt>
<pdfrwt beam="1">  1       21 0.79849679E-02 0.44155227E+03</pdfrwt>
<pdfrwt beam="2">  1       21 0.13201196E+00 0.44155227E+03</pdfrwt>
<totfact> 0.45678180E+04</totfact>
</mgrwt>
</event>
<event>
 7    0  0.4748297E-002  0.4547485E+03  0.7546771E-02  0.1026315E+00
         21   -1    0    0  502  501  0.00000000000E+00  0.00000000000E+00  0.55200649271E+02  0.55200649271E+02  0.00000000000E+00 0. -1.
         21   -1    0    0  501  502 -0.00000000000E+00 -0.00000000000E+00 -0.93656580654E+03  0.93656580654E+03  0.00000000000E+00 0. -1.
      99926    2    1    2    0    0  0.00000000000E+00  0.00000000000E+00 -0.88136515727E+03  0.99176645581E+03  0.45474846061E+03 0.  0.
      99925    2    3    3    0    0 -0.78197721661E+02  0.76929750224E+02 -0.61100365486E+03  0.67431422282E+03  0.26332704895E+03 0.  0.
         25    1    4    4    0    0 -0.39557422093E+02  0.19127615279E+02 -0.20808532192E+03  0.24673399564E+03  0.12509000000E+03 0.  0.
         25    1    3    3    0    0  0.78197721661E+02 -0.76929750224E+02 -0.27036150241E+03  0.31745223299E+03  0.12509000000E+03 0.  0.
         25    1    4    4    0    0 -0.38640299568E+02  0.57802134946E+02 -0.40291833294E+03  0.42758022718E+03  0.12509000000E+03 0.  0.
<mgrwt>
<rscale>  2 0.45474846E+03</rscale>
<asrwt>0</asrwt>
<pdfrwt beam="1">  1       21 0.81177430E-02 0.45474846E+03</pdfrwt>
<pdfrwt beam="2">  1       21 0.13773026E+00 0.45474846E+03</pdfrwt>
<totfact> 0.39566220E+04</totfact>
</mgrwt>
</event>
<event>
 7    0  0.4748297E-002  0.4497297E+03  0.7546771E-02  0.1027803E+00
         21   -1    0    0  502  501  0.00000000000E+00  0.00000000000E+00  0.22590286740E+03  0.22590286740E+03  0.00000000000E+00 0. -1.
         21   -1    0    0  501  502 -0.00000000000E+00 -0.00000000000E+00 -0.22383159749E+03  0.22383159749E+03  0.00000000000E+00 0. -1.
      99926    2    1    2    0    0 -0.14210854715E-13 -0.35527136788E-14  0.20712699044E+01  0.44973446489E+03  0.44972969521E+03 0.  0.
      99925    2    3    3    0    0 -0.98679101599E+02 -0.23922047363E+02  0.38633274096E+02  0.28452515010E+03  0.26296806219E+03 0.  0.
         25    1    4    4    0    0 -0.24783983399E+02 -0.22095211273E+02  0.50090256694E+02  0.13877674917E+03  0.12509000000E+03 0.  0.
         25    1    4    4    0    0 -0.73895118200E+02 -0.18268360893E+01 -0.11456982598E+02  0.14574840093E+03  0.12509000000E+03 0.  0.
         25    1    3    3    0    0  0.98679101599E+02  0.23922047363E+02 -0.36562004192E+02  0.16520931479E+03  0.12509000000E+03 0.  0.
<mgrwt>
<rscale>  2 0.44972970E+03</rscale>
<asrwt>0</asrwt>
<pdfrwt beam="1">  1       21 0.33221010E-01 0.44972970E+03</pdfrwt>
<pdfrwt beam="2">  1       21 0.32916411E-01 0.44972970E+03</pdfrwt>
<totfact> 0.71909956E+04</totfact>
</mgrwt>
</event>
<event>
 7    0  0.4748297E-002  0.4506206E+03  0.7546771E-02  0.1027537E+00
         21   -1    0    0  502  501  0.00000000000E+00  0.00000000000E+00  0.17504809486E+03  0.17504809486E+03  0.00000000000E+00 0.  1.
         21   -1    0    0  501  502 -0.00000000000E+00 -0.00000000000E+00 -0.29000445785E+03  0.29000445785E+03  0.00000000000E+00 0.  1.
      99926    2    1    2    0    0  0.00000000000E+00  0.00000000000E+00 -0.11495636299E+03  0.46505255271E+03  0.45062058474E+03 0.  0.
      99925    2    3    3    0    0  0.65865452248E+02  0.36366473938E+02  0.90310997866E+01  0.27352924537E+03  0.26282296148E+03 0.  0.
         25    1    4    4    0    0  0.61561115277E+02  0.45031436391E+02 -0.89540056072E+01  0.14678311720E+03  0.12509000000E+03 0.  0.
         25    1    3    3    0    0 -0.65865452248E+02 -0.36366473938E+02 -0.12398746278E+03  0.19152330734E+03  0.12509000000E+03 0.  0.
         25    1    4    4    0    0  0.43043369702E+01 -0.86649624531E+01  0.17985105394E+02  0.12674612817E+03  0.12509000000E+03 0.  0.
<mgrwt>
<rscale>  2 0.45062058E+03</rscale>
<asrwt>0</asrwt>
<pdfrwt beam="1">  1       21 0.25742367E-01 0.45062058E+03</pdfrwt>
<pdfrwt beam="2">  1       21 0.42647714E-01 0.45062058E+03</pdfrwt>
<totfact> 0.70213193E+04</totfact>
</mgrwt>
</event>
<event>
 7    0  0.4748297E-002  0.4608891E+03  0.7546771E-02  0.1024524E+00
         21   -1    0    0  502  501  0.00000000000E+00  0.00000000000E+00  0.12960771653E+03  0.12960771653E+03  0.00000000000E+00 0.  1.
         21   -1    0    0  501  502 -0.00000000000E+00 -0.00000000000E+00 -0.40973404194E+03  0.40973404194E+03  0.00000000000E+00 0.  1.
      99926    2    1    2    0    0  0.00000000000E+00  0.00000000000E+00 -0.28012632541E+03  0.53934175848E+03  0.46088911275E+03 0.  0.
      99925    2    3    3    0    0  0.82989503746E+02  0.57928490548E+02 -0.10363314409E+03  0.30051060703E+03  0.26329418648E+03 0.  0.
         25    1    4    4    0    0  0.66869025435E+02  0.18949083972E+02 -0.20648303774E+02  0.14458352221E+03  0.12509000000E+03 0.  0.
         25    1    4    4    0    0  0.16120478311E+02  0.38979406577E+02 -0.82984840317E+02  0.15592708482E+03  0.12509000000E+03 0.  0.
         25    1    3    3    0    0 -0.82989503746E+02 -0.57928490548E+02 -0.17649318132E+03  0.23883115145E+03  0.12509000000E+03 0.  0.
<mgrwt>
<rscale>  2 0.46088911E+03</rscale>
<asrwt>0</asrwt>
<pdfrwt beam="1">  1       21 0.19059958E-01 0.46088911E+03</pdfrwt>
<pdfrwt beam="2">  1       21 0.60255007E-01 0.46088911E+03</pdfrwt>
<totfact> 0.59741268E+04</totfact>
</mgrwt>
</event>
<event>
 7    0  0.4748297E-002  0.4444300E+03  0.7546771E-02  0.1029396E+00
         21   -1    0    0  502  501  0.00000000000E+00  0.00000000000E+00  0.70972756210E+03  0.70972756210E+03  0.00000000000E+00 0. -1.
         21   -1    0    0  501  502 -0.00000000000E+00 -0.00000000000E+00 -0.69575305980E+02  0.69575305980E+02  0.00000000000E+00 0. -1.
      99926    2    1    2    0    0  0.00000000000E+00  0.00000000000E+00  0.64015225612E+03  0.77930286808E+03  0.44443002732E+03 0.  0.
      99925    2    3    3    0    0 -0.26796877117E+02 -0.71324298480E+02  0.28594271470E+03  0.39600515675E+03  0.26315702519E+03 0.  0.
         25    1    3    3    0    0  0.26796877117E+02  0.71324298480E+02  0.35420954141E+03  0.38329771132E+03  0.12509000000E+03 0.  0.
         25    1    4    4    0    0 -0.47366821462E+02 -0.57453537670E+02  0.13668502841E+03  0.19968682945E+03  0.12509000000E+03 0.  0.
         25    1    4    4    0    0  0.20569944345E+02 -0.13870760809E+02  0.14925768629E+03  0.19631832730E+03  0.12509000000E+03 0.  0.
<mgrwt>
<rscale>  2 0.44443003E+03</rscale>
<asrwt>0</asrwt>
<pdfrwt beam="1">  1       21 0.10437170E+00 0.44443003E+03</pdfrwt>
<pdfrwt beam="2">  1       21 0.10231663E-01 0.44443003E+03</pdfrwt>
<totfact> 0.53048524E+04</totfact>
</mgrwt>
</event>
<event>
 7    0  0.4748297E-002  0.4572525E+03  0.7546771E-02  0.1025581E+00
         21   -1    0    0  502  501  0.00000000000E+00  0.00000000000E+00  0.74905251876E+02  0.74905251876E+02  0.00000000000E+00 0. -1.
         21   -1    0    0  501  502 -0.00000000000E+00 -0.00000000000E+00 -0.69781442356E+03  0.69781442356E+03  0.00000000000E+00 0. -1.
      99926    2    1    2    0    0  0.00000000000E+00  0.14210854715E-13 -0.62290917168E+03  0.77271967544E+03  0.45725251299E+03 0.  0.
      99925    2    3    3    0    0  0.23514362036E+02 -0.11258567719E+03 -0.40981969475E+03  0.50017042629E+03  0.26265911977E+03 0.  0.
         25    1    3    3    0    0 -0.23514362036E+02  0.11258567719E+03 -0.21308947693E+03  0.27254924915E+03  0.12509000000E+03 0.  0.
         25    1    4    4    0    0  0.17081353685E+02 -0.98609781716E+02 -0.24404681037E+03  0.29192809978E+03  0.12509000000E+03 0.  0.
         25    1    4    4    0    0  0.64330083506E+01 -0.13975895477E+02 -0.16577288438E+03  0.20824232650E+03  0.12509000000E+03 0.  0.
<mgrwt>
<rscale>  2 0.45725251E+03</rscale>
<asrwt>0</asrwt>
<pdfrwt beam="1">  1       21 0.11015479E-01 0.45725251E+03</pdfrwt>
<pdfrwt beam="2">  1       21 0.10261976E+00 0.45725251E+03</pdfrwt>
<totfact> 0.48253737E+04</totfact>
</mgrwt>
</event>
<event>
 7    0  0.4748297E-002  0.3928058E+03  0.7546771E-02  0.1046300E+00
         21   -1    0    0  502  501  0.00000000000E+00  0.00000000000E+00  0.38993821771E+03  0.38993821771E+03  0.00000000000E+00 0. -1.
         21   -1    0    0  501  502 -0.00000000000E+00 -0.00000000000E+00 -0.98923599949E+02  0.98923599949E+02  0.00000000000E+00 0. -1.
      99926    2    1    2    0    0  0.00000000000E+00  0.88817841970E-15  0.29101461776E+03  0.48886181766E+03  0.39280576500E+03 0.  0.
      99925    2    3    3    0    0 -0.27629229411E+02 -0.72744956089E+01  0.19558072306E+03  0.32895112707E+03  0.26294625338E+03 0.  0.
         25    1    4    4    0    0 -0.18761932675E+02 -0.18339927444E+02  0.14497126061E+03  0.19326804588E+03  0.12509000000E+03 0.  0.
         25    1    4    4    0    0 -0.88672967360E+01  0.11065431835E+02  0.50609462448E+02  0.13568308119E+03  0.12509000000E+03 0.  0.
         25    1    3    3    0    0  0.27629229411E+02  0.72744956089E+01  0.95433894706E+02  0.15991069058E+03  0.12509000000E+03 0.  0.
<mgrwt>
<rscale>  2 0.39280576E+03</rscale>
<asrwt>0</asrwt>
<pdfrwt beam="1">  1       21 0.57343855E-01 0.39280576E+03</pdfrwt>
<pdfrwt beam="2">  1       21 0.14547588E-01 0.39280576E+03</pdfrwt>
<totfact> 0.11185023E+05</totfact>
</mgrwt>
</event>
<event>
 7    0  0.4748297E-002  0.4523321E+03  0.7546771E-02  0.1027029E+00
         21   -1    0    0  502  501  0.00000000000E+00  0.00000000000E+00  0.97537871098E+02  0.97537871098E+02  0.00000000000E+00 0.  1.
         21   -1    0    0  501  502 -0.00000000000E+00 -0.00000000000E+00 -0.52442270243E+03  0.52442270243E+03  0.00000000000E+00 0.  1.
      99926    2    1    2    0    0  0.00000000000E+00  0.00000000000E+00 -0.42688483134E+03  0.62196057353E+03  0.45233206365E+03 0.  0.
      99925    2    3    3    0    0 -0.10660219656E+03 -0.26767040020E+02 -0.28542214929E+03  0.40346640598E+03  0.26313273211E+03 0.  0.
         25    1    3    3    0    0  0.10660219656E+03  0.26767040020E+02 -0.14146268205E+03  0.21849416755E+03  0.12509000000E+03 0.  0.
         25    1    4    4    0    0 -0.65484564552E+02 -0.84426337728E+01 -0.91897521407E+02  0.16867770689E+03  0.12509000000E+03 0.  0.
         25    1    4    4    0    0 -0.41117632004E+02 -0.18324406247E+02 -0.19352462788E+03  0.23478869909E+03  0.12509000000E+03 0.  0.
<mgrwt>
<rscale>  2 0.45233206E+03</rscale>
<asrwt>0</asrwt>
<pdfrwt beam="1">  1       21 0.14343804E-01 0.45233206E+03</pdfrwt>
<pdfrwt beam="2">  1       21 0.77120986E-01 0.45233206E+03</pdfrwt>
<totfact> 0.58570615E+04</totfact>
</mgrwt>
</event>
<event>
 7    0  0.4748297E-002  0.4566524E+03  0.7546771E-02  0.1025757E+00
         21   -1    0    0  502  501  0.00000000000E+00  0.00000000000E+00  0.36301409657E+03  0.36301409657E+03  0.00000000000E+00 0.  1.
         21   -1    0    0  501  502 -0.00000000000E+00 -0.00000000000E+00 -0.14361108200E+03  0.14361108200E+03  0.00000000000E+00 0.  1.
      99926    2    1    2    0    0 -0.22204460493E-15  0.00000000000E+00  0.21940301457E+03  0.50662517858E+03  0.45665237190E+03 0.  0.
      99925    2    3    3    0    0  0.14565413186E+01 -0.10774078840E+03  0.18173882736E+03  0.33728440352E+03  0.26290981056E+03 0.  0.
         25    1    4    4    0    0 -0.10145607684E+02 -0.75269855057E+02  0.13577997238E+03  0.19963014160E+03  0.12509000000E+03 0.  0.
         25    1    3    3    0    0 -0.14565413186E+01  0.10774078840E+03  0.37664187208E+02  0.16934077505E+03  0.12509000000E+03 0.  0.
         25    1    4    4    0    0  0.11602149002E+02 -0.32470933345E+02  0.45958854976E+02  0.13765426192E+03  0.12509000000E+03 0.  0.
<mgrwt>
<rscale>  2 0.45665237E+03</rscale>
<asrwt>0</asrwt>
<pdfrwt beam="1">  1       21 0.53384426E-01 0.45665237E+03</pdfrwt>
<pdfrwt beam="2">  1       21 0.21119277E-01 0.45665237E+03</pdfrwt>
<totfact> 0.63964653E+04</totfact>
</mgrwt>
</event>
<event>
 7    0  0.4748297E-002  0.4801396E+03  0.7546771E-02  0.1019097E+00
         21   -1    0    0  502  501  0.00000000000E+00  0.00000000000E+00  0.69203441196E+03  0.69203441196E+03  0.00000000000E+00 0.  1.
         21   -1    0    0  501  502 -0.00000000000E+00 -0.00000000000E+00 -0.83281274249E+02  0.83281274249E+02  0.00000000000E+00 0.  1.
      99926    2    1    2    0    0  0.00000000000E+00  0.35527136788E-14  0.60875313771E+03  0.77531568621E+03  0.48013959492E+03 0.  0.
      99925    2    3    3    0    0  0.66619228957E+02 -0.21609287372E+02  0.18874879905E+03  0.33151816981E+03  0.26338774612E+03 0.  0.
         25    1    4    4    0    0  0.22194832192E+02  0.27344770542E+02  0.75509167393E+02  0.15029800236E+03  0.12509000000E+03 0.  0.
         25    1    3    3    0    0 -0.66619228957E+02  0.21609287372E+02  0.42000433866E+03  0.44379751640E+03  0.12509000000E+03 0.  0.
         25    1    4    4    0    0  0.44424396766E+02 -0.48954057913E+02  0.11323963166E+03  0.18122016745E+03  0.12509000000E+03 0.  0.
<mgrwt>
<rscale>  2 0.48013959E+03</rscale>
<asrwt>0</asrwt>
<pdfrwt beam="1">  1       21 0.10176976E+00 0.48013959E+03</pdfrwt>
<pdfrwt beam="2">  1       21 0.12247247E-01 0.48013959E+03</pdfrwt>
<totfact> 0.40399977E+04</totfact>
</mgrwt>
</event>
<event>
 7    0  0.4748297E-002  0.4121144E+03  0.7546771E-02  0.1039664E+00
         21   -1    0    0  502  501  0.00000000000E+00  0.00000000000E+00  0.10127710503E+04  0.10127710503E+04  0.00000000000E+00 0.  1.
         21   -1    0    0  501  502 -0.00000000000E+00 -0.00000000000E+00 -0.41924148327E+02  0.41924148327E+02  0.00000000000E+00 0.  1.
      99926    2    1    2    0    0  0.71054273576E-14 -0.71054273576E-14  0.97084690202E+03  0.10546951987E+04  0.41211437119E+03 0.  0.
      99925    2    3    3    0    0  0.45310357028E+02 -0.36396887908E+02  0.71468187026E+03  0.76375569723E+03  0.26301107861E+03 0.  0.
         25    1    4    4    0    0  0.40107502207E+01 -0.38753124745E+02  0.27245553284E+03  0.30232005602E+03  0.12509000000E+03 0.  0.
         25    1    3    3    0    0 -0.45310357028E+02  0.36396887908E+02  0.25616503176E+03  0.29093950144E+03  0.12509000000E+03 0.  0.
         25    1    4    4    0    0  0.41299606807E+02  0.23562368367E+01  0.44222633742E+03  0.46143564121E+03  0.12509000000E+03 0.  0.
<mgrwt>
<rscale>  2 0.41211437E+03</rscale>
<asrwt>0</asrwt>
<pdfrwt beam="1">  1       21 0.14893690E+00 0.41211437E+03</pdfrwt>
<pdfrwt beam="2">  1       21 0.61653166E-02 0.41211437E+03</pdfrwt>
<totfact> 0.52638174E+04</totfact>
</mgrwt>
</event>
<event>
 7    0  0.4748297E-002  0.4509897E+03  0.7546771E-02  0.1027427E+00
         21   -1    0    0  502  501  0.00000000000E+00  0.00000000000E+00  0.74315673084E+03  0.74315673084E+03  0.00000000000E+00 0.  1.
         21   -1    0    0  501  502 -0.00000000000E+00 -0.00000000000E+00 -0.68421552333E+02  0.68421552333E+02  0.00000000000E+00 0.  1.
      99926    2    1    2    0    0  0.00000000000E+00 -0.14210854715E-13  0.67473517851E+03  0.81157828318E+03  0.45098974335E+03 0.  0.
      99925    2    3    3    0    0  0.31490845573E+02 -0.80945347777E+02  0.54373027698E+03  0.61069619088E+03  0.26412762211E+03 0.  0.
         25    1    4    4    0    0  0.13668700131E+02 -0.84418416283E+02  0.28777180162E+03  0.32522825874E+03  0.12509000000E+03 0.  0.
         25    1    3    3    0    0 -0.31490845573E+02  0.80945347777E+02  0.13100490153E+03  0.20088209230E+03  0.12509000000E+03 0.  0.
         25    1    4    4    0    0  0.17822145442E+02  0.34730685055E+01  0.25595847536E+03  0.28546793214E+03  0.12509000000E+03 0.  0.
<mgrwt>
<rscale>  2 0.45098974E+03</rscale>
<asrwt>0</asrwt>
<pdfrwt beam="1">  1       21 0.10928775E+00 0.45098974E+03</pdfrwt>
<pdfrwt beam="2">  1       21 0.10061993E-01 0.45098974E+03</pdfrwt>
<totfact> 0.48725215E+04</totfact>
</mgrwt>
</event>
<event>
 7    0  0.4748297E-002  0.4553194E+03  0.7546771E-02  0.1026148E+00
         21   -1    0    0  502  501  0.00000000000E+00  0.00000000000E+00  0.55401345899E+02  0.55401345899E+02  0.00000000000E+00 0. -1.
         21   -1    0    0  501  502 -0.00000000000E+00 -0.00000000000E+00 -0.93551759979E+03  0.93551759979E+03  0.00000000000E+00 0. -1.
      99926    2    1    2    0    0  0.00000000000E+00 -0.26645352591E-14 -0.88011625389E+03  0.99091894569E+03  0.45531937864E+03 0.  0.
      99925    2    3    3    0    0  0.98573916179E+02 -0.71001538117E+01 -0.67888347171E+03  0.73419074339E+03  0.26150726638E+03 0.  0.
         25    1    4    4    0    0  0.59764125606E+02  0.31509162323E+02 -0.37477236332E+03  0.40083214745E+03  0.12509000000E+03 0.  0.
         25    1    4    4    0    0  0.38809790573E+02 -0.38609316135E+02 -0.30411110840E+03  0.33335859594E+03  0.12509000000E+03 0.  0.
         25    1    3    3    0    0 -0.98573916179E+02  0.71001538117E+01 -0.20123278217E+03  0.25672820230E+03  0.12509000000E+03 0.  0.
<mgrwt>
<rscale>  2 0.45531938E+03</rscale>
<asrwt>0</asrwt>
<pdfrwt beam="1">  1       21 0.81472574E-02 0.45531938E+03</pdfrwt>
<pdfrwt beam="2">  1       21 0.13757611E+00 0.45531938E+03</pdfrwt>
<totfact> 0.39423393E+04</totfact>
</mgrwt>
</event>
<event>
 7    0  0.4748297E-002  0.4629016E+03  0.7546771E-02  0.1023943E+00
         21   -1    0    0  502  501  0.00000000000E+00  0.00000000000E+00  0.25418022580E+03  0.25418022580E+03  0.00000000000E+00 0. -1.
         21   -1    0    0  501  502 -0.00000000000E+00 -0.00000000000E+00 -0.21075386264E+03  0.21075386264E+03  0.00000000000E+00 0. -1.
      99926    2    1    2    0    0  0.00000000000E+00  0.14210854715E-13  0.43426363160E+02  0.46493408844E+03  0.46290156359E+03 0.  0.
      99925    2    3    3    0    0  0.77412072517E+02 -0.82588165057E+02 -0.14615803917E+02  0.28652490920E+03  0.26281070733E+03 0.  0.
         25    1    4    4    0    0  0.37626291522E+02 -0.68294235906E+01  0.16390903594E+02  0.13182772342E+03  0.12509000000E+03 0.  0.
         25    1    4    4    0    0  0.39785780995E+02 -0.75758741466E+02 -0.31006707511E+02  0.15469718578E+03  0.12509000000E+03 0.  0.
         25    1    3    3    0    0 -0.77412072517E+02  0.82588165057E+02  0.58042167077E+02  0.17840917924E+03  0.12509000000E+03 0.  0.
<mgrwt>
<rscale>  2 0.46290156E+03</rscale>
<asrwt>0</asrwt>
<pdfrwt beam="1">  1       21 0.37379445E-01 0.46290156E+03</pdfrwt>
<pdfrwt beam="2">  1       21 0.30993215E-01 0.46290156E+03</pdfrwt>
<totfact> 0.63711727E+04</totfact>
</mgrwt>
</event>
<event>
 7    0  0.4748297E-002  0.4476272E+03  0.7546771E-02  0.1028432E+00
         21   -1    0    0  502  501  0.00000000000E+00  0.00000000000E+00  0.10842186404E+04  0.10842186404E+04  0.00000000000E+00 0. -1.
         21   -1    0    0  501  502 -0.00000000000E+00 -0.00000000000E+00 -0.46201508706E+02  0.46201508706E+02  0.00000000000E+00 0. -1.
      99926    2    1    2    0    0 -0.71054273576E-14 -0.35527136788E-14  0.10380171317E+04  0.11304201491E+04  0.44762724203E+03 0.  0.
      99925    2    3    3    0    0 -0.37226403995E+02  0.24990019109E+02  0.90052997244E+03  0.93921206018E+03  0.26297291973E+03 0.  0.
         25    1    4    4    0    0  0.13465284419E+02  0.34123027883E+01  0.34911271589E+03  0.37110666147E+03  0.12509000000E+03 0.  0.
         25    1    3    3    0    0  0.37226403995E+02 -0.24990019109E+02  0.13748715924E+03  0.19120808891E+03  0.12509000000E+03 0.  0.
         25    1    4    4    0    0 -0.50691688414E+02  0.21577716321E+02  0.55141725656E+03  0.56810539871E+03  0.12509000000E+03 0.  0.
<mgrwt>
<rscale>  2 0.44762724E+03</rscale>
<asrwt>0</asrwt>
<pdfrwt beam="1">  1       21 0.15944390E+00 0.44762724E+03</pdfrwt>
<pdfrwt beam="2">  1       21 0.67943402E-02 0.44762724E+03</pdfrwt>
<totfact> 0.36495682E+04</totfact>
</mgrwt>
</event>
<event>
 7    0  0.4748297E-002  0.4627316E+03  0.7546771E-02  0.1023992E+00
         21   -1    0    0  502  501  0.00000000000E+00  0.00000000000E+00  0.20341906340E+04  0.20341906340E+04  0.00000000000E+00 0. -1.
         21   -1    0    0  501  502 -0.00000000000E+00 -0.00000000000E+00 -0.26315201379E+02  0.26315201379E+02  0.00000000000E+00 0. -1.
      99926    2    1    2    0    0  0.00000000000E+00  0.17763568394E-14  0.20078754326E+04  0.20605058354E+04  0.46273161196E+03 0.  0.
      99925    2    3    3    0    0 -0.10975658727E+03  0.93645533857E+01  0.10389623668E+04  0.10773607593E+04  0.26292432912E+03 0.  0.
         25    1    3    3    0    0  0.10975658727E+03 -0.93645533857E+01  0.96891306583E+03  0.98314507605E+03  0.12509000000E+03 0.  0.
         25    1    4    4    0    0 -0.33646911444E+02  0.28075342179E+01  0.35593341135E+03  0.37878238913E+03  0.12509000000E+03 0.  0.
         25    1    4    4    0    0 -0.76109675821E+02  0.65570191678E+01  0.68302895543E+03  0.69857837020E+03  0.12509000000E+03 0.  0.
<mgrwt>
<rscale>  2 0.46273161E+03</rscale>
<asrwt>0</asrwt>
<pdfrwt beam="1">  1       21 0.29914557E+00 0.46273161E+03</pdfrwt>
<pdfrwt beam="2">  1       21 0.38698839E-02 0.46273161E+03</pdfrwt>
<totfact> 0.12009815E+04</totfact>
</mgrwt>
</event>
<event>
 7    0  0.4748297E-002  0.4562357E+03  0.7546771E-02  0.1025879E+00
         21   -1    0    0  502  501  0.00000000000E+00  0.00000000000E+00  0.47303377307E+03  0.47303377307E+03  0.00000000000E+00 0.  1.
         21   -1    0    0  501  502 -0.00000000000E+00 -0.00000000000E+00 -0.11000855984E+03  0.11000855984E+03  0.00000000000E+00 0.  1.
      99926    2    1    2    0    0 -0.14210854715E-13  0.71054273576E-14  0.36302521323E+03  0.58304233291E+03  0.45623574665E+03 0.  0.
      99925    2    3    3    0    0  0.68832129287E+02  0.53518768864E+02  0.32265457778E+03  0.42531022790E+03  0.26302222863E+03 0.  0.
         25    1    4    4    0    0  0.71748977678E+02  0.45935319960E+02  0.18778102690E+03  0.24117875442E+03  0.12509000000E+03 0.  0.
         25    1    4    4    0    0 -0.29168483912E+01  0.75834489040E+01  0.13487355087E+03  0.18413147348E+03  0.12509000000E+03 0.  0.
         25    1    3    3    0    0 -0.68832129287E+02 -0.53518768864E+02  0.40370635450E+02  0.15773210501E+03  0.12509000000E+03 0.  0.
<mgrwt>
<rscale>  2 0.45623575E+03</rscale>
<asrwt>0</asrwt>
<pdfrwt beam="1">  1       21 0.69563789E-01 0.45623575E+03</pdfrwt>
<pdfrwt beam="2">  1       21 0.16177730E-01 0.45623575E+03</pdfrwt>
<totfact> 0.59154405E+04</totfact>
</mgrwt>
</event>
<event>
 7    0  0.4748297E-002  0.4537038E+03  0.7546771E-02  0.1026623E+00
         21   -1    0    0  502  501  0.00000000000E+00  0.00000000000E+00  0.32563062278E+03  0.32563062278E+03  0.00000000000E+00 0.  1.
         21   -1    0    0  501  502 -0.00000000000E+00 -0.00000000000E+00 -0.15803729063E+03  0.15803729063E+03  0.00000000000E+00 0.  1.
      99926    2    1    2    0    0  0.00000000000E+00  0.00000000000E+00  0.16759333215E+03  0.48366791341E+03  0.45370378606E+03 0.  0.
      99925    2    3    3    0    0  0.34621486714E+02 -0.10405399164E+03  0.12956354291E+03  0.31302309665E+03  0.26300354915E+03 0.  0.
         25    1    4    4    0    0  0.71697119958E+01 -0.36811765299E+02  0.21229454131E+02  0.13230536141E+03  0.12509000000E+03 0.  0.
         25    1    4    4    0    0  0.27451774718E+02 -0.67242226344E+02  0.10833408878E+03  0.18071773524E+03  0.12509000000E+03 0.  0.
         25    1    3    3    0    0 -0.34621486714E+02  0.10405399164E+03  0.38029789242E+02  0.17064481677E+03  0.12509000000E+03 0.  0.
<mgrwt>
<rscale>  2 0.45370379E+03</rscale>
<asrwt>0</asrwt>
<pdfrwt beam="1">  1       21 0.47886856E-01 0.45370379E+03</pdfrwt>
<pdfrwt beam="2">  1       21 0.23240778E-01 0.45370379E+03</pdfrwt>
<totfact> 0.67122073E+04</totfact>
</mgrwt>
</event>
<event>
 7    0  0.4748297E-002  0.4477330E+03  0.7546771E-02  0.1028400E+00
         21   -1    0    0  502  501  0.00000000000E+00  0.00000000000E+00  0.14211510196E+03  0.14211510196E+03  0.00000000000E+00 0.  1.
         21   -1    0    0  501  502 -0.00000000000E+00 -0.00000000000E+00 -0.35264528224E+03  0.35264528224E+03  0.00000000000E+00 0.  1.
      99926    2    1    2    0    0  0.00000000000E+00 -0.17763568394E-14 -0.21053018028E+03  0.49476038419E+03  0.44773304653E+03 0.  0.
      99925    2    3    3    0    0  0.10037117031E+03  0.15925109273E+02 -0.99514175670E+02  0.29905641818E+03  0.26306594071E+03 0.  0.
         25    1    4    4    0    0  0.49888652968E+02  0.31807045235E+02 -0.85145891901E+02  0.16247429590E+03  0.12509000000E+03 0.  0.
         25    1    4    4    0    0  0.50482517338E+02 -0.15881935962E+02 -0.14368283769E+02  0.13658212228E+03  0.12509000000E+03 0.  0.
         25    1    3    3    0    0 -0.10037117031E+03 -0.15925109273E+02 -0.11101600461E+03  0.19570396601E+03  0.12509000000E+03 0.  0.
<mgrwt>
<rscale>  2 0.44773305E+03</rscale>
<asrwt>0</asrwt>
<pdfrwt beam="1">  1       21 0.20899280E-01 0.44773305E+03</pdfrwt>
<pdfrwt beam="2">  1       21 0.51859601E-01 0.44773305E+03</pdfrwt>
<totfact> 0.69567662E+04</totfact>
</mgrwt>
</event>
<event>
 7    0  0.4748297E-002  0.4549825E+03  0.7546771E-02  0.1026247E+00
         21   -1    0    0  502  501  0.00000000000E+00  0.00000000000E+00  0.20507486280E+03  0.20507486280E+03  0.00000000000E+00 0.  1.
         21   -1    0    0  501  502 -0.00000000000E+00 -0.00000000000E+00 -0.25235793983E+03  0.25235793983E+03  0.00000000000E+00 0.  1.
      99926    2    1    2    0    0  0.17763568394E-14  0.00000000000E+00 -0.47283077032E+02  0.45743280263E+03  0.45498250467E+03 0.  0.
      99925    2    3    3    0    0 -0.13743230693E+02  0.13730326267E+02 -0.14176526902E+03  0.29947144359E+03  0.26307481022E+03 0.  0.
         25    1    4    4    0    0  0.12809298212E+02  0.34852959981E+02 -0.46135880877E+02  0.13840099185E+03  0.12509000000E+03 0.  0.
         25    1    3    3    0    0  0.13743230693E+02 -0.13730326267E+02  0.94482191990E+02  0.15796135905E+03  0.12509000000E+03 0.  0.
         25    1    4    4    0    0 -0.26552528904E+02 -0.21122633714E+02 -0.95629388145E+02  0.16107045174E+03  0.12509000000E+03 0.  0.
<mgrwt>
<rscale>  2 0.45498250E+03</rscale>
<asrwt>0</asrwt>
<pdfrwt beam="1">  1       21 0.30158068E-01 0.45498250E+03</pdfrwt>
<pdfrwt beam="2">  1       21 0.37111462E-01 0.45498250E+03</pdfrwt>
<totfact> 0.68377453E+04</totfact>
</mgrwt>
</event>
<event>
 7    0  0.4748297E-002  0.4456860E+03  0.7546771E-02  0.1029016E+00
         21   -1    0    0  502  501  0.00000000000E+00  0.00000000000E+00  0.71824026279E+02  0.71824026279E+02  0.00000000000E+00 0.  1.
         21   -1    0    0  501  502 -0.00000000000E+00 -0.00000000000E+00 -0.69139833816E+03  0.69139833816E+03  0.00000000000E+00 0.  1.
      99926    2    1    2    0    0  0.00000000000E+00  0.00000000000E+00 -0.61957431188E+03  0.76322236444E+03  0.44568604380E+03 0.  0.
      99925    2    3    3    0    0  0.27281612112E+02  0.88921153484E+02 -0.47370152041E+03  0.54973316731E+03  0.26298700902E+03 0.  0.
         25    1    4    4    0    0  0.11093838212E+01  0.62689525391E+02 -0.31218224640E+03  0.34210593447E+03  0.12509000000E+03 0.  0.
         25    1    4    4    0    0  0.26172228291E+02  0.26231628092E+02 -0.16151927400E+03  0.20762723285E+03  0.12509000000E+03 0.  0.
         25    1    3    3    0    0 -0.27281612112E+02 -0.88921153484E+02 -0.14587279147E+03  0.21348919712E+03  0.12509000000E+03 0.  0.
<mgrwt>
<rscale>  2 0.44568604E+03</rscale>
<asrwt>0</asrwt>
<pdfrwt beam="1">  1       21 0.10562357E-01 0.44568604E+03</pdfrwt>
<pdfrwt beam="2">  1       21 0.10167623E+00 0.44568604E+03</pdfrwt>
<totfact> 0.53393468E+04</totfact>
</mgrwt>
</event>
<event>
 7    0  0.4748297E-002  0.4573293E+03  0.7546771E-02  0.1025559E+00
         21   -1    0    0  502  501  0.00000000000E+00  0.00000000000E+00  0.64214975610E+02  0.64214975610E+02  0.00000000000E+00 0.  1.
         21   -1    0    0  501  502 -0.00000000000E+00 -0.00000000000E+00 -0.81425730930E+03  0.81425730930E+03  0.00000000000E+00 0.  1.
      99926    2    1    2    0    0  0.00000000000E+00 -0.71054273576E-14 -0.75004233369E+03  0.87847228491E+03  0.45732926107E+03 0.  0.
      99925    2    3    3    0    0  0.66828730551E+02 -0.45163370805E+02 -0.62895488331E+03  0.68659865976E+03  0.26330147180E+03 0.  0.
         25    1    3    3    0    0 -0.66828730551E+02  0.45163370805E+02 -0.12108745038E+03  0.19187362515E+03  0.12509000000E+03 0.  0.
         25    1    4    4    0    0  0.48114283161E+00  0.20238502767E+01 -0.31640671256E+03  0.34024262420E+03  0.12509000000E+03 0.  0.
         25    1    4    4    0    0  0.66347587719E+02 -0.47187221082E+02 -0.31254817075E+03  0.34635603556E+03  0.12509000000E+03 0.  0.
<mgrwt>
<rscale>  2 0.45732926E+03</rscale>
<asrwt>0</asrwt>
<pdfrwt beam="1">  1       21 0.94433793E-02 0.45732926E+03</pdfrwt>
<pdfrwt beam="2">  1       21 0.11974371E+00 0.45732926E+03</pdfrwt>
<totfact> 0.43380766E+04</totfact>
</mgrwt>
</event>
<event>
 7    0  0.4748297E-002  0.4539408E+03  0.7546771E-02  0.1026553E+00
         21   -1    0    0  502  501  0.00000000000E+00  0.00000000000E+00  0.52146464748E+03  0.52146464748E+03  0.00000000000E+00 0. -1.
         21   -1    0    0  501  502 -0.00000000000E+00 -0.00000000000E+00 -0.98790142869E+02  0.98790142869E+02  0.00000000000E+00 0. -1.
      99926    2    1    2    0    0 -0.71054273576E-14  0.14210854715E-13  0.42267450461E+03  0.62025479035E+03  0.45394082005E+03 0.  0.
      99925    2    3    3    0    0 -0.52970896124E+02  0.45516972095E+02  0.14623373133E+03  0.30889531994E+03  0.26297205919E+03 0.  0.
         25    1    4    4    0    0 -0.62476502027E+02  0.39676511472E+02  0.64212396185E+02  0.15889706980E+03  0.12509000000E+03 0.  0.
         25    1    3    3    0    0  0.52970896124E+02 -0.45516972095E+02  0.27644077328E+03  0.31135947041E+03  0.12509000000E+03 0.  0.
         25    1    4    4    0    0  0.95056059027E+01  0.58404606230E+01  0.82021335147E+02  0.14999825013E+03  0.12509000000E+03 0.  0.
<mgrwt>
<rscale>  2 0.45394082E+03</rscale>
<asrwt>0</asrwt>
<pdfrwt beam="1">  1       21 0.76685976E-01 0.45394082E+03</pdfrwt>
<pdfrwt beam="2">  1       21 0.14527962E-01 0.45394082E+03</pdfrwt>
<totfact> 0.57931544E+04</totfact>
</mgrwt>
</event>
<event>
 7    0  0.4748297E-002  0.4495757E+03  0.7546771E-02  0.1027849E+00
         21   -1    0    0  502  501  0.00000000000E+00  0.00000000000E+00  0.57560937497E+03  0.57560937497E+03  0.00000000000E+00 0. -1.
         21   -1    0    0  501  502 -0.00000000000E+00 -0.00000000000E+00 -0.87784508133E+02  0.87784508133E+02  0.00000000000E+00 0. -1.
      99926    2    1    2    0    0  0.14210854715E-13  0.00000000000E+00  0.48782486684E+03  0.66339388311E+03  0.44957573715E+03 0.  0.
      99925    2    3    3    0    0  0.62736230111E+02 -0.87055582529E+02  0.28862824358E+03  0.40485701565E+03  0.26284678257E+03 0.  0.
         25    1    3    3    0    0 -0.62736230111E+02  0.87055582529E+02  0.19919662326E+03  0.25853686746E+03  0.12509000000E+03 0.  0.
         25    1    4    4    0    0 -0.86808821082E+01 -0.31823288314E+02  0.12283092711E+03  0.17839008983E+03  0.12509000000E+03 0.  0.
         25    1    4    4    0    0  0.71417112219E+02 -0.55232294215E+02  0.16579731647E+03  0.22646692582E+03  0.12509000000E+03 0.  0.
<mgrwt>
<rscale>  2 0.44957574E+03</rscale>
<asrwt>0</asrwt>
<pdfrwt beam="1">  1       21 0.84648436E-01 0.44957574E+03</pdfrwt>
<pdfrwt beam="2">  1       21 0.12909487E-01 0.44957574E+03</pdfrwt>
<totfact> 0.57349122E+04</totfact>
</mgrwt>
</event>
<event>
 7    0  0.4748297E-002  0.4562962E+03  0.7546771E-02  0.1025861E+00
         21   -1    0    0  502  501  0.00000000000E+00  0.00000000000E+00  0.63814565963E+03  0.63814565963E+03  0.00000000000E+00 0.  1.
         21   -1    0    0  501  502 -0.00000000000E+00 -0.00000000000E+00 -0.81566879447E+02  0.81566879447E+02  0.00000000000E+00 0.  1.
      99926    2    1    2    0    0  0.00000000000E+00  0.00000000000E+00  0.55657878018E+03  0.71971253908E+03  0.45629617613E+03 0.  0.
      99925    2    3    3    0    0 -0.65891035801E+02 -0.89840177780E+02  0.30901583619E+03  0.42080150636E+03  0.26300234713E+03 0.  0.
         25    1    4    4    0    0 -0.82735201317E+01 -0.44111751712E+02  0.99860447741E+02  0.16623451777E+03  0.12509000000E+03 0.  0.
         25    1    4    4    0    0 -0.57617515669E+02 -0.45728426069E+02  0.20915538845E+03  0.25456698859E+03  0.12509000000E+03 0.  0.
         25    1    3    3    0    0  0.65891035801E+02  0.89840177780E+02  0.24756294399E+03  0.29891103272E+03  0.12509000000E+03 0.  0.
<mgrwt>
<rscale>  2 0.45629618E+03</rscale>
<asrwt>0</asrwt>
<pdfrwt beam="1">  1       21 0.93844948E-01 0.45629618E+03</pdfrwt>
<pdfrwt beam="2">  1       21 0.11995130E-01 0.45629618E+03</pdfrwt>
<totfact> 0.51320536E+04</totfact>
</mgrwt>
</event>
<event>
 7    0  0.4748297E-002  0.4535021E+03  0.7546771E-02  0.1026683E+00
         21   -1    0    0  502  501  0.00000000000E+00  0.00000000000E+00  0.99001805684E+02  0.99001805684E+02  0.00000000000E+00 0.  1.
         21   -1    0    0  501  502 -0.00000000000E+00 -0.00000000000E+00 -0.51934455594E+03  0.51934455594E+03  0.00000000000E+00 0.  1.
      99926    2    1    2    0    0 -0.14210854715E-13  0.00000000000E+00 -0.42034275026E+03  0.61834636163E+03  0.45350214469E+03 0.  0.
      99925    2    3    3    0    0  0.71996547646E+02  0.78504706540E+02 -0.31097428726E+03  0.42097498422E+03  0.26299893189E+03 0.  0.
         25    1    4    4    0    0  0.71667780822E+02  0.59225708208E+02 -0.19168616285E+03  0.24705272403E+03  0.12509000000E+03 0.  0.
         25    1    4    4    0    0  0.32876682422E+00  0.19278998333E+02 -0.11928812441E+03  0.17392226019E+03  0.12509000000E+03 0.  0.
         25    1    3    3    0    0 -0.71996547646E+02 -0.78504706540E+02 -0.10936846300E+03  0.19737137741E+03  0.12509000000E+03 0.  0.
<mgrwt>
<rscale>  2 0.45350214E+03</rscale>
<asrwt>0</asrwt>
<pdfrwt beam="1">  1       21 0.14559089E-01 0.45350214E+03</pdfrwt>
<pdfrwt beam="2">  1       21 0.76374200E-01 0.45350214E+03</pdfrwt>
<totfact> 0.58248915E+04</totfact>
</mgrwt>
</event>
<event>
 7    0  0.4748297E-002  0.4522914E+03  0.7546771E-02  0.1027041E+00
         21   -1    0    0  502  501  0.00000000000E+00  0.00000000000E+00  0.55870661669E+03  0.55870661669E+03  0.00000000000E+00 0. -1.
         21   -1    0    0  501  502 -0.00000000000E+00 -0.00000000000E+00 -0.91536209096E+02  0.91536209096E+02  0.00000000000E+00 0. -1.
      99926    2    1    2    0    0  0.00000000000E+00 -0.33306690739E-15  0.46717040759E+03  0.65024282578E+03  0.45229143564E+03 0.  0.
      99925    2    3    3    0    0  0.10747266876E+03  0.55843426342E+00  0.25578035906E+03  0.38213100751E+03  0.26277334043E+03 0.  0.
         25    1    4    4    0    0  0.23275133442E+02  0.28873286635E+01  0.79124553884E+02  0.14986084089E+03  0.12509000000E+03 0.  0.
         25    1    4    4    0    0  0.84197535315E+02 -0.23288944000E+01  0.17665580518E+03  0.23227016663E+03  0.12509000000E+03 0.  0.
         25    1    3    3    0    0 -0.10747266876E+03 -0.55843426342E+00  0.21139004853E+03  0.26811181827E+03  0.12509000000E+03 0.  0.
<mgrwt>
<rscale>  2 0.45229144E+03</rscale>
<asrwt>0</asrwt>
<pdfrwt beam="1">  1       21 0.82162736E-01 0.45229144E+03</pdfrwt>
<pdfrwt beam="2">  1       21 0.13461208E-01 0.45229144E+03</pdfrwt>
<totfact> 0.56893440E+04</totfact>
</mgrwt>
</event>
<event>
 7    0  0.4748297E-002  0.3974630E+03  0.7546771E-02  0.1044662E+00
         21   -1    0    0  502  501  0.00000000000E+00  0.00000000000E+00  0.15438597508E+03  0.15438597508E+03  0.00000000000E+00 0.  1.
         21   -1    0    0  501  502 -0.00000000000E+00 -0.00000000000E+00 -0.25581478021E+03  0.25581478021E+03  0.00000000000E+00 0.  1.
      99926    2    1    2    0    0  0.00000000000E+00  0.71054273576E-14 -0.10142880513E+03  0.41020075529E+03  0.39746302612E+03 0.  0.
      99925    2    3    3    0    0  0.16778398484E+02  0.36786465681E+02 -0.66039947974E+02  0.27405877784E+03  0.26289195551E+03 0.  0.
         25    1    4    4    0    0  0.25341916211E+02  0.52207777320E+02 -0.50165536921E+02  0.14673770451E+03  0.12509000000E+03 0.  0.
         25    1    4    4    0    0 -0.85635177266E+01 -0.15421311640E+02 -0.15874411053E+02  0.12732107333E+03  0.12509000000E+03 0.  0.
         25    1    3    3    0    0 -0.16778398484E+02 -0.36786465681E+02 -0.35388857155E+02  0.13614197745E+03  0.12509000000E+03 0.  0.
<mgrwt>
<rscale>  2 0.39746303E+03</rscale>
<asrwt>0</asrwt>
<pdfrwt beam="1">  1       21 0.22703820E-01 0.39746303E+03</pdfrwt>
<pdfrwt beam="2">  1       21 0.37619820E-01 0.39746303E+03</pdfrwt>
<totfact> 0.11716414E+05</totfact>
</mgrwt>
</event>
<event>
 7    0  0.4748297E-002  0.4570168E+03  0.7546771E-02  0.1025650E+00
         21   -1    0    0  502  501  0.00000000000E+00  0.00000000000E+00  0.23344187478E+03  0.23344187478E+03  0.00000000000E+00 0.  1.
         21   -1    0    0  501  502 -0.00000000000E+00 -0.00000000000E+00 -0.22367918167E+03  0.22367918167E+03  0.00000000000E+00 0.  1.
      99926    2    1    2    0    0  0.71054273576E-14  0.00000000000E+00  0.97626931144E+01  0.45712105644E+03  0.45701679408E+03 0.  0.
      99925    2    3    3    0    0 -0.61869091805E+02  0.73897837569E+02 -0.56902965760E+02  0.28571366719E+03  0.26287958686E+03 0.  0.
         25    1    4    4    0    0 -0.71029118005E+02  0.50028470733E+02 -0.32338180982E+02  0.15569601645E+03  0.12509000000E+03 0.  0.
         25    1    3    3    0    0  0.61869091805E+02 -0.73897837569E+02  0.66665658874E+02  0.17140738926E+03  0.12509000000E+03 0.  0.
         25    1    4    4    0    0  0.91600262000E+01  0.23869366836E+02 -0.24564784779E+02  0.13001765074E+03  0.12509000000E+03 0.  0.
<mgrwt>
<rscale>  2 0.45701679E+03</rscale>
<asrwt>0</asrwt>
<pdfrwt beam="1">  1       21 0.34329687E-01 0.45701679E+03</pdfrwt>
<pdfrwt beam="2">  1       21 0.32893997E-01 0.45701679E+03</pdfrwt>
<totfact> 0.67301148E+04</totfact>
</mgrwt>
</event>
<event>
 7    0  0.4748297E-002  0.4711662E+03  0.7546771E-02  0.1021592E+00
         21   -1    0    0  502  501  0.00000000000E+00  0.00000000000E+00  0.20030512866E+04  0.20030512866E+04  0.00000000000E+00 0.  1.
         21   -1    0    0  501  502 -0.00000000000E+00 -0.00000000000E+00 -0.27707428168E+02  0.27707428168E+02  0.00000000000E+00 0.  1.
      99926    2    1    2    0    0  0.00000000000E+00  0.00000000000E+00  0.19753438584E+04  0.20307587147E+04  0.47116621118E+03 0.  0.
      99925    2    3    3    0    0  0.97859259092E+01  0.72458530777E+02  0.77378313547E+03  0.82049358593E+03  0.26291325714E+03 0.  0.
         25    1    4    4    0    0  0.38415322612E+02  0.58832431146E+02  0.38593460910E+03  0.41174023676E+03  0.12509000000E+03 0.  0.
         25    1    4    4    0    0 -0.28629396703E+02  0.13626099632E+02  0.38784852638E+03  0.40875334917E+03  0.12509000000E+03 0.  0.
         25    1    3    3    0    0 -0.97859259092E+01 -0.72458530777E+02  0.12015607229E+04  0.12102651288E+04  0.12509000000E+03 0.  0.
<mgrwt>
<rscale>  2 0.47116621E+03</rscale>
<asrwt>0</asrwt>
<pdfrwt beam="1">  1       21 0.29456627E+00 0.47116621E+03</pdfrwt>
<pdfrwt beam="2">  1       21 0.40746231E-02 0.47116621E+03</pdfrwt>
<totfact> 0.11678333E+04</totfact>
</mgrwt>
</event>
<event>
 7    0  0.4748297E-002  0.4829732E+03  0.7546771E-02  0.1018321E+00
         21   -1    0    0  502  501  0.00000000000E+00  0.00000000000E+00  0.32086809759E+02  0.32086809759E+02  0.00000000000E+00 0. -1.
         21   -1    0    0  501  502 -0.00000000000E+00 -0.00000000000E+00 -0.18174379806E+04  0.18174379806E+04  0.00000000000E+00 0. -1.
      99926    2    1    2    0    0 -0.14210854715E-13 -0.14210854715E-13 -0.17853511708E+04  0.18495247903E+04  0.48297323624E+03 0.  0.
      99925    2    3    3    0    0  0.93702171679E+02  0.73206046537E+02 -0.13641632688E+04  0.13943479246E+04  0.26291726563E+03 0.  0.
         25    1    4    4    0    0  0.33124647625E+02  0.46062948603E+02 -0.49414167077E+03  0.51287672632E+03  0.12509000000E+03 0.  0.
         25    1    3    3    0    0 -0.93702171679E+02 -0.73206046537E+02 -0.42118790200E+03  0.45517686576E+03  0.12509000000E+03 0.  0.
         25    1    4    4    0    0  0.60577524054E+02  0.27143097933E+02 -0.87002159805E+03  0.88147119826E+03  0.12509000000E+03 0.  0.
<mgrwt>
<rscale>  2 0.48297324E+03</rscale>
<asrwt>0</asrwt>
<pdfrwt beam="1">  1       21 0.47186457E-02 0.48297324E+03</pdfrwt>
<pdfrwt beam="2">  1       21 0.26727045E+00 0.48297324E+03</pdfrwt>
<totfact> 0.13214999E+04</totfact>
</mgrwt>
</event>
<event>
 7    0  0.4748297E-002  0.4564440E+03  0.7546771E-02  0.1025818E+00
         21   -1    0    0  502  501  0.00000000000E+00  0.00000000000E+00  0.61913017275E+03  0.61913017275E+03  0.00000000000E+00 0.  1.
         21   -1    0    0  501  502 -0.00000000000E+00 -0.00000000000E+00 -0.84126545364E+02  0.84126545364E+02  0.00000000000E+00 0.  1.
      99926    2    1    2    0    0  0.00000000000E+00  0.00000000000E+00  0.53500362738E+03  0.70325671811E+03  0.45644400561E+03 0.  0.
      99925    2    3    3    0    0  0.29522113486E+02 -0.51662764618E+02  0.18542099331E+03  0.32722996032E+03  0.26297890740E+03 0.  0.
         25    1    4    4    0    0  0.17542366832E+02  0.71682846862E+01  0.11783714986E+03  0.17289366942E+03  0.12509000000E+03 0.  0.
         25    1    3    3    0    0 -0.29522113486E+02  0.51662764618E+02  0.34958263407E+03  0.37602675779E+03  0.12509000000E+03 0.  0.
         25    1    4    4    0    0  0.11979746654E+02 -0.58831049304E+02  0.67583843459E+02  0.15433629090E+03  0.12509000000E+03 0.  0.
<mgrwt>
<rscale>  2 0.45644401E+03</rscale>
<asrwt>0</asrwt>
<pdfrwt beam="1">  1       21 0.91048553E-01 0.45644401E+03</pdfrwt>
<pdfrwt beam="2">  1       21 0.12371551E-01 0.45644401E+03</pdfrwt>
<totfact> 0.52131586E+04</totfact>
</mgrwt>
</event>
<event>
 7    0  0.4748297E-002  0.4554216E+03  0.7546771E-02  0.1026118E+00
         21   -1    0    0  502  501  0.00000000000E+00  0.00000000000E+00  0.23512332212E+03  0.23512332212E+03  0.00000000000E+00 0. -1.
         21   -1    0    0  501  502 -0.00000000000E+00 -0.00000000000E+00 -0.22053192716E+03  0.22053192716E+03  0.00000000000E+00 0. -1.
      99926    2    1    2    0    0 -0.35527136788E-14  0.00000000000E+00  0.14591394955E+02  0.45565524928E+03  0.45542156009E+03 0.  0.
      99925    2    3    3    0    0 -0.26014727762E+02  0.76322056422E+02  0.89192711549E+02  0.28917796286E+03  0.26299568828E+03 0.  0.
         25    1    4    4    0    0 -0.37617617561E+02  0.22802162027E+02  0.73821102604E+02  0.15176325983E+03  0.12509000000E+03 0.  0.
         25    1    4    4    0    0  0.11602889799E+02  0.53519894395E+02  0.15371608945E+02  0.13741470303E+03  0.12509000000E+03 0.  0.
         25    1    3    3    0    0  0.26014727762E+02 -0.76322056422E+02 -0.74601316594E+02  0.16647728642E+03  0.12509000000E+03 0.  0.
<mgrwt>
<rscale>  2 0.45542156E+03</rscale>
<asrwt>0</asrwt>
<pdfrwt beam="1">  1       21 0.34576959E-01 0.45542156E+03</pdfrwt>
<pdfrwt beam="2">  1       21 0.32431166E-01 0.45542156E+03</pdfrwt>
<totfact> 0.68267913E+04</totfact>
</mgrwt>
</event>
<event>
 7    0  0.4748297E-002  0.4472010E+03  0.7546771E-02  0.1028560E+00
         21   -1    0    0  502  501  0.00000000000E+00  0.00000000000E+00  0.58532240014E+03  0.58532240014E+03  0.00000000000E+00 0. -1.
         21   -1    0    0  501  502 -0.00000000000E+00 -0.00000000000E+00 -0.85418178308E+02  0.85418178308E+02  0.00000000000E+00 0. -1.
      99926    2    1    2    0    0  0.00000000000E+00  0.00000000000E+00  0.49990422183E+03  0.67074057845E+03  0.44720095323E+03 0.  0.
      99925    2    3    3    0    0 -0.89674184122E+02  0.38290717102E+02  0.25554249512E+03  0.37941979324E+03  0.26296344684E+03 0.  0.
         25    1    4    4    0    0 -0.18392775061E+02  0.16151028636E+02  0.16269404384E+03  0.20667851824E+03  0.12509000000E+03 0.  0.
         25    1    4    4    0    0 -0.71281409061E+02  0.22139688467E+02  0.92848451280E+02  0.17274127500E+03  0.12509000000E+03 0.  0.
         25    1    3    3    0    0  0.89674184122E+02 -0.38290717102E+02  0.24436172671E+03  0.29132078521E+03  0.12509000000E+03 0.  0.
<mgrwt>
<rscale>  2 0.44720095E+03</rscale>
<asrwt>0</asrwt>
<pdfrwt beam="1">  1       21 0.86076821E-01 0.44720095E+03</pdfrwt>
<pdfrwt beam="2">  1       21 0.12561497E-01 0.44720095E+03</pdfrwt>
<totfact> 0.58003130E+04</totfact>
</mgrwt>
</event>
<event>
 7    0  0.4748297E-002  0.4559909E+03  0.7546771E-02  0.1025950E+00
         21   -1    0    0  502  501  0.00000000000E+00  0.00000000000E+00  0.32458207417E+02  0.32458207417E+02  0.00000000000E+00 0.  1.
         21   -1    0    0  501  502 -0.00000000000E+00 -0.00000000000E+00 -0.16015031035E+04  0.16015031035E+04  0.00000000000E+00 0.  1.
      99926    2    1    2    0    0  0.00000000000E+00  0.00000000000E+00 -0.15690448960E+04  0.16339613109E+04  0.45599087671E+03 0.  0.
      99925    2    3    3    0    0  0.69779344112E+02 -0.73709891659E+02 -0.11708066637E+04  0.12043760425E+04  0.26349782358E+03 0.  0.
         25    1    4    4    0    0  0.69927589991E+02 -0.57916030066E+02 -0.57810025045E+03  0.59840750501E+03  0.12509000000E+03 0.  0.
         25    1    4    4    0    0 -0.14824587875E+00 -0.15793861593E+02 -0.59270641325E+03  0.60596853751E+03  0.12509000000E+03 0.  0.
         25    1    3    3    0    0 -0.69779344112E+02  0.73709891659E+02 -0.39823823235E+03  0.42958526836E+03  0.12509000000E+03 0.  0.
<mgrwt>
<rscale>  2 0.45599088E+03</rscale>
<asrwt>0</asrwt>
<pdfrwt beam="1">  1       21 0.47732651E-02 0.45599088E+03</pdfrwt>
<pdfrwt beam="2">  1       21 0.23551520E+00 0.45599088E+03</pdfrwt>
<totfact> 0.20514801E+04</totfact>
</mgrwt>
</event>
<event>
 7    0  0.4748297E-002  0.4531697E+03  0.7546771E-02  0.1026781E+00
         21   -1    0    0  502  501  0.00000000000E+00  0.00000000000E+00  0.12035403931E+03  0.12035403931E+03  0.00000000000E+00 0.  1.
         21   -1    0    0  501  502 -0.00000000000E+00 -0.00000000000E+00 -0.42658049616E+03  0.42658049616E+03  0.00000000000E+00 0.  1.
      99926    2    1    2    0    0  0.00000000000E+00  0.00000000000E+00 -0.30622645686E+03  0.54693453547E+03  0.45316966272E+03 0.  0.
      99925    2    3    3    0    0  0.30800542369E+02 -0.10335908509E+03 -0.22700314854E+03  0.36375261889E+03  0.26297103343E+03 0.  0.
         25    1    3    3    0    0 -0.30800542369E+02  0.10335908509E+03 -0.79223308320E+02  0.18318191658E+03  0.12509000000E+03 0.  0.
         25    1    4    4    0    0  0.52372522648E+02 -0.63032337809E+02 -0.10139642883E+03  0.18067844536E+03  0.12509000000E+03 0.  0.
         25    1    4    4    0    0 -0.21571980279E+02 -0.40326747277E+02 -0.12560671970E+03  0.18307417353E+03  0.12509000000E+03 0.  0.
<mgrwt>
<rscale>  2 0.45316966E+03</rscale>
<asrwt>0</asrwt>
<pdfrwt beam="1">  1       21 0.17699123E-01 0.45316966E+03</pdfrwt>
<pdfrwt beam="2">  1       21 0.62732426E-01 0.45316966E+03</pdfrwt>
<totfact> 0.62976653E+04</totfact>
</mgrwt>
</event>
<event>
 7    0  0.4748297E-002  0.4645133E+03  0.7546771E-02  0.1023480E+00
         21   -1    0    0  502  501  0.00000000000E+00  0.00000000000E+00  0.17475840877E+03  0.17475840877E+03  0.00000000000E+00 0. -1.
         21   -1    0    0  501  502 -0.00000000000E+00 -0.00000000000E+00 -0.30867264542E+03  0.30867264542E+03  0.00000000000E+00 0. -1.
      99926    2    1    2    0    0  0.00000000000E+00  0.00000000000E+00 -0.13391423665E+03  0.48343105419E+03  0.46451325211E+03 0.  0.
      99925    2    3    3    0    0 -0.51110350773E+02  0.67124500681E+02  0.80512023967E+01  0.27626044689E+03  0.26293924414E+03 0.  0.
         25    1    4    4    0    0 -0.30370586290E+02  0.16298126496E+02 -0.32506569004E+02  0.13376167825E+03  0.12509000000E+03 0.  0.
         25    1    3    3    0    0  0.51110350773E+02 -0.67124500681E+02 -0.14196543905E+03  0.20717060731E+03  0.12509000000E+03 0.  0.
         25    1    4    4    0    0 -0.20739764483E+02  0.50826374185E+02  0.40557771401E+02  0.14249876864E+03  0.12509000000E+03 0.  0.
<mgrwt>
<rscale>  2 0.46451325E+03</rscale>
<asrwt>0</asrwt>
<pdfrwt beam="1">  1       21 0.25699766E-01 0.46451325E+03</pdfrwt>
<pdfrwt beam="2">  1       21 0.45393036E-01 0.46451325E+03</pdfrwt>
<totfact> 0.61662216E+04</totfact>
</mgrwt>
</event>
<event>
 7    0  0.4748297E-002  0.4559516E+03  0.7546771E-02  0.1025962E+00
         21   -1    0    0  502  501  0.00000000000E+00  0.00000000000E+00  0.14167842046E+03  0.14167842046E+03  0.00000000000E+00 0. -1.
         21   -1    0    0  501  502 -0.00000000000E+00 -0.00000000000E+00 -0.36683752459E+03  0.36683752459E+03  0.00000000000E+00 0. -1.
      99926    2    1    2    0    0  0.00000000000E+00  0.00000000000E+00 -0.22515910413E+03  0.50851594505E+03  0.45595158098E+03 0.  0.
      99925    2    3    3    0    0  0.35810685182E+02  0.10723824644E+03 -0.12820822274E+03  0.31401805772E+03  0.26341515811E+03 0.  0.
         25    1    4    4    0    0  0.34490460465E+02  0.93938943254E+02 -0.61216075242E+02  0.17149062042E+03  0.12509000000E+03 0.  0.
         25    1    3    3    0    0 -0.35810685182E+02 -0.10723824644E+03 -0.96950881382E+02  0.19449788733E+03  0.12509000000E+03 0.  0.
         25    1    4    4    0    0  0.13202247167E+01  0.13299303190E+02 -0.66992147503E+02  0.14252743731E+03  0.12509000000E+03 0.  0.
<mgrwt>
<rscale>  2 0.45595158E+03</rscale>
<asrwt>0</asrwt>
<pdfrwt beam="1">  1       21 0.20835062E-01 0.45595158E+03</pdfrwt>
<pdfrwt beam="2">  1       21 0.53946694E-01 0.45595158E+03</pdfrwt>
<totfact> 0.64190272E+04</totfact>
</mgrwt>
</event>
<event>
 7    0  0.4748297E-002  0.4542712E+03  0.7546771E-02  0.1026456E+00
         21   -1    0    0  502  501  0.00000000000E+00  0.00000000000E+00  0.28355441684E+03  0.28355441684E+03  0.00000000000E+00 0.  1.
         21   -1    0    0  501  502 -0.00000000000E+00 -0.00000000000E+00 -0.18194243637E+03  0.18194243637E+03  0.00000000000E+00 0.  1.
      99926    2    1    2    0    0 -0.14210854715E-13 -0.71054273576E-14  0.10161198048E+03  0.46549685321E+03  0.45427120289E+03 0.  0.
      99925    2    3    3    0    0 -0.95257672579E+02 -0.53325828243E+02  0.35771957184E+02  0.28689090451E+03  0.26288607804E+03 0.  0.
         25    1    4    4    0    0 -0.68996922246E+01 -0.28773557864E+02  0.42297699862E+01  0.12861151752E+03  0.12509000000E+03 0.  0.
         25    1    4    4    0    0 -0.88357980355E+02 -0.24552270379E+02  0.31542187198E+02  0.15827938699E+03  0.12509000000E+03 0.  0.
         25    1    3    3    0    0  0.95257672579E+02  0.53325828243E+02  0.65840023295E+02  0.17860594870E+03  0.12509000000E+03 0.  0.
<mgrwt>
<rscale>  2 0.45427120E+03</rscale>
<asrwt>0</asrwt>
<pdfrwt beam="1">  1       21 0.41699179E-01 0.45427120E+03</pdfrwt>
<pdfrwt beam="2">  1       21 0.26756241E-01 0.45427120E+03</pdfrwt>
<totfact> 0.68165716E+04</totfact>
</mgrwt>
</event>
<event>
 7    0  0.4748297E-002  0.4379639E+03  0.7546771E-02  0.1031373E+00
         21   -1    0    0  502  501  0.00000000000E+00  0.00000000000E+00  0.57603004382E+03  0.57603004382E+03  0.00000000000E+00 0.  1.
         21   -1    0    0  501  502 -0.00000000000E+00 -0.00000000000E+00 -0.83247553033E+02  0.83247553033E+02  0.00000000000E+00 0.  1.
      99926    2    1    2    0    0  0.00000000000E+00  0.00000000000E+00  0.49278249078E+03  0.65927759685E+03  0.43796388719E+03 0.  0.
      99925    2    3    3    0    0 -0.71018563398E+02 -0.65014443160E+02  0.32309420149E+03  0.42751880459E+03  0.26289151959E+03 0.  0.
         25    1    4    4    0    0 -0.51659251836E+02 -0.18399417704E+02  0.11023279500E+03  0.17551636410E+03  0.12509000000E+03 0.  0.
         25    1    3    3    0    0  0.71018563398E+02  0.65014443160E+02  0.16968828930E+03  0.23175879226E+03  0.12509000000E+03 0.  0.
         25    1    4    4    0    0 -0.19359311562E+02 -0.46615025456E+02  0.21286140648E+03  0.25200244049E+03  0.12509000000E+03 0.  0.
<mgrwt>
<rscale>  2 0.43796389E+03</rscale>
<asrwt>0</asrwt>
<pdfrwt beam="1">  1       21 0.84710298E-01 0.43796389E+03</pdfrwt>
<pdfrwt beam="2">  1       21 0.12242288E-01 0.43796389E+03</pdfrwt>
<totfact> 0.63242781E+04</totfact>
</mgrwt>
</event>
<event>
 7    0  0.4748297E-002  0.4496297E+03  0.7546771E-02  0.1027833E+00
         21   -1    0    0  502  501  0.00000000000E+00  0.00000000000E+00  0.52274669412E+03  0.52274669412E+03  0.00000000000E+00 0.  1.
         21   -1    0    0  501  502 -0.00000000000E+00 -0.00000000000E+00 -0.96684918251E+02  0.96684918251E+02  0.00000000000E+00 0.  1.
      99926    2    1    2    0    0  0.00000000000E+00 -0.88817841970E-15  0.42606177587E+03  0.61943161237E+03  0.44962972049E+03 0.  0.
      99925    2    3    3    0    0 -0.10716738644E+03 -0.31402169103E+01  0.24965687179E+03  0.37805864793E+03  0.26287844714E+03 0.  0.
         25    1    4    4    0    0 -0.12269908472E+02 -0.14213496324E+02  0.11253178470E+03  0.16930293795E+03  0.12509000000E+03 0.  0.
         25    1    4    4    0    0 -0.94897477963E+02  0.11073279414E+02  0.13712508709E+03  0.20875570998E+03  0.12509000000E+03 0.  0.
         25    1    3    3    0    0  0.10716738644E+03  0.31402169103E+01  0.17640490408E+03  0.24137296444E+03  0.12509000000E+03 0.  0.
<mgrwt>
<rscale>  2 0.44962972E+03</rscale>
<asrwt>0</asrwt>
<pdfrwt beam="1">  1       21 0.76874512E-01 0.44962972E+03</pdfrwt>
<pdfrwt beam="2">  1       21 0.14218371E-01 0.44962972E+03</pdfrwt>
<totfact> 0.60002111E+04</totfact>
</mgrwt>
</event>
<event>
 7    0  0.4748297E-002  0.4593351E+03  0.7546771E-02  0.1024974E+00
         21   -1    0    0  502  501  0.00000000000E+00  0.00000000000E+00  0.51070785567E+02  0.51070785567E+02  0.00000000000E+00 0. -1.
         21   -1    0    0  501  502 -0.00000000000E+00 -0.00000000000E+00 -0.10328251522E+04  0.10328251522E+04  0.00000000000E+00 0. -1.
      99926    2    1    2    0    0  0.00000000000E+00  0.00000000000E+00 -0.98175436660E+03  0.10838959377E+04  0.45933513636E+03 0.  0.
      99925    2    3    3    0    0  0.53003427252E+02 -0.49148112680E+02 -0.39828451376E+03  0.48280569696E+03  0.26314613209E+03 0.  0.
         25    1    4    4    0    0 -0.13263580913E+02 -0.28248342831E+02 -0.20813980258E+03  0.24483377416E+03  0.12509000000E+03 0.  0.
         25    1    3    3    0    0 -0.53003427252E+02  0.49148112680E+02 -0.58346985284E+03  0.60109024077E+03  0.12509000000E+03 0.  0.
         25    1    4    4    0    0  0.66267008165E+02 -0.20899769850E+02 -0.19014471118E+03  0.23797192280E+03  0.12509000000E+03 0.  0.
<mgrwt>
<rscale>  2 0.45933514E+03</rscale>
<asrwt>0</asrwt>
<pdfrwt beam="1">  1       21 0.75104096E-02 0.45933514E+03</pdfrwt>
<pdfrwt beam="2">  1       21 0.15188605E+00 0.45933514E+03</pdfrwt>
<totfact> 0.34863410E+04</totfact>
</mgrwt>
</event>
<event>
 7    0  0.4748297E-002  0.4547764E+03  0.7546771E-02  0.1026307E+00
         21   -1    0    0  502  501  0.00000000000E+00  0.00000000000E+00  0.90463389590E+03  0.90463389590E+03  0.00000000000E+00 0. -1.
         21   -1    0    0  501  502 -0.00000000000E+00 -0.00000000000E+00 -0.57156149586E+02  0.57156149586E+02  0.00000000000E+00 0. -1.
      99926    2    1    2    0    0  0.00000000000E+00  0.88817841970E-15  0.84747774631E+03  0.96179004548E+03  0.45477638582E+03 0.  0.
      99925    2    3    3    0    0  0.85321788567E+02 -0.28337411587E+01  0.68996819238E+03  0.74328465568E+03  0.26292229875E+03 0.  0.
         25    1    4    4    0    0  0.45296046890E+02  0.23287617920E+02  0.43215458719E+03  0.45276830757E+03  0.12509000000E+03 0.  0.
         25    1    4    4    0    0  0.40025741677E+02 -0.26121359079E+02  0.25781360519E+03  0.29051634811E+03  0.12509000000E+03 0.  0.
         25    1    3    3    0    0 -0.85321788567E+02  0.28337411587E+01  0.15750955393E+03  0.21850538980E+03  0.12509000000E+03 0.  0.
<mgrwt>
<rscale>  2 0.45477639E+03</rscale>
<asrwt>0</asrwt>
<pdfrwt beam="1">  1       21 0.13303439E+00 0.45477639E+03</pdfrwt>
<pdfrwt beam="2">  1       21 0.84053167E-02 0.45477639E+03</pdfrwt>
<totfact> 0.40738256E+04</totfact>
</mgrwt>
</event>
<event>
 7    0  0.4748297E-002  0.4712375E+03  0.7546771E-02  0.1021572E+00
         21   -1    0    0  502  501  0.00000000000E+00  0.00000000000E+00  0.99602977630E+02  0.99602977630E+02  0.00000000000E+00 0. -1.
         21   -1    0    0  501  502 -0.00000000000E+00 -0.00000000000E+00 -0.55737478394E+03  0.55737478394E+03  0.00000000000E+00 0. -1.
      99926    2    1    2    0    0  0.00000000000E+00  0.00000000000E+00 -0.45777180631E+03  0.65697776157E+03  0.47123746938E+03 0.  0.
      99925    2    3    3    0    0  0.50183220791E+02 -0.21935168242E+02 -0.44482082190E+03  0.51981091663E+03  0.26332170096E+03 0.  0.
         25    1    3    3    0    0 -0.50183220791E+02  0.21935168242E+02 -0.12950984412E+02  0.13716684494E+03  0.12509000000E+03 0.  0.
         25    1    4    4    0    0 -0.28459036831E+01 -0.30954386980E+02 -0.17241595711E+03  0.21526969969E+03  0.12509000000E+03 0.  0.
         25    1    4    4    0    0  0.53029124474E+02  0.90192187387E+01 -0.27240486479E+03  0.30454121693E+03  0.12509000000E+03 0.  0.
<mgrwt>
<rscale>  2 0.47123747E+03</rscale>
<asrwt>0</asrwt>
<pdfrwt beam="1">  1       21 0.14647497E-01 0.47123747E+03</pdfrwt>
<pdfrwt beam="2">  1       21 0.81966881E-01 0.47123747E+03</pdfrwt>
<totfact> 0.48750477E+04</totfact>
</mgrwt>
</event>
<event>
 7    0  0.4748297E-002  0.4530628E+03  0.7546771E-02  0.1026813E+00
         21   -1    0    0  502  501  0.00000000000E+00  0.00000000000E+00  0.50482391126E+03  0.50482391126E+03  0.00000000000E+00 0. -1.
         21   -1    0    0  501  502 -0.00000000000E+00 -0.00000000000E+00 -0.10165221877E+03  0.10165221877E+03  0.00000000000E+00 0. -1.
      99926    2    1    2    0    0  0.00000000000E+00  0.00000000000E+00  0.40317169250E+03  0.60647613003E+03  0.45306278004E+03 0.  0.
      99925    2    3    3    0    0  0.31031299434E+02  0.97764682563E+02  0.31219236714E+03  0.42088081639E+03  0.26297473796E+03 0.  0.
         25    1    4    4    0    0 -0.11952898693E+02  0.27491742510E+02  0.17915007651E+03  0.22054687871E+03  0.12509000000E+03 0.  0.
         25    1    3    3    0    0 -0.31031299434E+02 -0.97764682563E+02  0.90979325358E+02  0.18559531364E+03  0.12509000000E+03 0.  0.
         25    1    4    4    0    0  0.42984198127E+02  0.70272940054E+02  0.13304229063E+03  0.20033393768E+03  0.12509000000E+03 0.  0.
<mgrwt>
<rscale>  2 0.45306278E+03</rscale>
<asrwt>0</asrwt>
<pdfrwt beam="1">  1       21 0.74238810E-01 0.45306278E+03</pdfrwt>
<pdfrwt beam="2">  1       21 0.14948856E-01 0.45306278E+03</pdfrwt>
<totfact> 0.59181905E+04</totfact>
</mgrwt>
</event>
<event>
 7    0  0.4748297E-002  0.4466801E+03  0.7546771E-02  0.1028717E+00
         21   -1    0    0  502  501  0.00000000000E+00  0.00000000000E+00  0.22135925256E+04  0.22135925256E+04  0.00000000000E+00 0.  1.
         21   -1    0    0  501  502 -0.00000000000E+00 -0.00000000000E+00 -0.22533861034E+02  0.22533861034E+02  0.00000000000E+00 0.  1.
      99926    2    1    2    0    0  0.14210854715E-13  0.00000000000E+00  0.21910586645E+04  0.22361263866E+04  0.44668013771E+03 0.  0.
      99925    2    3    3    0    0  0.10096180178E+03 -0.14218899385E+02  0.15195863155E+04  0.15455338250E+04  0.26293872185E+03 0.  0.
         25    1    3    3    0    0 -0.10096180178E+03  0.14218899385E+02  0.67147234898E+03  0.69059256155E+03  0.12509000000E+03 0.  0.
         25    1    4    4    0    0  0.32289514311E+02 -0.69157160855E+01  0.52341819563E+03  0.53917024721E+03  0.12509000000E+03 0.  0.
         25    1    4    4    0    0  0.68672287471E+02 -0.73031832991E+01  0.99616811991E+03  0.10063635778E+04  0.12509000000E+03 0.  0.
<mgrwt>
<rscale>  2 0.44668014E+03</rscale>
<asrwt>0</asrwt>
<pdfrwt beam="1">  1       21 0.32552816E+00 0.44668014E+03</pdfrwt>
<pdfrwt beam="2">  1       21 0.33138046E-02 0.44668014E+03</pdfrwt>
<totfact> 0.10911875E+04</totfact>
</mgrwt>
</event>
<event>
 7    0  0.4748297E-002  0.4594015E+03  0.7546771E-02  0.1024955E+00
         21   -1    0    0  502  501  0.00000000000E+00  0.00000000000E+00  0.70014725470E+03  0.70014725470E+03  0.00000000000E+00 0.  1.
         21   -1    0    0  501  502 -0.00000000000E+00 -0.00000000000E+00 -0.75359045912E+02  0.75359045912E+02  0.00000000000E+00 0.  1.
      99926    2    1    2    0    0  0.14210854715E-13 -0.29143354396E-14  0.62478820879E+03  0.77550630061E+03  0.45940147633E+03 0.  0.
      99925    2    3    3    0    0  0.11229899067E+03 -0.15632352186E+00  0.44872269822E+03  0.53207733797E+03  0.26295084320E+03 0.  0.
         25    1    4    4    0    0  0.41519589051E+02 -0.27605036910E+02  0.26457932865E+03  0.29687647867E+03  0.12509000000E+03 0.  0.
         25    1    3    3    0    0 -0.11229899067E+03  0.15632352186E+00  0.17606551057E+03  0.24342896264E+03  0.12509000000E+03 0.  0.
         25    1    4    4    0    0  0.70779401616E+02  0.27448713389E+02  0.18414336957E+03  0.23520085930E+03  0.12509000000E+03 0.  0.
<mgrwt>
<rscale>  2 0.45940148E+03</rscale>
<asrwt>0</asrwt>
<pdfrwt beam="1">  1       21 0.10296283E+00 0.45940148E+03</pdfrwt>
<pdfrwt beam="2">  1       21 0.11082213E-01 0.45940148E+03</pdfrwt>
<totfact> 0.47316319E+04</totfact>
</mgrwt>
</event>
<event>
 7    0  0.4748297E-002  0.4633339E+03  0.7546771E-02  0.1023819E+00
         21   -1    0    0  502  501  0.00000000000E+00  0.00000000000E+00  0.42483658976E+03  0.42483658976E+03  0.00000000000E+00 0.  1.
         21   -1    0    0  501  502 -0.00000000000E+00 -0.00000000000E+00 -0.12632994874E+03  0.12632994874E+03  0.00000000000E+00 0.  1.
      99926    2    1    2    0    0 -0.35527136788E-14 -0.35527136788E-14  0.29850664102E+03  0.55116653850E+03  0.46333393836E+03 0.  0.
      99925    2    3    3    0    0 -0.20340134542E+02  0.31236346662E+02  0.49758667398E+02  0.27025286332E+03  0.26300428651E+03 0.  0.
         25    1    4    4    0    0 -0.12882057112E+02 -0.25078539985E+02  0.25689161306E+02  0.13077584514E+03  0.12509000000E+03 0.  0.
         25    1    3    3    0    0  0.20340134542E+02 -0.31236346662E+02  0.24874797362E+03  0.28091367518E+03  0.12509000000E+03 0.  0.
         25    1    4    4    0    0 -0.74580774307E+01  0.56314886646E+02  0.24069506092E+02  0.13947701818E+03  0.12509000000E+03 0.  0.
<mgrwt>
<rscale>  2 0.46333394E+03</rscale>
<asrwt>0</asrwt>
<pdfrwt beam="1">  1       21 0.62475969E-01 0.46333394E+03</pdfrwt>
<pdfrwt beam="2">  1       21 0.18577934E-01 0.46333394E+03</pdfrwt>
<totfact> 0.57877755E+04</totfact>
</mgrwt>
</event>
<event>
 7    0  0.4748297E-002  0.4413321E+03  0.7546771E-02  0.1030339E+00
         21   -1    0    0  502  501  0.00000000000E+00  0.00000000000E+00  0.28631128063E+03  0.28631128063E+03  0.00000000000E+00 0.  1.
         21   -1    0    0  501  502 -0.00000000000E+00 -0.00000000000E+00 -0.17007187502E+03  0.17007187502E+03  0.00000000000E+00 0.  1.
      99926    2    1    2    0    0  0.00000000000E+00 -0.35527136788E-14  0.11623940561E+03  0.45638315565E+03  0.44133205792E+03 0.  0.
      99925    2    3    3    0    0  0.78238006561E+02 -0.18838433136E+02  0.13465879658E+03  0.30650702581E+03  0.26332013432E+03 0.  0.
         25    1    3    3    0    0 -0.78238006561E+02  0.18838433136E+02 -0.18419390969E+02  0.14987612984E+03  0.12509000000E+03 0.  0.
         25    1    4    4    0    0  0.12796080857E+02 -0.41382580546E+02  0.65375807411E+02  0.14764065142E+03  0.12509000000E+03 0.  0.
         25    1    4    4    0    0  0.65441925704E+02  0.22544147410E+02  0.69282989166E+02  0.15886637438E+03  0.12509000000E+03 0.  0.
<mgrwt>
<rscale>  2 0.44133206E+03</rscale>
<asrwt>0</asrwt>
<pdfrwt beam="1">  1       21 0.42104600E-01 0.44133206E+03</pdfrwt>
<pdfrwt beam="2">  1       21 0.25010570E-01 0.44133206E+03</pdfrwt>
<totfact> 0.76417016E+04</totfact>
</mgrwt>
</event>
<event>
 7    0  0.4748297E-002  0.4641303E+03  0.7546771E-02  0.1023590E+00
         21   -1    0    0  502  501  0.00000000000E+00  0.00000000000E+00  0.42101007362E+02  0.42101007362E+02  0.00000000000E+00 0.  1.
         21   -1    0    0  501  502 -0.00000000000E+00 -0.00000000000E+00 -0.12791676211E+04  0.12791676211E+04  0.00000000000E+00 0.  1.
      99926    2    1    2    0    0  0.00000000000E+00  0.71054273576E-14 -0.12370666137E+04  0.13212686284E+04  0.46413034994E+03 0.  0.
      99925    2    3    3    0    0 -0.68685777397E+02 -0.61429419717E+02 -0.99775995472E+03  0.10359503942E+04  0.26301517537E+03 0.  0.
         25    1    4    4    0    0 -0.23657984343E+02 -0.34793755073E+02 -0.34779799162E+03  0.37199631273E+03  0.12509000000E+03 0.  0.
         25    1    4    4    0    0 -0.45027793055E+02 -0.26635664644E+02 -0.64996196310E+03  0.66395408151E+03  0.12509000000E+03 0.  0.
         25    1    3    3    0    0  0.68685777397E+02  0.61429419717E+02 -0.23930665901E+03  0.28531823420E+03  0.12509000000E+03 0.  0.
<mgrwt>
<rscale>  2 0.46413035E+03</rscale>
<asrwt>0</asrwt>
<pdfrwt beam="1">  1       21 0.61913240E-02 0.46413035E+03</pdfrwt>
<pdfrwt beam="2">  1       21 0.18811290E+00 0.46413035E+03</pdfrwt>
<totfact> 0.26566189E+04</totfact>
</mgrwt>
</event>
<event>
 7    0  0.4748297E-002  0.4451780E+03  0.7546771E-02  0.1029170E+00
         21   -1    0    0  502  501  0.00000000000E+00  0.00000000000E+00  0.42225274358E+03  0.42225274358E+03  0.00000000000E+00 0.  1.
         21   -1    0    0  501  502 -0.00000000000E+00 -0.00000000000E+00 -0.11733697203E+03  0.11733697203E+03  0.00000000000E+00 0.  1.
      99926    2    1    2    0    0  0.00000000000E+00  0.00000000000E+00  0.30491577155E+03  0.53958971561E+03  0.44517797952E+03 0.  0.
      99925    2    3    3    0    0 -0.52730599914E+02  0.83422802587E+02  0.23218110448E+03  0.36443915166E+03  0.26299800346E+03 0.  0.
         25    1    3    3    0    0  0.52730599914E+02 -0.83422802587E+02  0.72734667069E+02  0.17515056395E+03  0.12509000000E+03 0.  0.
         25    1    4    4    0    0 -0.44403594987E+02  0.67752929566E+02  0.16115556063E+03  0.21950116522E+03  0.12509000000E+03 0.  0.
         25    1    4    4    0    0 -0.83270049275E+01  0.15669873021E+02  0.71025543853E+02  0.14493798643E+03  0.12509000000E+03 0.  0.
<mgrwt>
<rscale>  2 0.44517798E+03</rscale>
<asrwt>0</asrwt>
<pdfrwt beam="1">  1       21 0.62095991E-01 0.44517798E+03</pdfrwt>
<pdfrwt beam="2">  1       21 0.17255437E-01 0.44517798E+03</pdfrwt>
<totfact> 0.67668187E+04</totfact>
</mgrwt>
</event>
<event>
 7    0  0.4748297E-002  0.4528345E+03  0.7546771E-02  0.1026880E+00
         21   -1    0    0  502  501  0.00000000000E+00  0.00000000000E+00  0.18223038514E+04  0.18223038514E+04  0.00000000000E+00 0. -1.
         21   -1    0    0  501  502 -0.00000000000E+00 -0.00000000000E+00 -0.28131851922E+02  0.28131851922E+02  0.00000000000E+00 0. -1.
      99926    2    1    2    0    0 -0.14210854715E-13  0.35527136788E-14  0.17941719995E+04  0.18504357033E+04  0.45283454861E+03 0.  0.
      99925    2    3    3    0    0  0.82690494029E+02  0.23678252161E+02  0.84210905704E+03  0.88634559763E+03  0.26279740688E+03 0.  0.
         25    1    4    4    0    0  0.94925429994E+01  0.36408785110E+02  0.37469695399E+03  0.39681358777E+03  0.12509000000E+03 0.  0.
         25    1    3    3    0    0 -0.82690494029E+02 -0.23678252161E+02  0.95206294241E+03  0.96409010566E+03  0.12509000000E+03 0.  0.
         25    1    4    4    0    0  0.73197951030E+02 -0.12730532949E+02  0.46741210305E+03  0.48953200986E+03  0.12509000000E+03 0.  0.
<mgrwt>
<rscale>  2 0.45283455E+03</rscale>
<asrwt>0</asrwt>
<pdfrwt beam="1">  1       21 0.26798578E+00 0.45283455E+03</pdfrwt>
<pdfrwt beam="2">  1       21 0.41370383E-02 0.45283455E+03</pdfrwt>
<totfact> 0.16586314E+04</totfact>
</mgrwt>
</event>
<event>
 7    0  0.4748297E-002  0.4394811E+03  0.7546771E-02  0.1030906E+00
         21   -1    0    0  502  501  0.00000000000E+00  0.00000000000E+00  0.37327345861E+03  0.37327345861E+03  0.00000000000E+00 0.  1.
         21   -1    0    0  501  502 -0.00000000000E+00 -0.00000000000E+00 -0.12935802156E+03  0.12935802156E+03  0.00000000000E+00 0.  1.
      99926    2    1    2    0    0  0.00000000000E+00  0.26645352591E-14  0.24391543705E+03  0.50263148017E+03  0.43948113091E+03 0.  0.
      99925    2    3    3    0    0  0.36284279170E+02  0.20729977295E+01  0.25970553731E+03  0.37141531653E+03  0.26302381072E+03 0.  0.
         25    1    4    4    0    0 -0.15295578819E+02  0.23947923909E+02  0.11868653289E+03  0.17476114838E+03  0.12509000000E+03 0.  0.
         25    1    3    3    0    0 -0.36284279170E+02 -0.20729977295E+01 -0.15790100260E+02  0.13121616364E+03  0.12509000000E+03 0.  0.
         25    1    4    4    0    0  0.51579857989E+02 -0.21874926180E+02  0.14101900442E+03  0.19665416815E+03  0.12509000000E+03 0.  0.
<mgrwt>
<rscale>  2 0.43948113E+03</rscale>
<asrwt>0</asrwt>
<pdfrwt beam="1">  1       21 0.54893156E-01 0.43948113E+03</pdfrwt>
<pdfrwt beam="2">  1       21 0.19023239E-01 0.43948113E+03</pdfrwt>
<totfact> 0.73760068E+04</totfact>
</mgrwt>
</event>
<event>
 7    0  0.4748297E-002  0.4466043E+03  0.7546771E-02  0.1028740E+00
         21   -1    0    0  502  501  0.00000000000E+00  0.00000000000E+00  0.97312641327E+02  0.97312641327E+02  0.00000000000E+00 0. -1.
         21   -1    0    0  501  502 -0.00000000000E+00 -0.00000000000E+00 -0.51240884688E+03  0.51240884688E+03  0.00000000000E+00 0. -1.
      99926    2    1    2    0    0  0.00000000000E+00  0.00000000000E+00 -0.41509620555E+03  0.60972148820E+03  0.44660433643E+03 0.  0.
      99925    2    3    3    0    0  0.94780921443E+01 -0.39187364789E+02 -0.39575513771E+03  0.47687921784E+03  0.26299463035E+03 0.  0.
         25    1    4    4    0    0  0.10948370508E+02  0.14320554003E+02 -0.22996674492E+03  0.26240647277E+03  0.12509000000E+03 0.  0.
         25    1    3    3    0    0 -0.94780921443E+01  0.39187364789E+02 -0.19341067835E+02  0.13284227036E+03  0.12509000000E+03 0.  0.
         25    1    4    4    0    0 -0.14702783637E+01 -0.53507918792E+02 -0.16578839279E+03  0.21447274507E+03  0.12509000000E+03 0.  0.
<mgrwt>
<rscale>  2 0.44660434E+03</rscale>
<asrwt>0</asrwt>
<pdfrwt beam="1">  1       21 0.14310682E-01 0.44660434E+03</pdfrwt>
<pdfrwt beam="2">  1       21 0.75354243E-01 0.44660434E+03</pdfrwt>
<totfact> 0.62100670E+04</totfact>
</mgrwt>
</event>
<event>
 7    0  0.4748297E-002  0.4627253E+03  0.7546771E-02  0.1023994E+00
         21   -1    0    0  502  501  0.00000000000E+00  0.00000000000E+00  0.12860460592E+03  0.12860460592E+03  0.00000000000E+00 0.  1.
         21   -1    0    0  501  502 -0.00000000000E+00 -0.00000000000E+00 -0.41622672434E+03  0.41622672434E+03  0.00000000000E+00 0.  1.
      99926    2    1    2    0    0 -0.17763568394E-14  0.00000000000E+00 -0.28762211842E+03  0.54483133026E+03  0.46272529154E+03 0.  0.
      99925    2    3    3    0    0 -0.91319157585E+01 -0.58103967205E+02 -0.30329634525E+03  0.40571751938E+03  0.26298016959E+03 0.  0.
         25    1    4    4    0    0 -0.33166703051E+02 -0.28631473804E+02 -0.19587406551E+03  0.23650359220E+03  0.12509000000E+03 0.  0.
         25    1    4    4    0    0  0.24034787293E+02 -0.29472493401E+02 -0.10742227974E+03  0.16921392718E+03  0.12509000000E+03 0.  0.
         25    1    3    3    0    0  0.91319157585E+01  0.58103967205E+02  0.15674226831E+02  0.13911381088E+03  0.12509000000E+03 0.  0.
<mgrwt>
<rscale>  2 0.46272529E+03</rscale>
<asrwt>0</asrwt>
<pdfrwt beam="1">  1       21 0.18912442E-01 0.46272529E+03</pdfrwt>
<pdfrwt beam="2">  1       21 0.61209811E-01 0.46272529E+03</pdfrwt>
<totfact> 0.58546535E+04</totfact>
</mgrwt>
</event>
<event>
 7    0  0.4748297E-002  0.4551066E+03  0.7546771E-02  0.1026210E+00
         21   -1    0    0  502  501  0.00000000000E+00  0.00000000000E+00  0.58147063810E+03  0.58147063810E+03  0.00000000000E+00 0. -1.
         21   -1    0    0  501  502 -0.00000000000E+00 -0.00000000000E+00 -0.89050936337E+02  0.89050936337E+02  0.00000000000E+00 0. -1.
      99926    2    1    2    0    0  0.71054273576E-14  0.00000000000E+00  0.49241970176E+03  0.67052157443E+03  0.45510660191E+03 0.  0.
      99925    2    3    3    0    0 -0.34319502888E+02 -0.96213812135E+02  0.38347133516E+03  0.47570838030E+03  0.26232283979E+03 0.  0.
         25    1    4    4    0    0 -0.36809733799E+02 -0.12734501237E+02  0.18449394188E+03  0.22628001837E+03  0.12509000000E+03 0.  0.
         25    1    3    3    0    0  0.34319502888E+02  0.96213812135E+02  0.10894836660E+03  0.19481319414E+03  0.12509000000E+03 0.  0.
         25    1    4    4    0    0  0.24902309100E+01 -0.83479310898E+02  0.19897739328E+03  0.24942836193E+03  0.12509000000E+03 0.  0.
<mgrwt>
<rscale>  2 0.45510660E+03</rscale>
<asrwt>0</asrwt>
<pdfrwt beam="1">  1       21 0.85510387E-01 0.45510660E+03</pdfrwt>
<pdfrwt beam="2">  1       21 0.13095726E-01 0.45510660E+03</pdfrwt>
<totfact> 0.54487157E+04</totfact>
</mgrwt>
</event>
<event>
 7    0  0.4748297E-002  0.4559713E+03  0.7546771E-02  0.1025956E+00
         21   -1    0    0  502  501  0.00000000000E+00  0.00000000000E+00  0.37213305218E+03  0.37213305218E+03  0.00000000000E+00 0. -1.
         21   -1    0    0  501  502 -0.00000000000E+00 -0.00000000000E+00 -0.13967439223E+03  0.13967439223E+03  0.00000000000E+00 0. -1.
      99926    2    1    2    0    0  0.35527136788E-14  0.00000000000E+00  0.23245865996E+03  0.51180744441E+03  0.45597130564E+03 0.  0.
      99925    2    3    3    0    0  0.31820567641E+02 -0.20993754529E+02  0.25528779469E+02  0.26702025154E+03  0.26304906367E+03 0.  0.
         25    1    3    3    0    0 -0.31820567641E+02  0.20993754529E+02  0.20692988049E+03  0.24478719287E+03  0.12509000000E+03 0.  0.
         25    1    4    4    0    0 -0.14885556443E+02  0.59071003617E+01 -0.92263613677E+01  0.12644804257E+03  0.12509000000E+03 0.  0.
         25    1    4    4    0    0  0.46706124085E+02 -0.26900854891E+02  0.34755140837E+02  0.14057220897E+03  0.12509000000E+03 0.  0.
<mgrwt>
<rscale>  2 0.45597131E+03</rscale>
<asrwt>0</asrwt>
<pdfrwt beam="1">  1       21 0.54725449E-01 0.45597131E+03</pdfrwt>
<pdfrwt beam="2">  1       21 0.20540352E-01 0.45597131E+03</pdfrwt>
<totfact> 0.63954457E+04</totfact>
</mgrwt>
</event>
<event>
 7    0  0.4748297E-002  0.4549758E+03  0.7546771E-02  0.1026249E+00
         21   -1    0    0  502  501  0.00000000000E+00  0.00000000000E+00  0.13535773990E+03  0.13535773990E+03  0.00000000000E+00 0. -1.
         21   -1    0    0  501  502 -0.00000000000E+00 -0.00000000000E+00 -0.38232568176E+03  0.38232568176E+03  0.00000000000E+00 0. -1.
      99926    2    1    2    0    0 -0.35527136788E-14  0.00000000000E+00 -0.24696794186E+03  0.51768342165E+03  0.45497578040E+03 0.  0.
      99925    2    3    3    0    0 -0.24349303873E+02  0.10089635735E+03 -0.20638739876E+03  0.35015058277E+03  0.26312869231E+03 0.  0.
         25    1    3    3    0    0  0.24349303873E+02 -0.10089635735E+03 -0.40580543097E+02  0.16753283888E+03  0.12509000000E+03 0.  0.
         25    1    4    4    0    0 -0.37986432473E+02  0.81275904214E+02 -0.13119065305E+03  0.20225537621E+03  0.12509000000E+03 0.  0.
         25    1    4    4    0    0  0.13637128599E+02  0.19620453139E+02 -0.75196745717E+02  0.14789520656E+03  0.12509000000E+03 0.  0.
<mgrwt>
<rscale>  2 0.45497578E+03</rscale>
<asrwt>0</asrwt>
<pdfrwt beam="1">  1       21 0.19905551E-01 0.45497578E+03</pdfrwt>
<pdfrwt beam="2">  1       21 0.56224363E-01 0.45497578E+03</pdfrwt>
<totfact> 0.64057689E+04</totfact>
</mgrwt>
</event>
<event>
 7    0  0.4748297E-002  0.4274695E+03  0.7546771E-02  0.1034662E+00
         21   -1    0    0  502  501  0.00000000000E+00  0.00000000000E+00  0.95753853532E+03  0.95753853532E+03  0.00000000000E+00 0.  1.
         21   -1    0    0  501  502 -0.00000000000E+00 -0.00000000000E+00 -0.47708315525E+02  0.47708315525E+02  0.00000000000E+00 0.  1.
      99926    2    1    2    0    0  0.00000000000E+00 -0.14210854715E-13  0.90983021979E+03  0.10052468508E+04  0.42746953375E+03 0.  0.
      99925    2    3    3    0    0 -0.42981918702E+02 -0.69108492663E+02  0.53340513914E+03  0.60031873557E+03  0.26313136020E+03 0.  0.
         25    1    4    4    0    0 -0.22057825653E+02  0.72596860510E+01  0.23644483289E+03  0.26850124360E+03  0.12509000000E+03 0.  0.
         25    1    4    4    0    0 -0.20924093050E+02 -0.76368178714E+02  0.29696030625E+03  0.33181749197E+03  0.12509000000E+03 0.  0.
         25    1    3    3    0    0  0.42981918702E+02  0.69108492663E+02  0.37642508066E+03  0.40492811528E+03  0.12509000000E+03 0.  0.
<mgrwt>
<rscale>  2 0.42746953E+03</rscale>
<asrwt>0</asrwt>
<pdfrwt beam="1">  1       21 0.14081448E+00 0.42746953E+03</pdfrwt>
<pdfrwt beam="2">  1       21 0.70159293E-02 0.42746953E+03</pdfrwt>
<totfact> 0.48601176E+04</totfact>
</mgrwt>
</event>
<event>
 7    0  0.4748297E-002  0.4506509E+03  0.7546771E-02  0.1027528E+00
         21   -1    0    0  502  501  0.00000000000E+00  0.00000000000E+00  0.14942575804E+04  0.14942575804E+04  0.00000000000E+00 0. -1.
         21   -1    0    0  501  502 -0.00000000000E+00 -0.00000000000E+00 -0.33977776883E+02  0.33977776883E+02  0.00000000000E+00 0. -1.
      99926    2    1    2    0    0  0.00000000000E+00 -0.35527136788E-14  0.14602798035E+04  0.15282353573E+04  0.45065086563E+03 0.  0.
      99925    2    3    3    0    0 -0.82931639708E+02  0.30626539504E+02  0.71591853651E+03  0.76827690730E+03  0.26437551623E+03 0.  0.
         25    1    4    4    0    0 -0.58298283853E+02 -0.19470031566E+02  0.31061569122E+03  0.34045174073E+03  0.12509000000E+03 0.  0.
         25    1    3    3    0    0  0.82931639708E+02 -0.30626539504E+02  0.74436126704E+03  0.75995845002E+03  0.12509000000E+03 0.  0.
         25    1    4    4    0    0 -0.24633355855E+02  0.50096571070E+02  0.40530284529E+03  0.42782516657E+03  0.12509000000E+03 0.  0.
<mgrwt>
<rscale>  2 0.45065087E+03</rscale>
<asrwt>0</asrwt>
<pdfrwt beam="1">  1       21 0.21974372E+00 0.45065087E+03</pdfrwt>
<pdfrwt beam="2">  1       21 0.49967329E-02 0.45065087E+03</pdfrwt>
<totfact> 0.23892462E+04</totfact>
</mgrwt>
</event>
<event>
 7    0  0.4748297E-002  0.4569786E+03  0.7546771E-02  0.1025661E+00
         21   -1    0    0  502  501  0.00000000000E+00  0.00000000000E+00  0.18335444410E+03  0.18335444410E+03  0.00000000000E+00 0.  1.
         21   -1    0    0  501  502 -0.00000000000E+00 -0.00000000000E+00 -0.28473465721E+03  0.28473465721E+03  0.00000000000E+00 0.  1.
      99926    2    1    2    0    0  0.00000000000E+00  0.00000000000E+00 -0.10138021311E+03  0.46808910131E+03  0.45697862002E+03 0.  0.
      99925    2    3    3    0    0  0.10903182526E+03 -0.36334903034E+02 -0.66745591513E+02  0.29472466086E+03  0.26305795490E+03 0.  0.
         25    1    4    4    0    0  0.97527886331E+02 -0.17342374410E+02 -0.45432667582E+02  0.16590383343E+03  0.12509000000E+03 0.  0.
         25    1    3    3    0    0 -0.10903182526E+03  0.36334903034E+02 -0.34634621596E+02  0.17336444045E+03  0.12509000000E+03 0.  0.
         25    1    4    4    0    0  0.11503938933E+02 -0.18992528624E+02 -0.21312923931E+02  0.12882082743E+03  0.12509000000E+03 0.  0.
<mgrwt>
<rscale>  2 0.45697862E+03</rscale>
<asrwt>0</asrwt>
<pdfrwt beam="1">  1       21 0.26963889E-01 0.45697862E+03</pdfrwt>
<pdfrwt beam="2">  1       21 0.41872743E-01 0.45697862E+03</pdfrwt>
<totfact> 0.66528202E+04</totfact>
</mgrwt>
</event>
<event>
 7    0  0.4748297E-002  0.4548249E+03  0.7546771E-02  0.1026293E+00
         21   -1    0    0  502  501  0.00000000000E+00  0.00000000000E+00  0.99477416926E+03  0.99477416926E+03  0.00000000000E+00 0. -1.
         21   -1    0    0  501  502 -0.00000000000E+00 -0.00000000000E+00 -0.51988104813E+02  0.51988104813E+02  0.00000000000E+00 0. -1.
      99926    2    1    2    0    0  0.00000000000E+00  0.35527136788E-14  0.94278606444E+03  0.10467622741E+04  0.45482490599E+03 0.  0.
      99925    2    3    3    0    0 -0.79737380870E+02 -0.20772167538E+02  0.41528526028E+03  0.49840642306E+03  0.26297829242E+03 0.  0.
         25    1    4    4    0    0 -0.24211280195E+02  0.21325742219E+02  0.15932131435E+03  0.20511402360E+03  0.12509000000E+03 0.  0.
         25    1    3    3    0    0  0.79737380870E+02  0.20772167538E+02  0.52750080416E+03  0.54835585101E+03  0.12509000000E+03 0.  0.
         25    1    4    4    0    0 -0.55526100676E+02 -0.42097909757E+02  0.25596394594E+03  0.29329239946E+03  0.12509000000E+03 0.  0.
<mgrwt>
<rscale>  2 0.45482491E+03</rscale>
<asrwt>0</asrwt>
<pdfrwt beam="1">  1       21 0.14629031E+00 0.45482491E+03</pdfrwt>
<pdfrwt beam="2">  1       21 0.76453102E-02 0.45482491E+03</pdfrwt>
<totfact> 0.37447569E+04</totfact>
</mgrwt>
</event>
<event>
 7    0  0.4748297E-002  0.4785228E+03  0.7546771E-02  0.1019542E+00
         21   -1    0    0  502  501  0.00000000000E+00  0.00000000000E+00  0.65244946302E+02  0.65244946302E+02  0.00000000000E+00 0. -1.
         21   -1    0    0  501  502 -0.00000000000E+00 -0.00000000000E+00 -0.87740142922E+03  0.87740142922E+03  0.00000000000E+00 0. -1.
      99926    2    1    2    0    0  0.00000000000E+00  0.00000000000E+00 -0.81215648292E+03  0.94264637552E+03  0.47852276491E+03 0.  0.
      99925    2    3    3    0    0  0.48251182157E+02  0.50484418968E+02 -0.72634387040E+03  0.77564887343E+03  0.26301882755E+03 0.  0.
         25    1    3    3    0    0 -0.48251182157E+02 -0.50484418968E+02 -0.85812612514E+02  0.16699750209E+03  0.12509000000E+03 0.  0.
         25    1    4    4    0    0  0.55700683015E+02  0.83992010917E+01 -0.42479805311E+03  0.44640117237E+03  0.12509000000E+03 0.  0.
         25    1    4    4    0    0 -0.74495008578E+01  0.42085217876E+02 -0.30154581729E+03  0.32924770106E+03  0.12509000000E+03 0.  0.
<mgrwt>
<rscale>  2 0.47852276E+03</rscale>
<asrwt>0</asrwt>
<pdfrwt beam="1">  1       21 0.95948457E-02 0.47852276E+03</pdfrwt>
<pdfrwt beam="2">  1       21 0.12902961E+00 0.47852276E+03</pdfrwt>
<totfact> 0.34615689E+04</totfact>
</mgrwt>
</event>
<event>
 7    0  0.4748297E-002  0.4547272E+03  0.7546771E-02  0.1026322E+00
         21   -1    0    0  502  501  0.00000000000E+00  0.00000000000E+00  0.26545609046E+03  0.26545609046E+03  0.00000000000E+00 0. -1.
         21   -1    0    0  501  502 -0.00000000000E+00 -0.00000000000E+00 -0.19473731028E+03  0.19473731028E+03  0.00000000000E+00 0. -1.
      99926    2    1    2    0    0  0.00000000000E+00  0.00000000000E+00  0.70718780186E+02  0.46019340074E+03  0.45472719318E+03 0.  0.
      99925    2    3    3    0    0  0.44931120347E+02  0.33462815362E+02 -0.54567641877E+02  0.27449805551E+03  0.26312162464E+03 0.  0.
         25    1    4    4    0    0 -0.68123404292E+01  0.35967209795E+02 -0.53796835598E+01  0.13044729686E+03  0.12509000000E+03 0.  0.
         25    1    4    4    0    0  0.51743460776E+02 -0.25043944328E+01 -0.49187958318E+02  0.14405075865E+03  0.12509000000E+03 0.  0.
         25    1    3    3    0    0 -0.44931120347E+02 -0.33462815362E+02  0.12528642206E+03  0.18569534523E+03  0.12509000000E+03 0.  0.
<mgrwt>
<rscale>  2 0.45472719E+03</rscale>
<asrwt>0</asrwt>
<pdfrwt beam="1">  1       21 0.39037661E-01 0.45472719E+03</pdfrwt>
<pdfrwt beam="2">  1       21 0.28637840E-01 0.45472719E+03</pdfrwt>
<totfact> 0.68314960E+04</totfact>
</mgrwt>
</event>
<event>
 7    0  0.4748297E-002  0.4501055E+03  0.7546771E-02  0.1027691E+00
         21   -1    0    0  502  501  0.00000000000E+00  0.00000000000E+00  0.11236462152E+04  0.11236462152E+04  0.00000000000E+00 0. -1.
         21   -1    0    0  501  502 -0.00000000000E+00 -0.00000000000E+00 -0.45075337913E+02  0.45075337913E+02  0.00000000000E+00 0. -1.
      99926    2    1    2    0    0  0.00000000000E+00  0.00000000000E+00  0.10785708773E+04  0.11687215531E+04  0.45010546695E+03 0.  0.
      99925    2    3    3    0    0 -0.95053638665E+02 -0.38086643446E+02  0.58216326571E+03  0.64665468808E+03  0.26222591604E+03 0.  0.
         25    1    4    4    0    0 -0.80803728927E+02 -0.12658753868E+02  0.26103533560E+03  0.30079302051E+03  0.12509000000E+03 0.  0.
         25    1    4    4    0    0 -0.14249909738E+02 -0.25427889578E+02  0.32112793012E+03  0.34586166757E+03  0.12509000000E+03 0.  0.
         25    1    3    3    0    0  0.95053638665E+02  0.38086643446E+02  0.49640761156E+03  0.52206686502E+03  0.12509000000E+03 0.  0.
<mgrwt>
<rscale>  2 0.45010547E+03</rscale>
<asrwt>0</asrwt>
<pdfrwt beam="1">  1       21 0.16524207E+00 0.45010547E+03</pdfrwt>
<pdfrwt beam="2">  1       21 0.66287269E-02 0.45010547E+03</pdfrwt>
<totfact> 0.34459015E+04</totfact>
</mgrwt>
</event>
<event>
 7    0  0.4748297E-002  0.4584539E+03  0.7546771E-02  0.1025231E+00
         21   -1    0    0  502  501  0.00000000000E+00  0.00000000000E+00  0.18226573373E+02  0.18226573373E+02  0.00000000000E+00 0. -1.
         21   -1    0    0  501  502 -0.00000000000E+00 -0.00000000000E+00 -0.28828788060E+04  0.28828788060E+04  0.00000000000E+00 0. -1.
      99926    2    1    2    0    0 -0.35527136788E-14 -0.14210854715E-13 -0.28646522326E+04  0.29011053793E+04  0.45845393262E+03 0.  0.
      99925    2    3    3    0    0  0.20769693544E+02  0.11139983286E+03 -0.16263366997E+04  0.16513397333E+04  0.26288885681E+03 0.  0.
         25    1    3    3    0    0 -0.20769693544E+02 -0.11139983286E+03 -0.12383155329E+04  0.12497656461E+04  0.12509000000E+03 0.  0.
         25    1    4    4    0    0 -0.25635330590E+02  0.35886729752E+02 -0.71510548797E+03  0.72730213431E+03  0.12509000000E+03 0.  0.
         25    1    4    4    0    0  0.46405024134E+02  0.75513103109E+02 -0.91123121171E+03  0.92403759897E+03  0.12509000000E+03 0.  0.
<mgrwt>
<rscale>  2 0.45845393E+03</rscale>
<asrwt>0</asrwt>
<pdfrwt beam="1">  1       21 0.26803763E-02 0.45845393E+03</pdfrwt>
<pdfrwt beam="2">  1       21 0.42395310E+00 0.45845393E+03</pdfrwt>
<totfact> 0.37351921E+03</totfact>
</mgrwt>
</event>
<event>
 7    0  0.4748297E-002  0.4525137E+03  0.7546771E-02  0.1026975E+00
         21   -1    0    0  502  501  0.00000000000E+00  0.00000000000E+00  0.15413044984E+03  0.15413044984E+03  0.00000000000E+00 0.  1.
         21   -1    0    0  501  502 -0.00000000000E+00 -0.00000000000E+00 -0.33213530244E+03  0.33213530244E+03  0.00000000000E+00 0.  1.
      99926    2    1    2    0    0  0.00000000000E+00  0.00000000000E+00 -0.17800485260E+03  0.48626575228E+03  0.45251370620E+03 0.  0.
      99925    2    3    3    0    0  0.10816360281E+02  0.44802110988E+02 -0.22054894013E+03  0.34633101649E+03  0.26301922969E+03 0.  0.
         25    1    3    3    0    0 -0.10816360281E+02 -0.44802110988E+02  0.42544087532E+02  0.13993473580E+03  0.12509000000E+03 0.  0.
         25    1    4    4    0    0 -0.14601000559E+02  0.48723316253E+02 -0.14413753198E+03  0.19751021996E+03  0.12509000000E+03 0.  0.
         25    1    4    4    0    0  0.25417360840E+02 -0.39212052648E+01 -0.76411408152E+02  0.14882079653E+03  0.12509000000E+03 0.  0.
<mgrwt>
<rscale>  2 0.45251371E+03</rscale>
<asrwt>0</asrwt>
<pdfrwt beam="1">  1       21 0.22666242E-01 0.45251371E+03</pdfrwt>
<pdfrwt beam="2">  1       21 0.48843428E-01 0.45251371E+03</pdfrwt>
<totfact> 0.67570624E+04</totfact>
</mgrwt>
</event>
<event>
 7    0  0.4748297E-002  0.4504533E+03  0.7546771E-02  0.1027587E+00
         21   -1    0    0  502  501  0.00000000000E+00  0.00000000000E+00  0.15986105134E+03  0.15986105134E+03  0.00000000000E+00 0.  1.
         21   -1    0    0  501  502 -0.00000000000E+00 -0.00000000000E+00 -0.31731953602E+03  0.31731953602E+03  0.00000000000E+00 0.  1.
      99926    2    1    2    0    0 -0.17763568394E-14  0.14210854715E-13 -0.15745848468E+03  0.47718058736E+03  0.45045325901E+03 0.  0.
      99925    2    3    3    0    0  0.14239958647E+02 -0.71550362025E+02 -0.13996776626E+02  0.27333996210E+03  0.26305245560E+03 0.  0.
         25    1    3    3    0    0 -0.14239958647E+02  0.71550362025E+02 -0.14346170806E+03  0.20384062526E+03  0.12509000000E+03 0.  0.
         25    1    4    4    0    0  0.24325439750E+02 -0.64505403832E+02  0.17121410195E+02  0.14385174636E+03  0.12509000000E+03 0.  0.
         25    1    4    4    0    0 -0.10085481103E+02 -0.70449581929E+01 -0.31118186820E+02  0.12948821574E+03  0.12509000000E+03 0.  0.
<mgrwt>
<rscale>  2 0.45045326E+03</rscale>
<asrwt>0</asrwt>
<pdfrwt beam="1">  1       21 0.23508979E-01 0.45045326E+03</pdfrwt>
<pdfrwt beam="2">  1       21 0.46664637E-01 0.45045326E+03</pdfrwt>
<totfact> 0.69376031E+04</totfact>
</mgrwt>
</event>
<event>
 7    0  0.4748297E-002  0.4531480E+03  0.7546771E-02  0.1026787E+00
         21   -1    0    0  502  501  0.00000000000E+00  0.00000000000E+00  0.18284136671E+03  0.18284136671E+03  0.00000000000E+00 0. -1.
         21   -1    0    0  501  502 -0.00000000000E+00 -0.00000000000E+00 -0.28076672851E+03  0.28076672851E+03  0.00000000000E+00 0. -1.
      99926    2    1    2    0    0 -0.14210854715E-13  0.35527136788E-14 -0.97925361796E+02  0.46360809523E+03  0.45314797746E+03 0.  0.
      99925    2    3    3    0    0  0.10444849509E+03 -0.28026765893E+02 -0.89418676156E+02  0.29803376287E+03  0.26293237997E+03 0.  0.
         25    1    4    4    0    0  0.26382872573E+02  0.18925255940E+02 -0.33634968853E+02  0.13354040777E+03  0.12509000000E+03 0.  0.
         25    1    4    4    0    0  0.78065622517E+02 -0.46952021833E+02 -0.55783707303E+02  0.16449335510E+03  0.12509000000E+03 0.  0.
         25    1    3    3    0    0 -0.10444849509E+03  0.28026765893E+02 -0.85066856401E+01  0.16557433235E+03  0.12509000000E+03 0.  0.
<mgrwt>
<rscale>  2 0.45314798E+03</rscale>
<asrwt>0</asrwt>
<pdfrwt beam="1">  1       21 0.26888437E-01 0.45314798E+03</pdfrwt>
<pdfrwt beam="2">  1       21 0.41289224E-01 0.45314798E+03</pdfrwt>
<totfact> 0.68921577E+04</totfact>
</mgrwt>
</event>
<event>
 7    0  0.4748297E-002  0.4536351E+03  0.7546771E-02  0.1026644E+00
         21   -1    0    0  502  501  0.00000000000E+00  0.00000000000E+00  0.58779038763E+03  0.58779038763E+03  0.00000000000E+00 0.  1.
         21   -1    0    0  501  502 -0.00000000000E+00 -0.00000000000E+00 -0.87524755673E+02  0.87524755673E+02  0.00000000000E+00 0.  1.
      99926    2    1    2    0    0  0.00000000000E+00  0.00000000000E+00  0.50026563196E+03  0.67531514330E+03  0.45363514001E+03 0.  0.
      99925    2    3    3    0    0 -0.27626401900E+02 -0.47840121783E+02  0.17004801429E+03  0.31790350604E+03  0.26285816832E+03 0.  0.
         25    1    4    4    0    0 -0.42685489385E+01  0.15636873288E+02  0.86911990000E+02  0.15317941906E+03  0.12509000000E+03 0.  0.
         25    1    3    3    0    0  0.27626401900E+02  0.47840121783E+02  0.33021761766E+03  0.35741163726E+03  0.12509000000E+03 0.  0.
         25    1    4    4    0    0 -0.23357852961E+02 -0.63476995071E+02  0.83136024293E+02  0.16472408699E+03  0.12509000000E+03 0.  0.
<mgrwt>
<rscale>  2 0.45363514E+03</rscale>
<asrwt>0</asrwt>
<pdfrwt beam="1">  1       21 0.86439761E-01 0.45363514E+03</pdfrwt>
<pdfrwt beam="2">  1       21 0.12871288E-01 0.45363514E+03</pdfrwt>
<totfact> 0.54851661E+04</totfact>
</mgrwt>
</event>
<event>
 7    0  0.4748297E-002  0.4430173E+03  0.7546771E-02  0.1029825E+00
         21   -1    0    0  502  501  0.00000000000E+00  0.00000000000E+00  0.68882442704E+03  0.68882442704E+03  0.00000000000E+00 0.  1.
         21   -1    0    0  501  502 -0.00000000000E+00 -0.00000000000E+00 -0.71231616648E+02  0.71231616648E+02  0.00000000000E+00 0.  1.
      99926    2    1    2    0    0  0.00000000000E+00 -0.14210854715E-13  0.61759281039E+03  0.76005604369E+03  0.44301727968E+03 0.  0.
      99925    2    3    3    0    0  0.87428645769E+01  0.77753983079E+02  0.28203828809E+03  0.39349572791E+03  0.26300412995E+03 0.  0.
         25    1    4    4    0    0  0.36803158513E+02  0.14522656293E+02  0.12653249436E+03  0.18227276333E+03  0.12509000000E+03 0.  0.
         25    1    4    4    0    0 -0.28060293936E+02  0.63231326786E+02  0.15550579372E+03  0.21122296458E+03  0.12509000000E+03 0.  0.
         25    1    3    3    0    0 -0.87428645769E+01 -0.77753983079E+02  0.33555452230E+03  0.36656031578E+03  0.12509000000E+03 0.  0.
<mgrwt>
<rscale>  2 0.44301728E+03</rscale>
<asrwt>0</asrwt>
<pdfrwt beam="1">  1       21 0.10129771E+00 0.44301728E+03</pdfrwt>
<pdfrwt beam="2">  1       21 0.10475238E-01 0.44301728E+03</pdfrwt>
<totfact> 0.54727122E+04</totfact>
</mgrwt>
</event>
<event>
 7    0  0.4748297E-002  0.4487370E+03  0.7546771E-02  0.1028099E+00
         21   -1    0    0  502  501  0.00000000000E+00  0.00000000000E+00  0.43835708312E+03  0.43835708312E+03  0.00000000000E+00 0.  1.
         21   -1    0    0  501  502 -0.00000000000E+00 -0.00000000000E+00 -0.11484065644E+03  0.11484065644E+03  0.00000000000E+00 0.  1.
      99926    2    1    2    0    0  0.00000000000E+00  0.35527136788E-14  0.32351642668E+03  0.55319773956E+03  0.44873696161E+03 0.  0.
      99925    2    3    3    0    0  0.48656299055E+02 -0.17025363747E+02  0.32059816671E+03  0.41787101348E+03  0.26301273916E+03 0.  0.
         25    1    3    3    0    0 -0.48656299055E+02  0.17025363747E+02  0.29182599702E+01  0.13532672607E+03  0.12509000000E+03 0.  0.
         25    1    4    4    0    0  0.18655104012E+02  0.30704734270E+02  0.14140934389E+03  0.19218455779E+03  0.12509000000E+03 0.  0.
         25    1    4    4    0    0  0.30001195043E+02 -0.47730098017E+02  0.17918882282E+03  0.22568645569E+03  0.12509000000E+03 0.  0.
<mgrwt>
<rscale>  2 0.44873696E+03</rscale>
<asrwt>0</asrwt>
<pdfrwt beam="1">  1       21 0.64464276E-01 0.44873696E+03</pdfrwt>
<pdfrwt beam="2">  1       21 0.16888332E-01 0.44873696E+03</pdfrwt>
<totfact> 0.64807584E+04</totfact>
</mgrwt>
</event>
<event>
 7    0  0.4748297E-002  0.4701894E+03  0.7546771E-02  0.1021867E+00
         21   -1    0    0  502  501  0.00000000000E+00  0.00000000000E+00  0.50993006628E+03  0.50993006628E+03  0.00000000000E+00 0.  1.
         21   -1    0    0  501  502 -0.00000000000E+00 -0.00000000000E+00 -0.10838644530E+03  0.10838644530E+03  0.00000000000E+00 0.  1.
      99926    2    1    2    0    0  0.14210854715E-13  0.00000000000E+00  0.40154362097E+03  0.61831651158E+03  0.47018935436E+03 0.  0.
      99925    2    3    3    0    0 -0.11517406911E+03  0.52986254418E+02  0.25542279125E+03  0.38794417312E+03  0.26303473118E+03 0.  0.
         25    1    4    4    0    0 -0.50438659815E+02  0.59998243453E+02  0.10126626532E+03  0.17901455866E+03  0.12509000000E+03 0.  0.
         25    1    4    4    0    0 -0.64735409297E+02 -0.70119890342E+01  0.15415652594E+03  0.20892961445E+03  0.12509000000E+03 0.  0.
         25    1    3    3    0    0  0.11517406911E+03 -0.52986254418E+02  0.14612082972E+03  0.23037233847E+03  0.12509000000E+03 0.  0.
<mgrwt>
<rscale>  2 0.47018935E+03</rscale>
<asrwt>0</asrwt>
<pdfrwt beam="1">  1       21 0.74989715E-01 0.47018935E+03</pdfrwt>
<pdfrwt beam="2">  1       21 0.15939183E-01 0.47018935E+03</pdfrwt>
<totfact> 0.51147347E+04</totfact>
</mgrwt>
</event>
<event>
 7    0  0.4748297E-002  0.4498300E+03  0.7546771E-02  0.1027773E+00
         21   -1    0    0  502  501  0.00000000000E+00  0.00000000000E+00  0.14455178341E+03  0.14455178341E+03  0.00000000000E+00 0. -1.
         21   -1    0    0  501  502 -0.00000000000E+00 -0.00000000000E+00 -0.34995598109E+03  0.34995598109E+03  0.00000000000E+00 0. -1.
      99926    2    1    2    0    0 -0.22204460493E-15  0.00000000000E+00 -0.20540419768E+03  0.49450776450E+03  0.44983001760E+03 0.  0.
      99925    2    3    3    0    0 -0.17646035411E+01  0.57575495326E+02 -0.29173795411E+02  0.27085018187E+03  0.26304117395E+03 0.  0.
         25    1    3    3    0    0  0.17646035411E+01 -0.57575495326E+02 -0.17623040227E+03  0.22365758264E+03  0.12509000000E+03 0.  0.
         25    1    4    4    0    0  0.23390373404E+01  0.60863461001E+02  0.10467608750E+02  0.13952387220E+03  0.12509000000E+03 0.  0.
         25    1    4    4    0    0 -0.41036408815E+01 -0.32879656747E+01 -0.39641404161E+02  0.13132630967E+03  0.12509000000E+03 0.  0.
<mgrwt>
<rscale>  2 0.44983002E+03</rscale>
<asrwt>0</asrwt>
<pdfrwt beam="1">  1       21 0.21257615E-01 0.44983002E+03</pdfrwt>
<pdfrwt beam="2">  1       21 0.51464114E-01 0.44983002E+03</pdfrwt>
<totfact> 0.68423601E+04</totfact>
</mgrwt>
</event>
<event>
 7    0  0.4748297E-002  0.4311435E+03  0.7546771E-02  0.1033499E+00
         21   -1    0    0  502  501  0.00000000000E+00  0.00000000000E+00  0.49200935957E+03  0.49200935957E+03  0.00000000000E+00 0. -1.
         21   -1    0    0  501  502 -0.00000000000E+00 -0.00000000000E+00 -0.94451825795E+02  0.94451825795E+02  0.00000000000E+00 0. -1.
      99926    2    1    2    0    0  0.00000000000E+00  0.79103390505E-15  0.39755753378E+03  0.58646118537E+03  0.43114351355E+03 0.  0.
      99925    2    3    3    0    0  0.87544344416E+02 -0.88926771107E-01  0.23244893609E+03  0.36157815516E+03  0.26275888995E+03 0.  0.
         25    1    4    4    0    0  0.74287675959E+02 -0.94875052742E+01  0.15851101061E+03  0.21536462138E+03  0.12509000000E+03 0.  0.
         25    1    4    4    0    0  0.13256668457E+02  0.93985785031E+01  0.73937925486E+02  0.14621353378E+03  0.12509000000E+03 0.  0.
         25    1    3    3    0    0 -0.87544344416E+02  0.88926771107E-01  0.16510859768E+03  0.22488303021E+03  0.12509000000E+03 0.  0.
<mgrwt>
<rscale>  2 0.43114351E+03</rscale>
<asrwt>0</asrwt>
<pdfrwt beam="1">  1       21 0.72354316E-01 0.43114351E+03</pdfrwt>
<pdfrwt beam="2">  1       21 0.13889975E-01 0.43114351E+03</pdfrwt>
<totfact> 0.72199953E+04</totfact>
</mgrwt>
</event>
<event>
 7    0  0.4748297E-002  0.4552918E+03  0.7546771E-02  0.1026156E+00
         21   -1    0    0  502  501  0.00000000000E+00  0.00000000000E+00  0.14603067491E+03  0.14603067491E+03  0.00000000000E+00 0.  1.
         21   -1    0    0  501  502 -0.00000000000E+00 -0.00000000000E+00 -0.35487514298E+03  0.35487514298E+03  0.00000000000E+00 0.  1.
      99926    2    1    2    0    0  0.00000000000E+00  0.35527136788E-14 -0.20884446807E+03  0.50090581789E+03  0.45529180374E+03 0.  0.
      99925    2    3    3    0    0 -0.84197205663E+02 -0.30560325818E+02 -0.20811021052E+03  0.34705150307E+03  0.26289120012E+03 0.  0.
         25    1    3    3    0    0  0.84197205663E+02  0.30560325818E+02 -0.73425754539E+00  0.15385431482E+03  0.12509000000E+03 0.  0.
         25    1    4    4    0    0 -0.16319869058E+02 -0.20267352681E+01 -0.60116736920E+02  0.13975684577E+03  0.12509000000E+03 0.  0.
         25    1    4    4    0    0 -0.67877336605E+02 -0.28533590549E+02 -0.14799347360E+03  0.20729465730E+03  0.12509000000E+03 0.  0.
<mgrwt>
<rscale>  2 0.45529180E+03</rscale>
<asrwt>0</asrwt>
<pdfrwt beam="1">  1       21 0.21475100E-01 0.45529180E+03</pdfrwt>
<pdfrwt beam="2">  1       21 0.52187520E-01 0.45529180E+03</pdfrwt>
<totfact> 0.65056250E+04</totfact>
</mgrwt>
</event>
<event>
 7    0  0.4748297E-002  0.4536884E+03  0.7546771E-02  0.1026628E+00
         21   -1    0    0  502  501  0.00000000000E+00  0.00000000000E+00  0.20161509918E+03  0.20161509918E+03  0.00000000000E+00 0. -1.
         21   -1    0    0  501  502 -0.00000000000E+00 -0.00000000000E+00 -0.25523036067E+03  0.25523036067E+03  0.00000000000E+00 0. -1.
      99926    2    1    2    0    0  0.00000000000E+00  0.00000000000E+00 -0.53615261488E+02  0.45684545986E+03  0.45368841502E+03 0.  0.
      99925    2    3    3    0    0 -0.57672036239E+02  0.60828360069E+02  0.41080660317E+02  0.27896634681E+03  0.26288485853E+03 0.  0.
         25    1    4    4    0    0 -0.58993678842E+02  0.46437380166E+01  0.13040795505E+02  0.13899420453E+03  0.12509000000E+03 0.  0.
         25    1    3    3    0    0  0.57672036239E+02 -0.60828360069E+02 -0.94695921805E+02  0.17787911305E+03  0.12509000000E+03 0.  0.
         25    1    4    4    0    0  0.13216426031E+01  0.56184622052E+02  0.28039864812E+02  0.13997214227E+03  0.12509000000E+03 0.  0.
<mgrwt>
<rscale>  2 0.45368842E+03</rscale>
<asrwt>0</asrwt>
<pdfrwt beam="1">  1       21 0.29649279E-01 0.45368842E+03</pdfrwt>
<pdfrwt beam="2">  1       21 0.37533877E-01 0.45368842E+03</pdfrwt>
<totfact> 0.69131288E+04</totfact>
</mgrwt>
</event>
<event>
 7    0  0.4748297E-002  0.4543584E+03  0.7546771E-02  0.1026430E+00
         21   -1    0    0  502  501  0.00000000000E+00  0.00000000000E+00  0.11465657894E+03  0.11465657894E+03  0.00000000000E+00 0. -1.
         21   -1    0    0  501  502 -0.00000000000E+00 -0.00000000000E+00 -0.45013029546E+03  0.45013029546E+03  0.00000000000E+00 0. -1.
      99926    2    1    2    0    0 -0.71054273576E-14  0.00000000000E+00 -0.33547371652E+03  0.56478687440E+03  0.45435844773E+03 0.  0.
      99925    2    3    3    0    0  0.43237304372E+02  0.97883293221E+02 -0.25411551910E+03  0.38116425061E+03  0.26317462893E+03 0.  0.
         25    1    4    4    0    0  0.20311407834E+02  0.45157061509E+02 -0.18027723851E+03  0.22494244668E+03  0.12509000000E+03 0.  0.
         25    1    3    3    0    0 -0.43237304372E+02 -0.97883293221E+02 -0.81358197423E+02  0.18362262379E+03  0.12509000000E+03 0.  0.
         25    1    4    4    0    0  0.22925896538E+02  0.52726231713E+02 -0.73838280587E+02  0.15622180393E+03  0.12509000000E+03 0.  0.
<mgrwt>
<rscale>  2 0.45435845E+03</rscale>
<asrwt>0</asrwt>
<pdfrwt beam="1">  1       21 0.16861261E-01 0.45435845E+03</pdfrwt>
<pdfrwt beam="2">  1       21 0.66195632E-01 0.45435845E+03</pdfrwt>
<totfact> 0.61209816E+04</totfact>
</mgrwt>
</event>
<event>
 7    0  0.4748297E-002  0.4576229E+03  0.7546771E-02  0.1025473E+00
         21   -1    0    0  502  501  0.00000000000E+00  0.00000000000E+00  0.28229474517E+03  0.28229474517E+03  0.00000000000E+00 0. -1.
         21   -1    0    0  501  502 -0.00000000000E+00 -0.00000000000E+00 -0.18546103509E+03  0.18546103509E+03  0.00000000000E+00 0. -1.
      99926    2    1    2    0    0  0.00000000000E+00  0.00000000000E+00  0.96833710081E+02  0.46775578026E+03  0.45762288247E+03 0.  0.
      99925    2    3    3    0    0 -0.11220249218E+03  0.27808751577E+02  0.60087063574E+02  0.29351298974E+03  0.26301462701E+03 0.  0.
         25    1    3    3    0    0  0.11220249218E+03 -0.27808751577E+02  0.36746646507E+02  0.17424279051E+03  0.12509000000E+03 0.  0.
         25    1    4    4    0    0 -0.58900779187E+02 -0.16749468204E+02  0.56733323866E+02  0.15038625140E+03  0.12509000000E+03 0.  0.
         25    1    4    4    0    0 -0.53301712997E+02  0.44558219781E+02  0.33537397081E+01  0.14312673834E+03  0.12509000000E+03 0.  0.
<mgrwt>
<rscale>  2 0.45762288E+03</rscale>
<asrwt>0</asrwt>
<pdfrwt beam="1">  1       21 0.41513934E-01 0.45762288E+03</pdfrwt>
<pdfrwt beam="2">  1       21 0.27273681E-01 0.45762288E+03</pdfrwt>
<totfact> 0.66214887E+04</totfact>
</mgrwt>
</event>
<event>
 7    0  0.4748297E-002  0.4542016E+03  0.7546771E-02  0.1026476E+00
         21   -1    0    0  502  501  0.00000000000E+00  0.00000000000E+00  0.39868070622E+02  0.39868070622E+02  0.00000000000E+00 0. -1.
         21   -1    0    0  501  502 -0.00000000000E+00 -0.00000000000E+00 -0.12936363258E+04  0.12936363258E+04  0.00000000000E+00 0. -1.
      99926    2    1    2    0    0 -0.14210854715E-13  0.71054273576E-14 -0.12537682552E+04  0.13335043964E+04  0.45420164859E+03 0.  0.
      99925    2    3    3    0    0 -0.62619403588E+02  0.46403229791E+02 -0.55178004132E+03  0.61621128344E+03  0.26302220894E+03 0.  0.
         25    1    4    4    0    0  0.66143226092E+01  0.58041453981E+01 -0.23812129679E+03  0.26912208652E+03  0.12509000000E+03 0.  0.
         25    1    3    3    0    0  0.62619403588E+02 -0.46403229791E+02 -0.70198821388E+03  0.71729311301E+03  0.12509000000E+03 0.  0.
         25    1    4    4    0    0 -0.69233726197E+02  0.40599084393E+02 -0.31365874453E+03  0.34708919692E+03  0.12509000000E+03 0.  0.
<mgrwt>
<rscale>  2 0.45420165E+03</rscale>
<asrwt>0</asrwt>
<pdfrwt beam="1">  1       21 0.58629513E-02 0.45420165E+03</pdfrwt>
<pdfrwt beam="2">  1       21 0.19024064E+00 0.45420165E+03</pdfrwt>
<totfact> 0.28332485E+04</totfact>
</mgrwt>
</event>
<event>
 7    0  0.4748297E-002  0.4627708E+03  0.7546771E-02  0.1023981E+00
         21   -1    0    0  502  501  0.00000000000E+00  0.00000000000E+00  0.59970382434E+02  0.59970382434E+02  0.00000000000E+00 0.  1.
         21   -1    0    0  501  502 -0.00000000000E+00 -0.00000000000E+00 -0.89276078389E+03  0.89276078389E+03  0.00000000000E+00 0.  1.
      99926    2    1    2    0    0  0.71054273576E-14  0.00000000000E+00 -0.83279040145E+03  0.95273116632E+03  0.46277080994E+03 0.  0.
      99925    2    3    3    0    0  0.57870525470E+02  0.10473581263E+03 -0.54627086114E+03  0.61797820779E+03  0.26299548173E+03 0.  0.
         25    1    4    4    0    0  0.69581661693E+02  0.61934006792E+02 -0.28238154008E+03  0.32258994268E+03  0.12509000000E+03 0.  0.
         25    1    3    3    0    0 -0.57870525470E+02 -0.10473581263E+03 -0.28651954031E+03  0.33475295853E+03  0.12509000000E+03 0.  0.
         25    1    4    4    0    0 -0.11711136224E+02  0.42801805834E+02 -0.26388932106E+03  0.29538826511E+03  0.12509000000E+03 0.  0.
<mgrwt>
<rscale>  2 0.46277081E+03</rscale>
<asrwt>0</asrwt>
<pdfrwt beam="1">  1       21 0.88191733E-02 0.46277081E+03</pdfrwt>
<pdfrwt beam="2">  1       21 0.13128836E+00 0.46277081E+03</pdfrwt>
<totfact> 0.38629135E+04</totfact>
</mgrwt>
</event>
<event>
 7    0  0.4748297E-002  0.4485277E+03  0.7546771E-02  0.1028162E+00
         21   -1    0    0  502  501  0.00000000000E+00  0.00000000000E+00  0.31511652911E+02  0.31511652911E+02  0.00000000000E+00 0.  1.
         21   -1    0    0  501  502 -0.00000000000E+00 -0.00000000000E+00 -0.15960530704E+04  0.15960530704E+04  0.00000000000E+00 0.  1.
      99926    2    1    2    0    0  0.71054273576E-14  0.00000000000E+00 -0.15645414175E+04  0.16275647233E+04  0.44852768201E+03 0.  0.
      99925    2    3    3    0    0  0.32661873655E+02 -0.64340536265E+02 -0.12770685432E+04  0.13058588574E+04  0.26297678390E+03 0.  0.
         25    1    3    3    0    0 -0.32661873655E+02  0.64340536265E+02 -0.28747287428E+03  0.32170586589E+03  0.12509000000E+03 0.  0.
         25    1    4    4    0    0  0.43905040909E+02 -0.17939549996E+02 -0.76304480081E+03  0.77468339095E+03  0.12509000000E+03 0.  0.
         25    1    4    4    0    0 -0.11243167254E+02 -0.46400986269E+02 -0.51402374239E+03  0.53117546647E+03  0.12509000000E+03 0.  0.
<mgrwt>
<rscale>  2 0.44852768E+03</rscale>
<asrwt>0</asrwt>
<pdfrwt beam="1">  1       21 0.46340651E-02 0.44852768E+03</pdfrwt>
<pdfrwt beam="2">  1       21 0.23471376E+00 0.44852768E+03</pdfrwt>
<totfact> 0.21893763E+04</totfact>
</mgrwt>
</event>
<event>
 7    0  0.4748297E-002  0.4507647E+03  0.7546771E-02  0.1027494E+00
         21   -1    0    0  502  501  0.00000000000E+00  0.00000000000E+00  0.14825615738E+04  0.14825615738E+04  0.00000000000E+00 0. -1.
         21   -1    0    0  501  502 -0.00000000000E+00 -0.00000000000E+00 -0.34263140119E+02  0.34263140119E+02  0.00000000000E+00 0. -1.
      99926    2    1    2    0    0  0.00000000000E+00 -0.35527136788E-14  0.14482984337E+04  0.15168247139E+04  0.45076474990E+03 0.  0.
      99925    2    3    3    0    0  0.10641730293E+03 -0.19969516712E+02  0.87767696129E+03  0.92270368516E+03  0.26332834687E+03 0.  0.
         25    1    4    4    0    0  0.79278639637E+02  0.12958506000E+02  0.53978445564E+03  0.55988194491E+03  0.12509000000E+03 0.  0.
         25    1    4    4    0    0  0.27138663296E+02 -0.32928022712E+02  0.33789250565E+03  0.36282174025E+03  0.12509000000E+03 0.  0.
         25    1    3    3    0    0 -0.10641730293E+03  0.19969516712E+02  0.57062147237E+03  0.59412102874E+03  0.12509000000E+03 0.  0.
<mgrwt>
<rscale>  2 0.45076475E+03</rscale>
<asrwt>0</asrwt>
<pdfrwt beam="1">  1       21 0.21802372E+00 0.45076475E+03</pdfrwt>
<pdfrwt beam="2">  1       21 0.50386981E-02 0.45076475E+03</pdfrwt>
<totfact> 0.24154630E+04</totfact>
</mgrwt>
</event>
<event>
 7    0  0.4748297E-002  0.4590258E+03  0.7546771E-02  0.1025064E+00
         21   -1    0    0  502  501  0.00000000000E+00  0.00000000000E+00  0.57941988843E+03  0.57941988843E+03  0.00000000000E+00 0.  1.
         21   -1    0    0  501  502 -0.00000000000E+00 -0.00000000000E+00 -0.90911894675E+02  0.90911894675E+02  0.00000000000E+00 0.  1.
      99926    2    1    2    0    0  0.00000000000E+00  0.88817841970E-15  0.48850799375E+03  0.67033178310E+03  0.45902575034E+03 0.  0.
      99925    2    3    3    0    0  0.66838486828E+02  0.25716762476E+01  0.16622387637E+03  0.31821169384E+03  0.26297206731E+03 0.  0.
         25    1    4    4    0    0  0.61635893905E+02 -0.18172746660E+02  0.11379312487E+03  0.18090222637E+03  0.12509000000E+03 0.  0.
         25    1    3    3    0    0 -0.66838486828E+02 -0.25716762476E+01  0.32228411738E+03  0.35212008926E+03  0.12509000000E+03 0.  0.
         25    1    4    4    0    0  0.52025929228E+01  0.20744422908E+02  0.52430751498E+02  0.13730946747E+03  0.12509000000E+03 0.  0.
<mgrwt>
<rscale>  2 0.45902575E+03</rscale>
<asrwt>0</asrwt>
<pdfrwt beam="1">  1       21 0.85208805E-01 0.45902575E+03</pdfrwt>
<pdfrwt beam="2">  1       21 0.13369397E-01 0.45902575E+03</pdfrwt>
<totfact> 0.52846431E+04</totfact>
</mgrwt>
</event>
<event>
 7    0  0.4748297E-002  0.4540207E+03  0.7546771E-02  0.1026530E+00
         21   -1    0    0  502  501  0.00000000000E+00  0.00000000000E+00  0.45841377394E+02  0.45841377394E+02  0.00000000000E+00 0. -1.
         21   -1    0    0  501  502 -0.00000000000E+00 -0.00000000000E+00 -0.11241744010E+04  0.11241744010E+04  0.00000000000E+00 0. -1.
      99926    2    1    2    0    0  0.00000000000E+00  0.00000000000E+00 -0.10783330236E+04  0.11700157784E+04  0.45402071747E+03 0.  0.
      99925    2    3    3    0    0  0.82201505064E+02 -0.28098797921E+02 -0.49630855468E+03  0.56839578171E+03  0.26306834348E+03 0.  0.
         25    1    4    4    0    0  0.17696358896E+02  0.14559019102E+02 -0.27074428725E+03  0.29912389295E+03  0.12509000000E+03 0.  0.
         25    1    3    3    0    0 -0.82201505064E+02  0.28098797921E+02 -0.58202446893E+03  0.60161999669E+03  0.12509000000E+03 0.  0.
         25    1    4    4    0    0  0.64505146168E+02 -0.42657817023E+02 -0.22556426743E+03  0.26927188876E+03  0.12509000000E+03 0.  0.
<mgrwt>
<rscale>  2 0.45402072E+03</rscale>
<asrwt>0</asrwt>
<pdfrwt beam="1">  1       21 0.67413800E-02 0.45402072E+03</pdfrwt>
<pdfrwt beam="2">  1       21 0.16531974E+00 0.45402072E+03</pdfrwt>
<totfact> 0.33375021E+04</totfact>
</mgrwt>
</event>
<event>
 7    0  0.4748297E-002  0.4122091E+03  0.7546771E-02  0.1039632E+00
         21   -1    0    0  502  501  0.00000000000E+00  0.00000000000E+00  0.55620748874E+02  0.55620748874E+02  0.00000000000E+00 0. -1.
         21   -1    0    0  501  502 -0.00000000000E+00 -0.00000000000E+00 -0.76372742739E+03  0.76372742739E+03  0.00000000000E+00 0. -1.
      99926    2    1    2    0    0  0.00000000000E+00  0.00000000000E+00 -0.70810667851E+03  0.81934817626E+03  0.41220912870E+03 0.  0.
      99925    2    3    3    0    0  0.62504796539E+02  0.18726546651E+02 -0.47559338570E+03  0.54737855925E+03  0.26301461075E+03 0.  0.
         25    1    3    3    0    0 -0.62504796539E+02 -0.18726546651E+02 -0.23251329281E+03  0.27196961701E+03  0.12509000000E+03 0.  0.
         25    1    4    4    0    0 -0.54815668229E+01  0.37336841016E-01 -0.18719406314E+03  0.22520917909E+03  0.12509000000E+03 0.  0.
         25    1    4    4    0    0  0.67986363362E+02  0.18689209810E+02 -0.28839932256E+03  0.32216938017E+03  0.12509000000E+03 0.  0.
<mgrwt>
<rscale>  2 0.41220913E+03</rscale>
<asrwt>0</asrwt>
<pdfrwt beam="1">  1       21 0.81795231E-02 0.41220913E+03</pdfrwt>
<pdfrwt beam="2">  1       21 0.11231284E+00 0.41220913E+03</pdfrwt>
<totfact> 0.66516122E+04</totfact>
</mgrwt>
</event>
<event>
 7    0  0.4748297E-002  0.4516283E+03  0.7546771E-02  0.1027238E+00
         21   -1    0    0  502  501  0.00000000000E+00  0.00000000000E+00  0.22894453257E+02  0.22894453257E+02  0.00000000000E+00 0. -1.
         21   -1    0    0  501  502 -0.00000000000E+00 -0.00000000000E+00 -0.22272652520E+04  0.22272652520E+04  0.00000000000E+00 0. -1.
      99926    2    1    2    0    0  0.00000000000E+00  0.00000000000E+00 -0.22043707987E+04  0.22501597053E+04  0.45162825511E+03 0.  0.
      99925    2    3    3    0    0 -0.10168475455E+03 -0.38062914971E+02 -0.14793306705E+04  0.15064398181E+04  0.26296980482E+03 0.  0.
         25    1    4    4    0    0 -0.72899251411E+02 -0.55309381475E+02 -0.80251319088E+03  0.81734225277E+03  0.12509000000E+03 0.  0.
         25    1    3    3    0    0  0.10168475455E+03  0.38062914971E+02 -0.72504012829E+03  0.74371988714E+03  0.12509000000E+03 0.  0.
         25    1    4    4    0    0 -0.28785503140E+02  0.17246466503E+02 -0.67681747958E+03  0.68909756534E+03  0.12509000000E+03 0.  0.
<mgrwt>
<rscale>  2 0.45162826E+03</rscale>
<asrwt>0</asrwt>
<pdfrwt beam="1">  1       21 0.33668304E-02 0.45162826E+03</pdfrwt>
<pdfrwt beam="2">  1       21 0.32753910E+00 0.45162826E+03</pdfrwt>
<totfact> 0.10305807E+04</totfact>
</mgrwt>
</event>
<event>
 7    0  0.4748297E-002  0.4554332E+03  0.7546771E-02  0.1026114E+00
         21   -1    0    0  502  501  0.00000000000E+00  0.00000000000E+00  0.21231742012E+03  0.21231742012E+03  0.00000000000E+00 0. -1.
         21   -1    0    0  501  502 -0.00000000000E+00 -0.00000000000E+00 -0.24423266839E+03  0.24423266839E+03  0.00000000000E+00 0. -1.
      99926    2    1    2    0    0  0.00000000000E+00  0.00000000000E+00 -0.31915248267E+02  0.45655008850E+03  0.45543320063E+03 0.  0.
      99925    2    3    3    0    0 -0.71458336387E+02 -0.18678473660E+02  0.66345649992E+02  0.28117080967E+03  0.26305911830E+03 0.  0.
         25    1    4    4    0    0 -0.95968862851E+00 -0.25814502223E+02  0.15441685846E+02  0.12865948581E+03  0.12509000000E+03 0.  0.
         25    1    4    4    0    0 -0.70498647758E+02  0.71360285628E+01  0.50903964146E+02  0.15251132386E+03  0.12509000000E+03 0.  0.
         25    1    3    3    0    0  0.71458336387E+02  0.18678473660E+02 -0.98260898260E+02  0.17537927883E+03  0.12509000000E+03 0.  0.
<mgrwt>
<rscale>  2 0.45543320E+03</rscale>
<asrwt>0</asrwt>
<pdfrwt beam="1">  1       21 0.31223150E-01 0.45543320E+03</pdfrwt>
<pdfrwt beam="2">  1       21 0.35916569E-01 0.45543320E+03</pdfrwt>
<totfact> 0.68196400E+04</totfact>
</mgrwt>
</event>
<event>
 7    0  0.4748297E-002  0.4646355E+03  0.7546771E-02  0.1023445E+00
         21   -1    0    0  502  501  0.00000000000E+00  0.00000000000E+00  0.47149425500E+02  0.47149425500E+02  0.00000000000E+00 0.  1.
         21   -1    0    0  501  502 -0.00000000000E+00 -0.00000000000E+00 -0.11446915302E+04  0.11446915302E+04  0.00000000000E+00 0.  1.
      99926    2    1    2    0    0  0.00000000000E+00  0.00000000000E+00 -0.10975421047E+04  0.11918409557E+04  0.46463554761E+03 0.  0.
      99925    2    3    3    0    0  0.11887823079E+02 -0.12003227771E+03 -0.72950938653E+03  0.78484629016E+03  0.26315525099E+03 0.  0.
         25    1    4    4    0    0  0.66622469925E+01 -0.10253853346E+03 -0.37407752625E+03  0.40760279701E+03  0.12509000000E+03 0.  0.
         25    1    3    3    0    0 -0.11887823079E+02  0.12003227771E+03 -0.36803271820E+03  0.40699466556E+03  0.12509000000E+03 0.  0.
         25    1    4    4    0    0  0.52255760869E+01 -0.17493744251E+02 -0.35543186027E+03  0.37724349316E+03  0.12509000000E+03 0.  0.
<mgrwt>
<rscale>  2 0.46463555E+03</rscale>
<asrwt>0</asrwt>
<pdfrwt beam="1">  1       21 0.69337400E-02 0.46463555E+03</pdfrwt>
<pdfrwt beam="2">  1       21 0.16833697E+00 0.46463555E+03</pdfrwt>
<totfact> 0.30092413E+04</totfact>
</mgrwt>
</event>
<event>
 7    0  0.4748297E-002  0.4640651E+03  0.7546771E-02  0.1023609E+00
         21   -1    0    0  502  501  0.00000000000E+00  0.00000000000E+00  0.80478640927E+02  0.80478640927E+02  0.00000000000E+00 0.  1.
         21   -1    0    0  501  502 -0.00000000000E+00 -0.00000000000E+00 -0.66898635341E+03  0.66898635341E+03  0.00000000000E+00 0.  1.
      99926    2    1    2    0    0  0.17763568394E-14  0.00000000000E+00 -0.58850771248E+03  0.74946499434E+03  0.46406513561E+03 0.  0.
      99925    2    3    3    0    0  0.13295499339E+02 -0.34906830530E+02 -0.18081842344E+03  0.32138401880E+03  0.26305347016E+03 0.  0.
         25    1    4    4    0    0 -0.45671475741E+01  0.97791497716E+01 -0.12183776830E+03  0.17495268072E+03  0.12509000000E+03 0.  0.
         25    1    3    3    0    0 -0.13295499339E+02  0.34906830530E+02 -0.40768928904E+03  0.42808097554E+03  0.12509000000E+03 0.  0.
         25    1    4    4    0    0  0.17862646913E+02 -0.44685980302E+02 -0.58980655144E+02  0.14643133808E+03  0.12509000000E+03 0.  0.
<mgrwt>
<rscale>  2 0.46406514E+03</rscale>
<asrwt>0</asrwt>
<pdfrwt beam="1">  1       21 0.11835094E-01 0.46406514E+03</pdfrwt>
<pdfrwt beam="2">  1       21 0.98380349E-01 0.46406514E+03</pdfrwt>
<totfact> 0.46868547E+04</totfact>
</mgrwt>
</event>
<event>
 7    0  0.4748297E-002  0.4568632E+03  0.7546771E-02  0.1025695E+00
         21   -1    0    0  502  501  0.00000000000E+00  0.00000000000E+00  0.12738552739E+03  0.12738552739E+03  0.00000000000E+00 0. -1.
         21   -1    0    0  501  502 -0.00000000000E+00 -0.00000000000E+00 -0.40963049941E+03  0.40963049941E+03  0.00000000000E+00 0. -1.
      99926    2    1    2    0    0  0.00000000000E+00  0.00000000000E+00 -0.28224497202E+03  0.53701602681E+03  0.45686320580E+03 0.  0.
      99925    2    3    3    0    0 -0.38486315419E+02  0.76524068162E+02 -0.87081878806E+02  0.28988595876E+03  0.26289443886E+03 0.  0.
         25    1    4    4    0    0 -0.29053085389E+02 -0.97221094041E+00 -0.50241054997E+02  0.13790104667E+03  0.12509000000E+03 0.  0.
         25    1    3    3    0    0  0.38486315419E+02 -0.76524068162E+02 -0.19516309321E+03  0.24713006805E+03  0.12509000000E+03 0.  0.
         25    1    4    4    0    0 -0.94332300300E+01  0.77496279102E+02 -0.36840823809E+02  0.15198491209E+03  0.12509000000E+03 0.  0.
<mgrwt>
<rscale>  2 0.45686321E+03</rscale>
<asrwt>0</asrwt>
<pdfrwt beam="1">  1       21 0.18733166E-01 0.45686321E+03</pdfrwt>
<pdfrwt beam="2">  1       21 0.60239779E-01 0.45686321E+03</pdfrwt>
<totfact> 0.61816116E+04</totfact>
</mgrwt>
</event>
<event>
 7    0  0.4748297E-002  0.4541451E+03  0.7546771E-02  0.1026493E+00
         21   -1    0    0  502  501  0.00000000000E+00  0.00000000000E+00  0.10638332059E+04  0.10638332059E+04  0.00000000000E+00 0. -1.
         21   -1    0    0  501  502 -0.00000000000E+00 -0.00000000000E+00 -0.48468063315E+02  0.48468063315E+02  0.00000000000E+00 0. -1.
      99926    2    1    2    0    0  0.00000000000E+00  0.00000000000E+00  0.10153651426E+04  0.11123012692E+04  0.45414506572E+03 0.  0.
      99925    2    3    3    0    0  0.99546797601E+02  0.45795236456E+02  0.70079953082E+03  0.75648418025E+03  0.26294783508E+03 0.  0.
         25    1    4    4    0    0  0.81559444627E+02  0.31711176816E+02  0.45180796043E+03  0.47690196367E+03  0.12509000000E+03 0.  0.
         25    1    4    4    0    0  0.17987352974E+02  0.14084059640E+02  0.24899157038E+03  0.27958221657E+03  0.12509000000E+03 0.  0.
         25    1    3    3    0    0 -0.99546797601E+02 -0.45795236456E+02  0.31456561177E+03  0.35581708897E+03  0.12509000000E+03 0.  0.
<mgrwt>
<rscale>  2 0.45414507E+03</rscale>
<asrwt>0</asrwt>
<pdfrwt beam="1">  1       21 0.15644604E+00 0.45414507E+03</pdfrwt>
<pdfrwt beam="2">  1       21 0.71276570E-02 0.45414507E+03</pdfrwt>
<totfact> 0.35300923E+04</totfact>
</mgrwt>
</event>
<event>
 7    0  0.4748297E-002  0.4547974E+03  0.7546771E-02  0.1026301E+00
         21   -1    0    0  502  501  0.00000000000E+00  0.00000000000E+00  0.52137715591E+02  0.52137715591E+02  0.00000000000E+00 0. -1.
         21   -1    0    0  501  502 -0.00000000000E+00 -0.00000000000E+00 -0.99179948634E+03  0.99179948634E+03  0.00000000000E+00 0. -1.
      99926    2    1    2    0    0  0.00000000000E+00 -0.14210854715E-13 -0.93966177075E+03  0.10439372019E+04  0.45479735946E+03 0.  0.
      99925    2    3    3    0    0 -0.82936193860E+02 -0.75589712802E+02 -0.55920313364E+03  0.62801834015E+03  0.26288148272E+03 0.  0.
         25    1    4    4    0    0 -0.60428693319E+02 -0.76750631753E+02 -0.31351740141E+03  0.35140141653E+03  0.12509000000E+03 0.  0.
         25    1    3    3    0    0  0.82936193860E+02  0.75589712802E+02 -0.38045863710E+03  0.41591886177E+03  0.12509000000E+03 0.  0.
         25    1    4    4    0    0 -0.22507500541E+02  0.11609189508E+01 -0.24568573223E+03  0.27661692362E+03  0.12509000000E+03 0.  0.
<mgrwt>
<rscale>  2 0.45479736E+03</rscale>
<asrwt>0</asrwt>
<pdfrwt beam="1">  1       21 0.76673111E-02 0.45479736E+03</pdfrwt>
<pdfrwt beam="2">  1       21 0.14585287E+00 0.45479736E+03</pdfrwt>
<totfact> 0.37560016E+04</totfact>
</mgrwt>
</event>
<event>
 7    0  0.4748297E-002  0.4891212E+03  0.7546771E-02  0.1016658E+00
         21   -1    0    0  502  501  0.00000000000E+00  0.00000000000E+00  0.11538631263E+04  0.11538631263E+04  0.00000000000E+00 0.  1.
         21   -1    0    0  501  502 -0.00000000000E+00 -0.00000000000E+00 -0.51834473325E+02  0.51834473325E+02  0.00000000000E+00 0.  1.
      99926    2    1    2    0    0  0.00000000000E+00  0.00000000000E+00  0.11020286530E+04  0.12056975997E+04  0.48912120151E+03 0.  0.
      99925    2    3    3    0    0  0.10434463836E+03  0.92935853913E+02  0.60099030250E+03  0.67070992384E+03  0.26294026269E+03 0.  0.
         25    1    4    4    0    0  0.63564159833E+02  0.93498099904E+01  0.31597323299E+03  0.34585316744E+03  0.12509000000E+03 0.  0.
         25    1    3    3    0    0 -0.10434463836E+03 -0.92935853913E+02  0.50103835051E+03  0.53498767582E+03  0.12509000000E+03 0.  0.
         25    1    4    4    0    0  0.40780478523E+02  0.83586043922E+02  0.28501706951E+03  0.32485675640E+03  0.12509000000E+03 0.  0.
<mgrwt>
<rscale>  2 0.48912120E+03</rscale>
<asrwt>0</asrwt>
<pdfrwt beam="1">  1       21 0.16968574E+00 0.48912120E+03</pdfrwt>
<pdfrwt beam="2">  1       21 0.76227174E-02 0.48912120E+03</pdfrwt>
<totfact> 0.24721612E+04</totfact>
</mgrwt>
</event>
<event>
 7    0  0.4748297E-002  0.4477325E+03  0.7546771E-02  0.1028400E+00
         21   -1    0    0  502  501  0.00000000000E+00  0.00000000000E+00  0.19716090211E+03  0.19716090211E+03  0.00000000000E+00 0.  1.
         21   -1    0    0  501  502 -0.00000000000E+00 -0.00000000000E+00 -0.25418886134E+03  0.25418886134E+03  0.00000000000E+00 0.  1.
      99926    2    1    2    0    0  0.44408920985E-15  0.00000000000E+00 -0.57027959227E+02  0.45134976345E+03  0.44773253269E+03 0.  0.
      99925    2    3    3    0    0  0.21909922797E+01  0.38496224147E+02  0.62637477198E+02  0.27399676941E+03  0.26393941800E+03 0.  0.
         25    1    3    3    0    0 -0.21909922797E+01 -0.38496224147E+02 -0.11966543643E+03  0.17735299404E+03  0.12509000000E+03 0.  0.
         25    1    4    4    0    0 -0.28343612979E+02 -0.10429747322E+02  0.36876207641E+02  0.13386374721E+03  0.12509000000E+03 0.  0.
         25    1    4    4    0    0  0.30534605259E+02  0.48925971469E+02  0.25761269557E+02  0.14013302220E+03  0.12509000000E+03 0.  0.
<mgrwt>
<rscale>  2 0.44773253E+03</rscale>
<asrwt>0</asrwt>
<pdfrwt beam="1">  1       21 0.28994251E-01 0.44773253E+03</pdfrwt>
<pdfrwt beam="2">  1       21 0.37380715E-01 0.44773253E+03</pdfrwt>
<totfact> 0.72952938E+04</totfact>
</mgrwt>
</event>
<event>
 6    0  0.4748297E-002  0.4432289E+03  0.7546771E-02  0.1029761E+00
         21   -1    0    0  502  501  0.00000000000E+00  0.00000000000E+00  0.28689562519E+02  0.28689562519E+02  0.00000000000E+00 0.  1.
         21   -1    0    0  501  502 -0.00000000000E+00 -0.00000000000E+00 -0.17118758910E+04  0.17118758910E+04  0.00000000000E+00 0.  1.
      99926    2    1    2    0    0  0.00000000000E+00 -0.14210854715E-13 -0.16831863285E+04  0.17405654535E+04  0.44322892685E+03 0.  0.
         25    1    3    3    0    0 -0.97642031414E+01  0.26394819897E+02 -0.62383370247E+03  0.63687363160E+03  0.12509000000E+03 0.  0.
         25    1    3    3    0    0 -0.54451202819E+02  0.54576472088E+02 -0.47242116361E+03  0.49474517554E+03  0.12509000000E+03 0.  0.
         25    1    3    3    0    0  0.64215405961E+02 -0.80971291984E+02 -0.58693146238E+03  0.60894664636E+03  0.12509000000E+03 0.  0.
<mgrwt>
<rscale>  2 0.44322893E+03</rscale>
<asrwt>0</asrwt>
<pdfrwt beam="1">  1       21 0.42190537E-02 0.44322893E+03</pdfrwt>
<pdfrwt beam="2">  1       21 0.25174643E+00 0.44322893E+03</pdfrwt>
<totfact> 0.20215163E+04</totfact>
</mgrwt>
</event>
<event>
 7    0  0.4748297E-002  0.4548936E+03  0.7546771E-02  0.1026273E+00
         21   -1    0    0  502  501  0.00000000000E+00  0.00000000000E+00  0.35645448513E+03  0.35645448513E+03  0.00000000000E+00 0. -1.
         21   -1    0    0  501  502 -0.00000000000E+00 -0.00000000000E+00 -0.14512944884E+03  0.14512944884E+03  0.00000000000E+00 0. -1.
      99926    2    1    2    0    0  0.00000000000E+00  0.00000000000E+00  0.21132503629E+03  0.50158393397E+03  0.45489358300E+03 0.  0.
      99925    2    3    3    0    0 -0.93671473312E+02 -0.52992787978E+02  0.17129046097E+03  0.33178153172E+03  0.26297525032E+03 0.  0.
         25    1    3    3    0    0  0.93671473312E+02  0.52992787978E+02  0.40034575319E+02  0.16980240225E+03  0.12509000000E+03 0.  0.
         25    1    4    4    0    0 -0.63949838118E+02  0.82302962208E+01  0.71162041162E+02  0.15769864861E+03  0.12509000000E+03 0.  0.
         25    1    4    4    0    0 -0.29721635194E+02 -0.61223084199E+02  0.10012841981E+03  0.17408288310E+03  0.12509000000E+03 0.  0.
<mgrwt>
<rscale>  2 0.45489358E+03</rscale>
<asrwt>0</asrwt>
<pdfrwt beam="1">  1       21 0.52419777E-01 0.45489358E+03</pdfrwt>
<pdfrwt beam="2">  1       21 0.21342566E-01 0.45489358E+03</pdfrwt>
<totfact> 0.65214599E+04</totfact>
</mgrwt>
</event>
<event>
 7    0  0.4748297E-002  0.4514077E+03  0.7546771E-02  0.1027303E+00
         21   -1    0    0  502  501  0.00000000000E+00  0.00000000000E+00  0.44249749113E+02  0.44249749113E+02  0.00000000000E+00 0.  1.
         21   -1    0    0  501  502 -0.00000000000E+00 -0.00000000000E+00 -0.11512432936E+04  0.11512432936E+04  0.00000000000E+00 0.  1.
      99926    2    1    2    0    0  0.14210854715E-13  0.00000000000E+00 -0.11069935445E+04  0.11954930427E+04  0.45140769559E+03 0.  0.
      99925    2    3    3    0    0 -0.91067937946E+02 -0.48745918920E+02 -0.79707989893E+03  0.84568808315E+03  0.26302554014E+03 0.  0.
         25    1    3    3    0    0  0.91067937946E+02  0.48745918920E+02 -0.30991364555E+03  0.34980495956E+03  0.12509000000E+03 0.  0.
         25    1    4    4    0    0 -0.65460281255E+02 -0.12733621199E+02 -0.51181682198E+03  0.53108489048E+03  0.12509000000E+03 0.  0.
         25    1    4    4    0    0 -0.25607656691E+02 -0.36012297721E+02 -0.28526307695E+03  0.31460319267E+03  0.12509000000E+03 0.  0.
<mgrwt>
<rscale>  2 0.45140770E+03</rscale>
<asrwt>0</asrwt>
<pdfrwt beam="1">  1       21 0.65073176E-02 0.45140770E+03</pdfrwt>
<pdfrwt beam="2">  1       21 0.16930044E+00 0.45140770E+03</pdfrwt>
<totfact> 0.33219065E+04</totfact>
</mgrwt>
</event>
<event>
 7    0  0.4748297E-002  0.4377769E+03  0.7546771E-02  0.1031431E+00
         21   -1    0    0  502  501  0.00000000000E+00  0.00000000000E+00  0.17303830679E+03  0.17303830679E+03  0.00000000000E+00 0.  1.
         21   -1    0    0  501  502 -0.00000000000E+00 -0.00000000000E+00 -0.27688760664E+03  0.27688760664E+03  0.00000000000E+00 0.  1.
      99926    2    1    2    0    0  0.00000000000E+00 -0.17763568394E-14 -0.10384929985E+03  0.44992591344E+03  0.43777694150E+03 0.  0.
      99925    2    3    3    0    0 -0.19282564456E+02  0.93549244997E+01 -0.16372332881E+03  0.30959865540E+03  0.26189056326E+03 0.  0.
         25    1    4    4    0    0 -0.38953199480E+02 -0.25989047108E+01 -0.54406753045E+02  0.14188625350E+03  0.12509000000E+03 0.  0.
         25    1    4    4    0    0  0.19670635024E+02  0.11953829210E+02 -0.10931657576E+03  0.16771240190E+03  0.12509000000E+03 0.  0.
         25    1    3    3    0    0  0.19282564456E+02 -0.93549244997E+01  0.59874028959E+02  0.14032725804E+03  0.12509000000E+03 0.  0.
<mgrwt>
<rscale>  2 0.43777694E+03</rscale>
<asrwt>0</asrwt>
<pdfrwt beam="1">  1       21 0.25446810E-01 0.43777694E+03</pdfrwt>
<pdfrwt beam="2">  1       21 0.40718766E-01 0.43777694E+03</pdfrwt>
<totfact> 0.79242886E+04</totfact>
</mgrwt>
</event>
<event>
 7    0  0.4748297E-002  0.4547024E+03  0.7546771E-02  0.1026329E+00
         21   -1    0    0  502  501  0.00000000000E+00  0.00000000000E+00  0.29260621094E+03  0.29260621094E+03  0.00000000000E+00 0. -1.
         21   -1    0    0  501  502 -0.00000000000E+00 -0.00000000000E+00 -0.17664889239E+03  0.17664889239E+03  0.00000000000E+00 0. -1.
      99926    2    1    2    0    0  0.00000000000E+00  0.00000000000E+00  0.11595731855E+03  0.46925510332E+03  0.45470237768E+03 0.  0.
      99925    2    3    3    0    0 -0.55824614668E+02 -0.96171146639E+02  0.93117937650E+02  0.30033375338E+03  0.26299075280E+03 0.  0.
         25    1    3    3    0    0  0.55824614668E+02  0.96171146639E+02  0.22839380896E+02  0.16892134995E+03  0.12509000000E+03 0.  0.
         25    1    4    4    0    0 -0.66403012894E+02 -0.58408005524E+02  0.64120245363E+02  0.16607157853E+03  0.12509000000E+03 0.  0.
         25    1    4    4    0    0  0.10578398227E+02 -0.37763141115E+02  0.28997692287E+02  0.13426217484E+03  0.12509000000E+03 0.  0.
<mgrwt>
<rscale>  2 0.45470238E+03</rscale>
<asrwt>0</asrwt>
<pdfrwt beam="1">  1       21 0.43030325E-01 0.45470238E+03</pdfrwt>
<pdfrwt beam="2">  1       21 0.25977778E-01 0.45470238E+03</pdfrwt>
<totfact> 0.67650753E+04</totfact>
</mgrwt>
</event>
<event>
 7    0  0.4748297E-002  0.4514562E+03  0.7546771E-02  0.1027289E+00
         21   -1    0    0  502  501  0.00000000000E+00  0.00000000000E+00  0.17468242558E+03  0.17468242558E+03  0.00000000000E+00 0.  1.
         21   -1    0    0  501  502 -0.00000000000E+00 -0.00000000000E+00 -0.29169039817E+03  0.29169039817E+03  0.00000000000E+00 0.  1.
      99926    2    1    2    0    0  0.00000000000E+00 -0.88817841970E-15 -0.11700797259E+03  0.46637282375E+03  0.45145624936E+03 0.  0.
      99925    2    3    3    0    0  0.80589224849E+02  0.45599317619E+01  0.29951592667E+01  0.27515651719E+03  0.26303368954E+03 0.  0.
         25    1    4    4    0    0  0.70381422418E+02  0.14059704917E+02 -0.24603874678E+02  0.14630132834E+03  0.12509000000E+03 0.  0.
         25    1    4    4    0    0  0.10207802431E+02 -0.94997731553E+01  0.27599033945E+02  0.12885518886E+03  0.12509000000E+03 0.  0.
         25    1    3    3    0    0 -0.80589224849E+02 -0.45599317619E+01 -0.12000313186E+03  0.19121630656E+03  0.12509000000E+03 0.  0.
<mgrwt>
<rscale>  2 0.45145625E+03</rscale>
<asrwt>0</asrwt>
<pdfrwt beam="1">  1       21 0.25688592E-01 0.45145625E+03</pdfrwt>
<pdfrwt beam="2">  1       21 0.42895646E-01 0.45145625E+03</pdfrwt>
<totfact> 0.69643768E+04</totfact>
</mgrwt>
</event>
<event>
 7    0  0.4748297E-002  0.4555428E+03  0.7546771E-02  0.1026082E+00
         21   -1    0    0  502  501  0.00000000000E+00  0.00000000000E+00  0.25186231382E+03  0.25186231382E+03  0.00000000000E+00 0.  1.
         21   -1    0    0  501  502 -0.00000000000E+00 -0.00000000000E+00 -0.20598479944E+03  0.20598479944E+03  0.00000000000E+00 0.  1.
      99926    2    1    2    0    0  0.00000000000E+00  0.00000000000E+00  0.45877514387E+02  0.45784711326E+03  0.45554278920E+03 0.  0.
      99925    2    3    3    0    0  0.17750428174E+02 -0.43211486643E+02 -0.75295484369E+02  0.27753429063E+03  0.26300867330E+03 0.  0.
         25    1    3    3    0    0 -0.17750428174E+02  0.43211486643E+02  0.12117299876E+03  0.18031282263E+03  0.12509000000E+03 0.  0.
         25    1    4    4    0    0 -0.37145629349E+01  0.15277623855E+01 -0.39455611087E+01  0.12521664262E+03  0.12509000000E+03 0.  0.
         25    1    4    4    0    0  0.21464991109E+02 -0.44739249029E+02 -0.71349923260E+02  0.15231764801E+03  0.12509000000E+03 0.  0.
<mgrwt>
<rscale>  2 0.45554279E+03</rscale>
<asrwt>0</asrwt>
<pdfrwt beam="1">  1       21 0.37038576E-01 0.45554279E+03</pdfrwt>
<pdfrwt beam="2">  1       21 0.30291882E-01 0.45554279E+03</pdfrwt>
<totfact> 0.68042557E+04</totfact>
</mgrwt>
</event>
<event>
 7    0  0.4748297E-002  0.4651839E+03  0.7546771E-02  0.1023288E+00
         21   -1    0    0  502  501  0.00000000000E+00  0.00000000000E+00  0.17580728740E+03  0.17580728740E+03  0.00000000000E+00 0. -1.
         21   -1    0    0  501  502 -0.00000000000E+00 -0.00000000000E+00 -0.30771773249E+03  0.30771773249E+03  0.00000000000E+00 0. -1.
      99926    2    1    2    0    0  0.00000000000E+00  0.00000000000E+00 -0.13191044510E+03  0.48352501989E+03  0.46518391990E+03 0.  0.
      99925    2    3    3    0    0  0.10623041217E+03  0.36873506989E+02 -0.13269184537E+03  0.31532075516E+03  0.26301235108E+03 0.  0.
         25    1    4    4    0    0  0.17315128892E+02  0.39282655519E+02 -0.68628537189E+02  0.14899773465E+03  0.12509000000E+03 0.  0.
         25    1    3    3    0    0 -0.10623041217E+03 -0.36873506989E+02  0.78140027364E+00  0.16820426473E+03  0.12509000000E+03 0.  0.
         25    1    4    4    0    0  0.88915283277E+02 -0.24091485297E+01 -0.64063308184E+02  0.16632302051E+03  0.12509000000E+03 0.  0.
<mgrwt>
<rscale>  2 0.46518392E+03</rscale>
<asrwt>0</asrwt>
<pdfrwt beam="1">  1       21 0.25854013E-01 0.46518392E+03</pdfrwt>
<pdfrwt beam="2">  1       21 0.45252607E-01 0.46518392E+03</pdfrwt>
<totfact> 0.61334957E+04</totfact>
</mgrwt>
</event>
<event>
 7    0  0.4748297E-002  0.4463124E+03  0.7546771E-02  0.1028827E+00
         21   -1    0    0  502  501  0.00000000000E+00  0.00000000000E+00  0.37087848659E+02  0.37087848659E+02  0.00000000000E+00 0.  1.
         21   -1    0    0  501  502 -0.00000000000E+00 -0.00000000000E+00 -0.13427226323E+04  0.13427226323E+04  0.00000000000E+00 0.  1.
      99926    2    1    2    0    0  0.00000000000E+00  0.00000000000E+00 -0.13056347836E+04  0.13798104809E+04  0.44631241872E+03 0.  0.
      99925    2    3    3    0    0  0.76138435631E+02 -0.70058003189E+02 -0.88067816660E+03  0.92490299623E+03  0.26295690545E+03 0.  0.
         25    1    4    4    0    0  0.45671939453E+02 -0.33702883544E+02 -0.57590216658E+03  0.59205795661E+03  0.12509000000E+03 0.  0.
         25    1    4    4    0    0  0.30466496178E+02 -0.36355119645E+02 -0.30477600002E+03  0.33284503962E+03  0.12509000000E+03 0.  0.
         25    1    3    3    0    0 -0.76138435631E+02  0.70058003189E+02 -0.42495661700E+03  0.45490748468E+03  0.12509000000E+03 0.  0.
<mgrwt>
<rscale>  2 0.44631242E+03</rscale>
<asrwt>0</asrwt>
<pdfrwt beam="1">  1       21 0.54540962E-02 0.44631242E+03</pdfrwt>
<pdfrwt beam="2">  1       21 0.19745918E+00 0.44631242E+03</pdfrwt>
<totfact> 0.28769045E+04</totfact>
</mgrwt>
</event>
<event>
 7    0  0.4748297E-002  0.4512047E+03  0.7546771E-02  0.1027363E+00
         21   -1    0    0  502  501  0.00000000000E+00  0.00000000000E+00  0.12740369043E+04  0.12740369043E+04  0.00000000000E+00 0.  1.
         21   -1    0    0  501  502 -0.00000000000E+00 -0.00000000000E+00 -0.39948942413E+02  0.39948942413E+02  0.00000000000E+00 0.  1.
      99926    2    1    2    0    0  0.00000000000E+00 -0.35527136788E-14  0.12340879619E+04  0.13139858468E+04  0.45120472925E+03 0.  0.
      99925    2    3    3    0    0  0.99364562534E+02  0.30171677345E+02  0.67993931830E+03  0.73648097774E+03  0.26325483395E+03 0.  0.
         25    1    4    4    0    0  0.68317797582E+02 -0.21148993705E+02  0.33334317949E+03  0.36315256410E+03  0.12509000000E+03 0.  0.
         25    1    3    3    0    0 -0.99364562534E+02 -0.30171677345E+02  0.55414864363E+03  0.57750486902E+03  0.12509000000E+03 0.  0.
         25    1    4    4    0    0  0.31046764952E+02  0.51320671050E+02  0.34659613881E+03  0.37332841364E+03  0.12509000000E+03 0.  0.
<mgrwt>
<rscale>  2 0.45120473E+03</rscale>
<asrwt>0</asrwt>
<pdfrwt beam="1">  1       21 0.18735834E+00 0.45120473E+03</pdfrwt>
<pdfrwt beam="2">  1       21 0.58748453E-02 0.45120473E+03</pdfrwt>
<totfact> 0.29574462E+04</totfact>
</mgrwt>
</event>
<event>
 7    0  0.4748297E-002  0.4567168E+03  0.7546771E-02  0.1025738E+00
         21   -1    0    0  502  501  0.00000000000E+00  0.00000000000E+00  0.45456322801E+03  0.45456322801E+03  0.00000000000E+00 0.  1.
         21   -1    0    0  501  502 -0.00000000000E+00 -0.00000000000E+00 -0.11472015750E+03  0.11472015750E+03  0.00000000000E+00 0.  1.
      99926    2    1    2    0    0 -0.14210854715E-13 -0.35527136788E-14  0.33984307051E+03  0.56928338552E+03  0.45671682742E+03 0.  0.
      99925    2    3    3    0    0 -0.77712796471E+02 -0.26512087610E+02  0.11336299496E+03  0.29783743833E+03  0.26289503898E+03 0.  0.
         25    1    4    4    0    0 -0.24882357526E+02 -0.22424341978E+02  0.15527639000E+02  0.13042468517E+03  0.12509000000E+03 0.  0.
         25    1    4    4    0    0 -0.52830438945E+02 -0.40877456327E+01  0.97835355957E+02  0.16741275315E+03  0.12509000000E+03 0.  0.
         25    1    3    3    0    0  0.77712796471E+02  0.26512087610E+02  0.22648007555E+03  0.27144594719E+03  0.12509000000E+03 0.  0.
<mgrwt>
<rscale>  2 0.45671683E+03</rscale>
<asrwt>0</asrwt>
<pdfrwt beam="1">  1       21 0.66847533E-01 0.45671683E+03</pdfrwt>
<pdfrwt beam="2">  1       21 0.16870611E-01 0.45671683E+03</pdfrwt>
<totfact> 0.59793999E+04</totfact>
</mgrwt>
</event>
<event>
 7    0  0.4748297E-002  0.4641323E+03  0.7546771E-02  0.1023590E+00
         21   -1    0    0  502  501  0.00000000000E+00  0.00000000000E+00  0.86978956316E+03  0.86978956316E+03  0.00000000000E+00 0.  1.
         21   -1    0    0  501  502 -0.00000000000E+00 -0.00000000000E+00 -0.61916925649E+02  0.61916925649E+02  0.00000000000E+00 0.  1.
      99926    2    1    2    0    0  0.35527136788E-14  0.14210854715E-13  0.80787263751E+03  0.93170648881E+03  0.46413229025E+03 0.  0.
      99925    2    3    3    0    0  0.31692062600E+02  0.11465062949E+03  0.45356076949E+03  0.53758269913E+03  0.26292324566E+03 0.  0.
         25    1    4    4    0    0  0.55402975503E+02  0.69188590715E+02  0.23478231936E+03  0.28040470103E+03  0.12509000000E+03 0.  0.
         25    1    4    4    0    0 -0.23710912902E+02  0.45462038771E+02  0.21877845014E+03  0.25717799810E+03  0.12509000000E+03 0.  0.
         25    1    3    3    0    0 -0.31692062600E+02 -0.11465062949E+03  0.35431186801E+03  0.39412378967E+03  0.12509000000E+03 0.  0.
<mgrwt>
<rscale>  2 0.46413229E+03</rscale>
<asrwt>0</asrwt>
<pdfrwt beam="1">  1       21 0.12791022E+00 0.46413229E+03</pdfrwt>
<pdfrwt beam="2">  1       21 0.91054307E-02 0.46413229E+03</pdfrwt>
<totfact> 0.39026488E+04</totfact>
</mgrwt>
</event>
<event>
 7    0  0.4748297E-002  0.4605746E+03  0.7546771E-02  0.1024615E+00
         21   -1    0    0  502  501  0.00000000000E+00  0.00000000000E+00  0.37761227776E+03  0.37761227776E+03  0.00000000000E+00 0.  1.
         21   -1    0    0  501  502 -0.00000000000E+00 -0.00000000000E+00 -0.14044100269E+03  0.14044100269E+03  0.00000000000E+00 0.  1.
      99926    2    1    2    0    0  0.00000000000E+00  0.00000000000E+00  0.23717127507E+03  0.51805328046E+03  0.46057462769E+03 0.  0.
      99925    2    3    3    0    0  0.67367044037E+02 -0.97244604420E+02  0.14596416449E+03  0.32321725496E+03  0.26300004730E+03 0.  0.
         25    1    4    4    0    0  0.33866633043E+02 -0.81770005192E+02  0.10771231357E+03  0.18730385254E+03  0.12509000000E+03 0.  0.
         25    1    4    4    0    0  0.33500410995E+02 -0.15474599228E+02  0.38251850916E+02  0.13591340242E+03  0.12509000000E+03 0.  0.
         25    1    3    3    0    0 -0.67367044037E+02  0.97244604420E+02  0.91207110582E+02  0.19483602550E+03  0.12509000000E+03 0.  0.
<mgrwt>
<rscale>  2 0.46057463E+03</rscale>
<asrwt>0</asrwt>
<pdfrwt beam="1">  1       21 0.55531217E-01 0.46057463E+03</pdfrwt>
<pdfrwt beam="2">  1       21 0.20653089E-01 0.46057463E+03</pdfrwt>
<totfact> 0.61264838E+04</totfact>
</mgrwt>
</event>
<event>
 7    0  0.4748297E-002  0.4723576E+03  0.7546771E-02  0.1021257E+00
         21   -1    0    0  502  501  0.00000000000E+00  0.00000000000E+00  0.57017757696E+03  0.57017757696E+03  0.00000000000E+00 0. -1.
         21   -1    0    0  501  502 -0.00000000000E+00 -0.00000000000E+00 -0.97829934602E+02  0.97829934602E+02  0.00000000000E+00 0. -1.
      99926    2    1    2    0    0  0.00000000000E+00  0.00000000000E+00  0.47234764235E+03  0.66800751156E+03  0.47235764021E+03 0.  0.
      99925    2    3    3    0    0 -0.84487996783E+02 -0.85365606274E+02  0.35849442916E+03  0.46055734745E+03  0.26300058216E+03 0.  0.
         25    1    3    3    0    0  0.84487996783E+02  0.85365606274E+02  0.11385321319E+03  0.20745016411E+03  0.12509000000E+03 0.  0.
         25    1    4    4    0    0 -0.42209020219E+02 -0.23514074549E+01  0.14430566365E+03  0.19559847434E+03  0.12509000000E+03 0.  0.
         25    1    4    4    0    0 -0.42278976564E+02 -0.83014198819E+02  0.21418876551E+03  0.26495887310E+03  0.12509000000E+03 0.  0.
<mgrwt>
<rscale>  2 0.47235764E+03</rscale>
<asrwt>0</asrwt>
<pdfrwt beam="1">  1       21 0.83849642E-01 0.47235764E+03</pdfrwt>
<pdfrwt beam="2">  1       21 0.14386755E-01 0.47235764E+03</pdfrwt>
<totfact> 0.47790341E+04</totfact>
</mgrwt>
</event>
<event>
 7    0  0.4748297E-002  0.4724356E+03  0.7546771E-02  0.1021235E+00
         21   -1    0    0  502  501  0.00000000000E+00  0.00000000000E+00  0.95984203225E+02  0.95984203225E+02  0.00000000000E+00 0. -1.
         21   -1    0    0  501  502 -0.00000000000E+00 -0.00000000000E+00 -0.58133379016E+03  0.58133379016E+03  0.00000000000E+00 0. -1.
      99926    2    1    2    0    0 -0.66613381478E-15  0.00000000000E+00 -0.48534958694E+03  0.67731799339E+03  0.47243564919E+03 0.  0.
      99925    2    3    3    0    0  0.13589028398E+01  0.34968227601E+02 -0.47856037416E+03  0.54724791586E+03  0.26312663517E+03 0.  0.
         25    1    3    3    0    0 -0.13589028398E+01 -0.34968227601E+02 -0.67892127752E+01  0.13007007753E+03  0.12509000000E+03 0.  0.
         25    1    4    4    0    0 -0.21792929817E+02  0.51768596999E+02 -0.24601808632E+03  0.28165107194E+03  0.12509000000E+03 0.  0.
         25    1    4    4    0    0  0.23151832657E+02 -0.16800369398E+02 -0.23254228784E+03  0.26559684392E+03  0.12509000000E+03 0.  0.
<mgrwt>
<rscale>  2 0.47243565E+03</rscale>
<asrwt>0</asrwt>
<pdfrwt beam="1">  1       21 0.14115324E-01 0.47243565E+03</pdfrwt>
<pdfrwt beam="2">  1       21 0.85490262E-01 0.47243565E+03</pdfrwt>
<totfact> 0.47307611E+04</totfact>
</mgrwt>
</event>
<event>
 7    0  0.4748297E-002  0.4499022E+03  0.7546771E-02  0.1027751E+00
         21   -1    0    0  502  501  0.00000000000E+00  0.00000000000E+00  0.77608908889E+03  0.77608908889E+03  0.00000000000E+00 0. -1.
         21   -1    0    0  501  502 -0.00000000000E+00 -0.00000000000E+00 -0.65202573763E+02  0.65202573763E+02  0.00000000000E+00 0. -1.
      99926    2    1    2    0    0  0.00000000000E+00  0.00000000000E+00  0.71088651512E+03  0.84129166265E+03  0.44990223856E+03 0.  0.
      99925    2    3    3    0    0 -0.27523065031E+02  0.10261042492E+03  0.48918518125E+03  0.56545582750E+03  0.26296717075E+03 0.  0.
         25    1    3    3    0    0  0.27523065031E+02 -0.10261042492E+03  0.22170133387E+03  0.27583583515E+03  0.12509000000E+03 0.  0.
         25    1    4    4    0    0  0.20412097799E+02  0.50332524046E+02  0.28217748025E+03  0.31340334263E+03  0.12509000000E+03 0.  0.
         25    1    4    4    0    0 -0.47935162830E+02  0.52277900872E+02  0.20700770101E+03  0.25205248487E+03  0.12509000000E+03 0.  0.
<mgrwt>
<rscale>  2 0.44990224E+03</rscale>
<asrwt>0</asrwt>
<pdfrwt beam="1">  1       21 0.11413074E+00 0.44990224E+03</pdfrwt>
<pdfrwt beam="2">  1       21 0.95886142E-02 0.44990224E+03</pdfrwt>
<totfact> 0.47711161E+04</totfact>
</mgrwt>
</event>
<event>
 7    0  0.4748297E-002  0.4561184E+03  0.7546771E-02  0.1025913E+00
         21   -1    0    0  502  501  0.00000000000E+00  0.00000000000E+00  0.67109121586E+03  0.67109121586E+03  0.00000000000E+00 0.  1.
         21   -1    0    0  501  502 -0.00000000000E+00 -0.00000000000E+00 -0.77502113773E+02  0.77502113773E+02  0.00000000000E+00 0.  1.
      99926    2    1    2    0    0  0.71054273576E-14  0.00000000000E+00  0.59358910209E+03  0.74859332963E+03  0.45611835202E+03 0.  0.
      99925    2    3    3    0    0  0.45474542654E+02 -0.93106350609E+02  0.29391021495E+03  0.40772433713E+03  0.26290529489E+03 0.  0.
         25    1    4    4    0    0  0.17146866088E+02 -0.20822406174E+02  0.18343772352E+03  0.22366156158E+03  0.12509000000E+03 0.  0.
         25    1    4    4    0    0  0.28327676566E+02 -0.72283944434E+02  0.11047249143E+03  0.18406277555E+03  0.12509000000E+03 0.  0.
         25    1    3    3    0    0 -0.45474542654E+02  0.93106350609E+02  0.29967888714E+03  0.34086899250E+03  0.12509000000E+03 0.  0.
<mgrwt>
<rscale>  2 0.45611835E+03</rscale>
<asrwt>0</asrwt>
<pdfrwt beam="1">  1       21 0.98689882E-01 0.45611835E+03</pdfrwt>
<pdfrwt beam="2">  1       21 0.11397370E-01 0.45611835E+03</pdfrwt>
<totfact> 0.49902694E+04</totfact>
</mgrwt>
</event>
<event>
 7    0  0.4748297E-002  0.4463658E+03  0.7546771E-02  0.1028811E+00
         21   -1    0    0  502  501  0.00000000000E+00  0.00000000000E+00  0.14832664912E+03  0.14832664912E+03  0.00000000000E+00 0.  1.
         21   -1    0    0  501  502 -0.00000000000E+00 -0.00000000000E+00 -0.33581696518E+03  0.33581696518E+03  0.00000000000E+00 0.  1.
      99926    2    1    2    0    0 -0.14210854715E-13  0.00000000000E+00 -0.18749031606E+03  0.48414361430E+03  0.44636579244E+03 0.  0.
      99925    2    3    3    0    0 -0.91452332410E+02 -0.38679569744E+02 -0.81345949442E+02  0.29237872471E+03  0.26269472197E+03 0.  0.
         25    1    4    4    0    0 -0.31051306169E+02 -0.18517336036E+02 -0.78384438957E+02  0.15198257703E+03  0.12509000000E+03 0.  0.
         25    1    3    3    0    0  0.91452332410E+02  0.38679569744E+02 -0.10614436661E+03  0.19176488960E+03  0.12509000000E+03 0.  0.
         25    1    4    4    0    0 -0.60401026240E+02 -0.20162233708E+02 -0.29615104847E+01  0.14039614768E+03  0.12509000000E+03 0.  0.
<mgrwt>
<rscale>  2 0.44636579E+03</rscale>
<asrwt>0</asrwt>
<pdfrwt beam="1">  1       21 0.21812743E-01 0.44636579E+03</pdfrwt>
<pdfrwt beam="2">  1       21 0.49384847E-01 0.44636579E+03</pdfrwt>
<totfact> 0.71153148E+04</totfact>
</mgrwt>
</event>
<event>
 7    0  0.4748297E-002  0.4364333E+03  0.7546771E-02  0.1031847E+00
         21   -1    0    0  502  501  0.00000000000E+00  0.00000000000E+00  0.25045072135E+03  0.25045072135E+03  0.00000000000E+00 0. -1.
         21   -1    0    0  501  502 -0.00000000000E+00 -0.00000000000E+00 -0.19013126557E+03  0.19013126557E+03  0.00000000000E+00 0. -1.
      99926    2    1    2    0    0 -0.14210854715E-13  0.35527136788E-14  0.60319455784E+02  0.44058198692E+03  0.43643332876E+03 0.  0.
      99925    2    3    3    0    0 -0.76668057623E+02  0.23078390353E+02 -0.12431443328E+02  0.27520120030E+03  0.26300295950E+03 0.  0.
         25    1    3    3    0    0  0.76668057623E+02 -0.23078390353E+02  0.72750899112E+02  0.16538078662E+03  0.12509000000E+03 0.  0.
         25    1    4    4    0    0 -0.70949578296E+02 -0.96064673281E+01 -0.20265059617E+02  0.14554829994E+03  0.12509000000E+03 0.  0.
         25    1    4    4    0    0 -0.57184793276E+01  0.32684857681E+02  0.78336162887E+01  0.12965290036E+03  0.12509000000E+03 0.  0.
<mgrwt>
<rscale>  2 0.43643333E+03</rscale>
<asrwt>0</asrwt>
<pdfrwt beam="1">  1       21 0.36830988E-01 0.43643333E+03</pdfrwt>
<pdfrwt beam="2">  1       21 0.27960480E-01 0.43643333E+03</pdfrwt>
<totfact> 0.80958822E+04</totfact>
</mgrwt>
</event>
<event>
 7    0  0.4748297E-002  0.4624805E+03  0.7546771E-02  0.1024064E+00
         21   -1    0    0  502  501  0.00000000000E+00  0.00000000000E+00  0.28918361862E+03  0.28918361862E+03  0.00000000000E+00 0.  1.
         21   -1    0    0  501  502 -0.00000000000E+00 -0.00000000000E+00 -0.18490692145E+03  0.18490692145E+03  0.00000000000E+00 0.  1.
      99926    2    1    2    0    0 -0.14210854715E-13  0.00000000000E+00  0.10427669717E+03  0.47409054007E+03  0.46248049755E+03 0.  0.
      99925    2    3    3    0    0 -0.82493607569E+02 -0.54211344626E+02 -0.42033980773E+01  0.28132253354E+03  0.26340203900E+03 0.  0.
         25    1    3    3    0    0  0.82493607569E+02  0.54211344626E+02  0.10848009525E+03  0.19276800653E+03  0.12509000000E+03 0.  0.
         25    1    4    4    0    0 -0.12331664289E+02  0.21324388775E+01  0.12460872310E+02  0.12633051365E+03  0.12509000000E+03 0.  0.
         25    1    4    4    0    0 -0.70161943279E+02 -0.56343783503E+02 -0.16664270387E+02  0.15499201990E+03  0.12509000000E+03 0.  0.
<mgrwt>
<rscale>  2 0.46248050E+03</rscale>
<asrwt>0</asrwt>
<pdfrwt beam="1">  1       21 0.42527003E-01 0.46248050E+03</pdfrwt>
<pdfrwt beam="2">  1       21 0.27192194E-01 0.46248050E+03</pdfrwt>
<totfact> 0.63292834E+04</totfact>
</mgrwt>
</event>
<event>
 7    0  0.4748297E-002  0.4566921E+03  0.7546771E-02  0.1025745E+00
         21   -1    0    0  502  501  0.00000000000E+00  0.00000000000E+00  0.14873487123E+04  0.14873487123E+04  0.00000000000E+00 0.  1.
         21   -1    0    0  501  502 -0.00000000000E+00 -0.00000000000E+00 -0.35056955423E+02  0.35056955423E+02  0.00000000000E+00 0.  1.
      99926    2    1    2    0    0  0.00000000000E+00  0.00000000000E+00  0.14522917569E+04  0.15224056678E+04  0.45669209543E+03 0.  0.
      99925    2    3    3    0    0 -0.81337378299E+02  0.62715590455E+02  0.74184202923E+03  0.79375256918E+03  0.26299150246E+03 0.  0.
         25    1    4    4    0    0 -0.61575594371E+02  0.23712615316E+02  0.47831594674E+03  0.49878602121E+03  0.12509000000E+03 0.  0.
         25    1    4    4    0    0 -0.19761783927E+02  0.39002975139E+02  0.26352608249E+03  0.29496654798E+03  0.12509000000E+03 0.  0.
         25    1    3    3    0    0  0.81337378299E+02 -0.62715590455E+02  0.71044972768E+03  0.72865309857E+03  0.12509000000E+03 0.  0.
<mgrwt>
<rscale>  2 0.45669210E+03</rscale>
<asrwt>0</asrwt>
<pdfrwt beam="1">  1       21 0.21872771E+00 0.45669210E+03</pdfrwt>
<pdfrwt beam="2">  1       21 0.51554356E-02 0.45669210E+03</pdfrwt>
<totfact> 0.22932435E+04</totfact>
</mgrwt>
</event>
<event>
 7    0  0.4748297E-002  0.4426877E+03  0.7546771E-02  0.1029925E+00
         21   -1    0    0  502  501  0.00000000000E+00  0.00000000000E+00  0.17508996052E+03  0.17508996052E+03  0.00000000000E+00 0. -1.
         21   -1    0    0  501  502 -0.00000000000E+00 -0.00000000000E+00 -0.27981676811E+03  0.27981676811E+03  0.00000000000E+00 0. -1.
      99926    2    1    2    0    0  0.00000000000E+00  0.00000000000E+00 -0.10472680759E+03  0.45490672864E+03  0.44268773140E+03 0.  0.
      99925    2    3    3    0    0  0.82015485717E+02  0.59169262347E+02 -0.66399861321E+02  0.28954650242E+03  0.26306024781E+03 0.  0.
         25    1    4    4    0    0  0.16830839845E+02  0.15022444037E+01 -0.84381454650E+01  0.12650788239E+03  0.12509000000E+03 0.  0.
         25    1    4    4    0    0  0.65184645872E+02  0.57667017943E+02 -0.57961715856E+02  0.16303862003E+03  0.12509000000E+03 0.  0.
         25    1    3    3    0    0 -0.82015485717E+02 -0.59169262347E+02 -0.38326946269E+02  0.16536022622E+03  0.12509000000E+03 0.  0.
<mgrwt>
<rscale>  2 0.44268773E+03</rscale>
<asrwt>0</asrwt>
<pdfrwt beam="1">  1       21 0.25748524E-01 0.44268773E+03</pdfrwt>
<pdfrwt beam="2">  1       21 0.41149525E-01 0.44268773E+03</pdfrwt>
<totfact> 0.75702405E+04</totfact>
</mgrwt>
</event>
<event>
 7    0  0.4748297E-002  0.4572549E+03  0.7546771E-02  0.1025580E+00
         21   -1    0    0  502  501  0.00000000000E+00  0.00000000000E+00  0.28625004411E+03  0.28625004411E+03  0.00000000000E+00 0. -1.
         21   -1    0    0  501  502 -0.00000000000E+00 -0.00000000000E+00 -0.18260440384E+03  0.18260440384E+03  0.00000000000E+00 0. -1.
      99926    2    1    2    0    0  0.71054273576E-14 -0.71054273576E-14  0.10364564027E+03  0.46885444795E+03  0.45725493394E+03 0.  0.
      99925    2    3    3    0    0 -0.58810761274E+02  0.58595293299E+02  0.14706002922E+03  0.31257127129E+03  0.26302477716E+03 0.  0.
         25    1    3    3    0    0  0.58810761274E+02 -0.58595293299E+02 -0.43414388957E+02  0.15628317666E+03  0.12509000000E+03 0.  0.
         25    1    4    4    0    0  0.11603302649E+02  0.26053595661E+02  0.76081427005E+02  0.14916205320E+03  0.12509000000E+03 0.  0.
         25    1    4    4    0    0 -0.70414063923E+02  0.32541697638E+02  0.70978602219E+02  0.16340921809E+03  0.12509000000E+03 0.  0.
<mgrwt>
<rscale>  2 0.45725493E+03</rscale>
<asrwt>0</asrwt>
<pdfrwt beam="1">  1       21 0.42095595E-01 0.45725493E+03</pdfrwt>
<pdfrwt beam="2">  1       21 0.26853589E-01 0.45725493E+03</pdfrwt>
<totfact> 0.66326960E+04</totfact>
</mgrwt>
</event>
<event>
 7    0  0.4748297E-002  0.4507332E+03  0.7546771E-02  0.1027504E+00
         21   -1    0    0  502  501  0.00000000000E+00  0.00000000000E+00  0.83357637319E+03  0.83357637319E+03  0.00000000000E+00 0. -1.
         21   -1    0    0  501  502 -0.00000000000E+00 -0.00000000000E+00 -0.60930367835E+02  0.60930367835E+02  0.00000000000E+00 0. -1.
      99926    2    1    2    0    0 -0.44408920985E-15  0.00000000000E+00  0.77264600535E+03  0.89450674102E+03  0.45073324722E+03 0.  0.
      99925    2    3    3    0    0 -0.22311724605E+01  0.83180329556E+02  0.34632748165E+03  0.44249021798E+03  0.26254699218E+03 0.  0.
         25    1    4    4    0    0  0.38596177225E+02  0.38959432554E+02  0.16920781383E+03  0.21745412077E+03  0.12509000000E+03 0.  0.
         25    1    4    4    0    0 -0.40827349686E+02  0.44220897002E+02  0.17711966782E+03  0.22503609720E+03  0.12509000000E+03 0.  0.
         25    1    3    3    0    0  0.22311724605E+01 -0.83180329556E+02  0.42631852370E+03  0.45201652305E+03  0.12509000000E+03 0.  0.
<mgrwt>
<rscale>  2 0.45073325E+03</rscale>
<asrwt>0</asrwt>
<pdfrwt beam="1">  1       21 0.12258475E+00 0.45073325E+03</pdfrwt>
<pdfrwt beam="2">  1       21 0.89603487E-02 0.45073325E+03</pdfrwt>
<totfact> 0.44955240E+04</totfact>
</mgrwt>
</event>
<event>
 7    0  0.4748297E-002  0.4574621E+03  0.7546771E-02  0.1025520E+00
         21   -1    0    0  502  501  0.00000000000E+00  0.00000000000E+00  0.22322105585E+03  0.22322105585E+03  0.00000000000E+00 0. -1.
         21   -1    0    0  501  502 -0.00000000000E+00 -0.00000000000E+00 -0.23437707219E+03  0.23437707219E+03  0.00000000000E+00 0. -1.
      99926    2    1    2    0    0 -0.17763568394E-14  0.14210854715E-13 -0.11156016341E+02  0.45759812804E+03  0.45746211874E+03 0.  0.
      99925    2    3    3    0    0 -0.82243888048E+01  0.80837771304E+02 -0.89605520971E+02  0.28906261630E+03  0.26253697056E+03 0.  0.
         25    1    4    4    0    0 -0.15429147816E+02  0.72235035546E+02 -0.23576952436E+02  0.14717112403E+03  0.12509000000E+03 0.  0.
         25    1    3    3    0    0  0.82243888048E+01 -0.80837771304E+02  0.78449504631E+02  0.16853551174E+03  0.12509000000E+03 0.  0.
         25    1    4    4    0    0  0.72047590111E+01  0.86027357580E+01 -0.66028568535E+02  0.14189149227E+03  0.12509000000E+03 0.  0.
<mgrwt>
<rscale>  2 0.45746212E+03</rscale>
<asrwt>0</asrwt>
<pdfrwt beam="1">  1       21 0.32826626E-01 0.45746212E+03</pdfrwt>
<pdfrwt beam="2">  1       21 0.34467216E-01 0.45746212E+03</pdfrwt>
<totfact> 0.67029372E+04</totfact>
</mgrwt>
</event>
<event>
 7    0  0.4748297E-002  0.4498972E+03  0.7546771E-02  0.1027753E+00
         21   -1    0    0  502  501  0.00000000000E+00  0.00000000000E+00  0.37344091963E+03  0.37344091963E+03  0.00000000000E+00 0. -1.
         21   -1    0    0  501  502 -0.00000000000E+00 -0.00000000000E+00 -0.13550166628E+03  0.13550166628E+03  0.00000000000E+00 0. -1.
      99926    2    1    2    0    0  0.00000000000E+00  0.00000000000E+00  0.23793925335E+03  0.50894258590E+03  0.44989717432E+03 0.  0.
      99925    2    3    3    0    0  0.60191431516E+02 -0.19991241335E+02  0.24964226306E+03  0.36820479178E+03  0.26311756123E+03 0.  0.
         25    1    4    4    0    0  0.44438120092E+02 -0.33366980996E+02  0.17089737896E+03  0.21895553013E+03  0.12509000000E+03 0.  0.
         25    1    3    3    0    0 -0.60191431516E+02  0.19991241335E+02 -0.11703009707E+02  0.14073779412E+03  0.12509000000E+03 0.  0.
         25    1    4    4    0    0  0.15753311424E+02  0.13375739661E+02  0.78744884091E+02  0.14924926165E+03  0.12509000000E+03 0.  0.
<mgrwt>
<rscale>  2 0.44989717E+03</rscale>
<asrwt>0</asrwt>
<pdfrwt beam="1">  1       21 0.54917782E-01 0.44989717E+03</pdfrwt>
<pdfrwt beam="2">  1       21 0.19926716E-01 0.44989717E+03</pdfrwt>
<totfact> 0.67332484E+04</totfact>
</mgrwt>
</event>
<event>
 7    0  0.4748297E-002  0.4455816E+03  0.7546771E-02  0.1029048E+00
         21   -1    0    0  502  501  0.00000000000E+00  0.00000000000E+00  0.60546604140E+02  0.60546604140E+02  0.00000000000E+00 0.  1.
         21   -1    0    0  501  502 -0.00000000000E+00 -0.00000000000E+00 -0.81979384038E+03  0.81979384038E+03  0.00000000000E+00 0.  1.
      99926    2    1    2    0    0 -0.71054273576E-14  0.00000000000E+00 -0.75924723624E+03  0.88034044452E+03  0.44558156663E+03 0.  0.
      99925    2    3    3    0    0 -0.36653443237E+02 -0.68021028342E+02 -0.61974702726E+03  0.67766298745E+03  0.26300268357E+03 0.  0.
         25    1    4    4    0    0  0.22623525095E+02 -0.32725113927E+02 -0.29600236231E+03  0.32380188937E+03  0.12509000000E+03 0.  0.
         25    1    4    4    0    0 -0.59276968332E+02 -0.35295914415E+02 -0.32374466495E+03  0.35386109807E+03  0.12509000000E+03 0.  0.
         25    1    3    3    0    0  0.36653443237E+02  0.68021028342E+02 -0.13950020898E+03  0.20267745707E+03  0.12509000000E+03 0.  0.
<mgrwt>
<rscale>  2 0.44558157E+03</rscale>
<asrwt>0</asrwt>
<pdfrwt beam="1">  1       21 0.89039120E-02 0.44558157E+03</pdfrwt>
<pdfrwt beam="2">  1       21 0.12055792E+00 0.44558157E+03</pdfrwt>
<totfact> 0.47502866E+04</totfact>
</mgrwt>
</event>
<event>
 7    0  0.4748297E-002  0.4544460E+03  0.7546771E-02  0.1026404E+00
         21   -1    0    0  502  501  0.00000000000E+00  0.00000000000E+00  0.98758024034E+02  0.98758024034E+02  0.00000000000E+00 0. -1.
         21   -1    0    0  501  502 -0.00000000000E+00 -0.00000000000E+00 -0.52279586310E+03  0.52279586310E+03  0.00000000000E+00 0. -1.
      99926    2    1    2    0    0  0.00000000000E+00  0.00000000000E+00 -0.42403783907E+03  0.62155388713E+03  0.45444597660E+03 0.  0.
      99925    2    3    3    0    0  0.10307804270E+03 -0.45153749968E+02 -0.27407509659E+03  0.39616472090E+03  0.26299312443E+03 0.  0.
         25    1    4    4    0    0  0.42317251315E+02 -0.61847974223E+02 -0.14669648236E+03  0.20684121376E+03  0.12509000000E+03 0.  0.
         25    1    4    4    0    0  0.60760791383E+02  0.16694224255E+02 -0.12737861423E+03  0.18932350714E+03  0.12509000000E+03 0.  0.
         25    1    3    3    0    0 -0.10307804270E+03  0.45153749968E+02 -0.14996274248E+03  0.22538916623E+03  0.12509000000E+03 0.  0.
<mgrwt>
<rscale>  2 0.45444598E+03</rscale>
<asrwt>0</asrwt>
<pdfrwt beam="1">  1       21 0.14523239E-01 0.45444598E+03</pdfrwt>
<pdfrwt beam="2">  1       21 0.76881745E-01 0.45444598E+03</pdfrwt>
<totfact> 0.57622468E+04</totfact>
</mgrwt>
</event>
<event>
 7    0  0.4748297E-002  0.4591621E+03  0.7546771E-02  0.1025025E+00
         21   -1    0    0  502  501  0.00000000000E+00  0.00000000000E+00  0.33112169160E+03  0.33112169160E+03  0.00000000000E+00 0.  1.
         21   -1    0    0  501  502 -0.00000000000E+00 -0.00000000000E+00 -0.15917848336E+03  0.15917848336E+03  0.00000000000E+00 0.  1.
      99926    2    1    2    0    0  0.71054273576E-14  0.00000000000E+00  0.17194320824E+03  0.49030017496E+03  0.45916205713E+03 0.  0.
      99925    2    3    3    0    0 -0.62956664995E+02 -0.41184231980E+02  0.20355286128E+03  0.34094703339E+03  0.26296659410E+03 0.  0.
         25    1    3    3    0    0  0.62956664995E+02  0.41184231980E+02 -0.31609653040E+02  0.14935314157E+03  0.12509000000E+03 0.  0.
         25    1    4    4    0    0 -0.62725088673E+02  0.15054525232E+01  0.12186323563E+03  0.18556632085E+03  0.12509000000E+03 0.  0.
         25    1    4    4    0    0 -0.23157632245E+00 -0.42689684504E+02  0.81689625647E+02  0.15538071254E+03  0.12509000000E+03 0.  0.
<mgrwt>
<rscale>  2 0.45916206E+03</rscale>
<asrwt>0</asrwt>
<pdfrwt beam="1">  1       21 0.48694367E-01 0.45916206E+03</pdfrwt>
<pdfrwt beam="2">  1       21 0.23408600E-01 0.45916206E+03</pdfrwt>
<totfact> 0.63822655E+04</totfact>
</mgrwt>
</event>
<event>
 7    0  0.4748297E-002  0.4449447E+03  0.7546771E-02  0.1029240E+00
         21   -1    0    0  502  501  0.00000000000E+00  0.00000000000E+00  0.84373045237E+02  0.84373045237E+02  0.00000000000E+00 0.  1.
         21   -1    0    0  501  502 -0.00000000000E+00 -0.00000000000E+00 -0.58660850242E+03  0.58660850242E+03  0.00000000000E+00 0.  1.
      99926    2    1    2    0    0  0.13322676296E-14 -0.22204460493E-15 -0.50223545718E+03  0.67098154766E+03  0.44494469639E+03 0.  0.
      99925    2    3    3    0    0  0.14993956643E+01  0.15620119677E+01 -0.16296492244E+03  0.30937859978E+03  0.26296932138E+03 0.  0.
         25    1    4    4    0    0 -0.12385909240E+02  0.19061423347E+02 -0.12111976339E+03  0.17559685018E+03  0.12509000000E+03 0.  0.
         25    1    3    3    0    0 -0.14993956643E+01 -0.15620119677E+01 -0.33927053474E+03  0.36160294788E+03  0.12509000000E+03 0.  0.
         25    1    4    4    0    0  0.13885304905E+02 -0.17499411379E+02 -0.41845159047E+02  0.13378174960E+03  0.12509000000E+03 0.  0.
<mgrwt>
<rscale>  2 0.44494470E+03</rscale>
<asrwt>0</asrwt>
<pdfrwt beam="1">  1       21 0.12407800E-01 0.44494470E+03</pdfrwt>
<pdfrwt beam="2">  1       21 0.86265959E-01 0.44494470E+03</pdfrwt>
<totfact> 0.59047059E+04</totfact>
</mgrwt>
</event>
<event>
 7    0  0.4748297E-002  0.4536870E+03  0.7546771E-02  0.1026628E+00
         21   -1    0    0  502  501  0.00000000000E+00  0.00000000000E+00  0.11732609783E+03  0.11732609783E+03  0.00000000000E+00 0.  1.
         21   -1    0    0  501  502 -0.00000000000E+00 -0.00000000000E+00 -0.43858937606E+03  0.43858937606E+03  0.00000000000E+00 0.  1.
      99926    2    1    2    0    0  0.00000000000E+00  0.71054273576E-14 -0.32126327823E+03  0.55591547389E+03  0.45368702888E+03 0.  0.
      99925    2    3    3    0    0  0.80837784405E+02 -0.56873282081E+02 -0.26697420868E+03  0.38749894033E+03  0.26288948830E+03 0.  0.
         25    1    4    4    0    0  0.75501604969E+02 -0.34518504008E+02 -0.17482181552E+03  0.23043913460E+03  0.12509000000E+03 0.  0.
         25    1    4    4    0    0  0.53361794360E+01 -0.22354778073E+02 -0.92152393155E+02  0.15705980574E+03  0.12509000000E+03 0.  0.
         25    1    3    3    0    0 -0.80837784405E+02  0.56873282081E+02 -0.54289069550E+02  0.16841653356E+03  0.12509000000E+03 0.  0.
<mgrwt>
<rscale>  2 0.45368703E+03</rscale>
<asrwt>0</asrwt>
<pdfrwt beam="1">  1       21 0.17253838E-01 0.45368703E+03</pdfrwt>
<pdfrwt beam="2">  1       21 0.64498438E-01 0.45368703E+03</pdfrwt>
<totfact> 0.62119997E+04</totfact>
</mgrwt>
</event>
<event>
 7    0  0.4748297E-002  0.4642317E+03  0.7546771E-02  0.1023561E+00
         21   -1    0    0  502  501  0.00000000000E+00  0.00000000000E+00  0.13650927198E+03  0.13650927198E+03  0.00000000000E+00 0. -1.
         21   -1    0    0  501  502 -0.00000000000E+00 -0.00000000000E+00 -0.39468208520E+03  0.39468208520E+03  0.00000000000E+00 0. -1.
      99926    2    1    2    0    0  0.14210854715E-13  0.00000000000E+00 -0.25817281321E+03  0.53119135718E+03  0.46423168403E+03 0.  0.
      99925    2    3    3    0    0  0.90658124896E+02  0.69251720140E+02 -0.11266612602E+03  0.30795515835E+03  0.26292209349E+03 0.  0.
         25    1    4    4    0    0  0.21638979451E+02  0.44555791865E+02 -0.20341456549E+02  0.13606890525E+03  0.12509000000E+03 0.  0.
         25    1    3    3    0    0 -0.90658124896E+02 -0.69251720140E+02 -0.14550668719E+03  0.22323619883E+03  0.12509000000E+03 0.  0.
         25    1    4    4    0    0  0.69019145445E+02  0.24695928275E+02 -0.92324669472E+02  0.17188625310E+03  0.12509000000E+03 0.  0.
<mgrwt>
<rscale>  2 0.46423168E+03</rscale>
<asrwt>0</asrwt>
<pdfrwt beam="1">  1       21 0.20074893E-01 0.46423168E+03</pdfrwt>
<pdfrwt beam="2">  1       21 0.58041482E-01 0.46423168E+03</pdfrwt>
<totfact> 0.58710443E+04</totfact>
</mgrwt>
</event>
<event>
 7    0  0.4748297E-002  0.4529886E+03  0.7546771E-02  0.1026835E+00
         21   -1    0    0  502  501  0.00000000000E+00  0.00000000000E+00  0.14191901017E+03  0.14191901017E+03  0.00000000000E+00 0. -1.
         21   -1    0    0  501  502 -0.00000000000E+00 -0.00000000000E+00 -0.36147142290E+03  0.36147142290E+03  0.00000000000E+00 0. -1.
      99926    2    1    2    0    0  0.00000000000E+00  0.00000000000E+00 -0.21955241272E+03  0.50339043307E+03  0.45298859387E+03 0.  0.
      99925    2    3    3    0    0 -0.81626825740E+02 -0.74647693957E+02 -0.15160612299E+03  0.32311446883E+03  0.26302723537E+03 0.  0.
         25    1    4    4    0    0 -0.10243933831E+02 -0.54792962653E+02 -0.50210193445E+02  0.14586219031E+03  0.12509000000E+03 0.  0.
         25    1    3    3    0    0  0.81626825740E+02  0.74647693957E+02 -0.67946289728E+02  0.18027596424E+03  0.12509000000E+03 0.  0.
         25    1    4    4    0    0 -0.71382891909E+02 -0.19854731303E+02 -0.10139592955E+03  0.17725227852E+03  0.12509000000E+03 0.  0.
<mgrwt>
<rscale>  2 0.45298859E+03</rscale>
<asrwt>0</asrwt>
<pdfrwt beam="1">  1       21 0.20870443E-01 0.45298859E+03</pdfrwt>
<pdfrwt beam="2">  1       21 0.53157560E-01 0.45298859E+03</pdfrwt>
<totfact> 0.66081855E+04</totfact>
</mgrwt>
</event>
<event>
 7    0  0.4748297E-002  0.4502983E+03  0.7546771E-02  0.1027633E+00
         21   -1    0    0  502  501  0.00000000000E+00  0.00000000000E+00  0.17777963051E+04  0.17777963051E+04  0.00000000000E+00 0.  1.
         21   -1    0    0  501  502 -0.00000000000E+00 -0.00000000000E+00 -0.28514033366E+02  0.28514033366E+02  0.00000000000E+00 0.  1.
      99926    2    1    2    0    0  0.00000000000E+00  0.00000000000E+00  0.17492822717E+04  0.18063103384E+04  0.45029831517E+03 0.  0.
      99925    2    3    3    0    0  0.10171795585E+03  0.37357255352E+02  0.11370966613E+04  0.11721488158E+04  0.26306258236E+03 0.  0.
         25    1    4    4    0    0  0.21174032724E+02  0.25104575188E+02  0.64790530113E+03  0.66068704141E+03  0.12509000000E+03 0.  0.
         25    1    3    3    0    0 -0.10171795585E+03 -0.37357255352E+02  0.61218561040E+03  0.63416152261E+03  0.12509000000E+03 0.  0.
         25    1    4    4    0    0  0.80543923130E+02  0.12252680165E+02  0.48919136016E+03  0.51146177441E+03  0.12509000000E+03 0.  0.
<mgrwt>
<rscale>  2 0.45029832E+03</rscale>
<asrwt>0</asrwt>
<pdfrwt beam="1">  1       21 0.26144056E+00 0.45029832E+03</pdfrwt>
<pdfrwt beam="2">  1       21 0.41932414E-02 0.45029832E+03</pdfrwt>
<totfact> 0.17778568E+04</totfact>
</mgrwt>
</event>
