<event>
 6    0  0.9325672E-004  0.5556985E+03  0.7546771E-02  0.1000183E+00
         21   -1    0    0  502  501  0.00000000000E+00  0.00000000000E+00  0.74629211667E+03  0.74629211667E+03  0.00000000000E+00 0. -1.
         21   -1    0    0  501  502 -0.00000000000E+00 -0.00000000000E+00 -0.10344501965E+03  0.10344501965E+03  0.00000000000E+00 0. -1.
      99926    2    1    2    0    0 -0.53377711891E+02  0.80797238567E+02  0.40335560801E+03  0.56271613484E+03  0.38023193975E+03 0.  0.
         25    1    3    3    0    0 -0.55380476198E+02 -0.67090157403E+02  0.31478365418E+03  0.34972037888E+03  0.12509000000E+03 0.  0.
         25    1    3    3    0    0  0.20027643072E+01  0.14788739597E+03  0.88571953829E+02  0.21299575596E+03  0.12509000000E+03 0.  0.
         25    1    1    2    0    0  0.53377711891E+02 -0.80797238567E+02  0.23949148901E+03  0.28702100149E+03  0.12509000000E+03 0.  0.
<mgrwt>
<rscale>  2 0.55569849E+03</rscale>
<asrwt>0</asrwt>
<pdfrwt beam="1">  1       21 0.10974884E+00 0.55569849E+03</pdfrwt>
<pdfrwt beam="2">  1       21 0.15212503E-01 0.55569849E+03</pdfrwt>
<totfact> 0.22094847E+04</totfact>
</mgrwt>
</event>
<event>
 6    0  0.9325672E-004  0.7252953E+03  0.7546771E-02  0.9674926E-01
         21   -1    0    0  502  501  0.00000000000E+00  0.00000000000E+00  0.42331018233E+02  0.42331018233E+02  0.00000000000E+00 0. -1.
         21   -1    0    0  501  502 -0.00000000000E+00 -0.00000000000E+00 -0.31067838380E+04  0.31067838380E+04  0.00000000000E+00 0. -1.
      99926    2    1    2    0    0  0.26437185385E+02  0.14574532699E+03 -0.26372629536E+04  0.26799887379E+04  0.45303766219E+03 0.  0.
         25    1    3    3    0    0  0.19353327923E+03  0.13479324618E+03 -0.15482756886E+04  0.15711236315E+04  0.12509000000E+03 0.  0.
         25    1    1    2    0    0 -0.26437185385E+02 -0.14574532699E+03 -0.42718986613E+03  0.46912611837E+03  0.12509000000E+03 0.  0.
         25    1    3    3    0    0 -0.16709609384E+03  0.10952080805E+02 -0.10889872650E+04  0.11088651064E+04  0.12509000000E+03 0.  0.
<mgrwt>
<rscale>  2 0.72529531E+03</rscale>
<asrwt>0</asrwt>
<pdfrwt beam="1">  1       21 0.62251501E-02 0.72529531E+03</pdfrwt>
<pdfrwt beam="2">  1       21 0.45687995E+00 0.72529531E+03</pdfrwt>
<totfact> 0.46815500E+02</totfact>
</mgrwt>
</event>
<event>
 6    0  0.9325672E-004  0.9714873E+03  0.7546771E-02  0.9340382E-01
         21   -1    0    0  502  501  0.00000000000E+00  0.00000000000E+00  0.18011698309E+04  0.18011698309E+04  0.00000000000E+00 0. -1.
         21   -1    0    0  501  502 -0.00000000000E+00 -0.00000000000E+00 -0.13099647761E+03  0.13099647761E+03  0.00000000000E+00 0. -1.
      99926    2    1    2    0    0  0.10364825665E+03  0.31967829906E+03  0.71745718851E+03  0.91420129206E+03  0.45616006956E+03 0.  0.
         25    1    3    3    0    0  0.18570178413E+03  0.48682632648E+02  0.45057291669E+03  0.50548848919E+03  0.12509000000E+03 0.  0.
         25    1    1    2    0    0 -0.10364825665E+03 -0.31967829906E+03  0.95271616478E+03  0.10179650165E+04  0.12509000000E+03 0.  0.
         25    1    3    3    0    0 -0.82053527481E+02  0.27099566641E+03  0.26688427183E+03  0.40871280287E+03  0.12509000000E+03 0.  0.
<mgrwt>
<rscale>  2 0.97148732E+03</rscale>
<asrwt>0</asrwt>
<pdfrwt beam="1">  1       21 0.26487790E+00 0.97148732E+03</pdfrwt>
<pdfrwt beam="2">  1       21 0.19264189E-01 0.97148732E+03</pdfrwt>
<totfact> 0.93123201E+02</totfact>
</mgrwt>
</event>
<event>
 6    0  0.9325672E-004  0.7236090E+03  0.7546771E-02  0.9677688E-01
         21   -1    0    0  502  501  0.00000000000E+00  0.00000000000E+00  0.13900275001E+03  0.13900275001E+03  0.00000000000E+00 0. -1.
         21   -1    0    0  501  502 -0.00000000000E+00 -0.00000000000E+00 -0.94172590226E+03  0.94172590226E+03  0.00000000000E+00 0. -1.
      99926    2    1    2    0    0  0.13841220200E+03  0.11725738689E+03 -0.67929648573E+03  0.82816404163E+03  0.43761253624E+03 0.  0.
         25    1    3    3    0    0 -0.10557942620E+03  0.93008075127E+01 -0.14925116246E+03  0.22171363930E+03  0.12509000000E+03 0.  0.
         25    1    3    3    0    0  0.24399162820E+03  0.10795657938E+03 -0.53004532327E+03  0.60645040232E+03  0.12509000000E+03 0.  0.
         25    1    1    2    0    0 -0.13841220200E+03 -0.11725738689E+03 -0.12342666652E+03  0.25256461064E+03  0.12509000000E+03 0.  0.
<mgrwt>
<rscale>  2 0.72360898E+03</rscale>
<asrwt>0</asrwt>
<pdfrwt beam="1">  1       21 0.20441581E-01 0.72360898E+03</pdfrwt>
<pdfrwt beam="2">  1       21 0.13848910E+00 0.72360898E+03</pdfrwt>
<totfact> 0.66835097E+03</totfact>
</mgrwt>
</event>
<event>
 6    0  0.9325672E-004  0.7008177E+03  0.7546771E-02  0.9715835E-01
         21   -1    0    0  502  501  0.00000000000E+00  0.00000000000E+00  0.18411053715E+03  0.18411053715E+03  0.00000000000E+00 0. -1.
         21   -1    0    0  501  502 -0.00000000000E+00 -0.00000000000E+00 -0.66691658359E+03  0.66691658359E+03  0.00000000000E+00 0. -1.
      99926    2    1    2    0    0  0.20263910399E+02  0.15904338034E+03 -0.28701924625E+03  0.56874109182E+03  0.46409154152E+03 0.  0.
         25    1    3    3    0    0  0.23438655034E+02 -0.10800633209E+03 -0.20154580610E+03  0.26169248819E+03  0.12509000000E+03 0.  0.
         25    1    1    2    0    0 -0.20263910399E+02 -0.15904338034E+03 -0.19578680019E+03  0.28228602893E+03  0.12509000000E+03 0.  0.
         25    1    3    3    0    0 -0.31747446354E+01  0.26704971244E+03 -0.85473440150E+02  0.30704860362E+03  0.12509000000E+03 0.  0.
<mgrwt>
<rscale>  2 0.70081772E+03</rscale>
<asrwt>0</asrwt>
<pdfrwt beam="1">  1       21 0.27075080E-01 0.70081772E+03</pdfrwt>
<pdfrwt beam="2">  1       21 0.98075966E-01 0.70081772E+03</pdfrwt>
<totfact> 0.93708778E+03</totfact>
</mgrwt>
</event>
<event>
 6    0  0.9325672E-004  0.6839841E+03  0.7546771E-02  0.9745020E-01
         21   -1    0    0  502  501  0.00000000000E+00  0.00000000000E+00  0.65962894177E+03  0.65962894177E+03  0.00000000000E+00 0.  1.
         21   -1    0    0  501  502 -0.00000000000E+00 -0.00000000000E+00 -0.17730963376E+03  0.17730963376E+03  0.00000000000E+00 0.  1.
      99926    2    1    2    0    0  0.45683770176E+02 -0.24795501868E+02  0.53083772078E+03  0.69305192483E+03  0.44252735615E+03 0.  0.
         25    1    1    2    0    0 -0.45683770176E+02  0.24795501868E+02 -0.48518412774E+02  0.14388665070E+03  0.12509000000E+03 0.  0.
         25    1    3    3    0    0  0.11666225464E+03 -0.10652560289E+03  0.87181545177E+02  0.21955845611E+03  0.12509000000E+03 0.  0.
         25    1    3    3    0    0 -0.70978484467E+02  0.81730101023E+02  0.44365617560E+03  0.47349346872E+03  0.12509000000E+03 0.  0.
<mgrwt>
<rscale>  2 0.68398411E+03</rscale>
<asrwt>0</asrwt>
<pdfrwt beam="1">  1       21 0.97004255E-01 0.68398411E+03</pdfrwt>
<pdfrwt beam="2">  1       21 0.26074946E-01 0.68398411E+03</pdfrwt>
<totfact> 0.10401682E+04</totfact>
</mgrwt>
</event>
<event>
 6    0  0.9325672E-004  0.6992643E+03  0.7546771E-02  0.9718491E-01
         21   -1    0    0  502  501  0.00000000000E+00  0.00000000000E+00  0.32694758125E+03  0.32694758125E+03  0.00000000000E+00 0.  1.
         21   -1    0    0  501  502 -0.00000000000E+00 -0.00000000000E+00 -0.37389063092E+03  0.37389063092E+03  0.00000000000E+00 0.  1.
      99926    2    1    2    0    0  0.40413254604E+02  0.88019119941E+02  0.10617685314E+03  0.48067052752E+03  0.45868293544E+03 0.  0.
         25    1    3    3    0    0  0.69489389233E+02 -0.10591032705E+01 -0.13273154435E+03  0.19517957855E+03  0.12509000000E+03 0.  0.
         25    1    3    3    0    0 -0.29076134629E+02  0.89078223211E+02  0.23890839749E+03  0.28549094898E+03  0.12509000000E+03 0.  0.
         25    1    1    2    0    0 -0.40413254604E+02 -0.88019119941E+02 -0.15311990281E+03  0.22016768464E+03  0.12509000000E+03 0.  0.
<mgrwt>
<rscale>  2 0.69926429E+03</rscale>
<asrwt>0</asrwt>
<pdfrwt beam="1">  1       21 0.48080527E-01 0.69926429E+03</pdfrwt>
<pdfrwt beam="2">  1       21 0.54983916E-01 0.69926429E+03</pdfrwt>
<totfact> 0.10915442E+04</totfact>
</mgrwt>
</event>
<event>
 6    0  0.9325672E-004  0.6383799E+03  0.7546771E-02  0.9828831E-01
         21   -1    0    0  502  501  0.00000000000E+00  0.00000000000E+00  0.16088935367E+04  0.16088935367E+04  0.00000000000E+00 0. -1.
         21   -1    0    0  501  502 -0.00000000000E+00 -0.00000000000E+00 -0.63324406161E+02  0.63324406161E+02  0.00000000000E+00 0. -1.
      99926    2    1    2    0    0  0.60503020405E+02 -0.94499943501E+01  0.87723867283E+03  0.98952985400E+03  0.45373089489E+03 0.  0.
         25    1    1    2    0    0 -0.60503020405E+02  0.94499943501E+01  0.66833045769E+03  0.68268808884E+03  0.12509000000E+03 0.  0.
         25    1    3    3    0    0 -0.13441454875E+03 -0.56789811393E+02  0.57219352788E+03  0.60361021780E+03  0.12509000000E+03 0.  0.
         25    1    3    3    0    0  0.19491756915E+03  0.47339817043E+02  0.30504514496E+03  0.38591963620E+03  0.12509000000E+03 0.  0.
<mgrwt>
<rscale>  2 0.63837991E+03</rscale>
<asrwt>0</asrwt>
<pdfrwt beam="1">  1       21 0.23660196E+00 0.63837991E+03</pdfrwt>
<pdfrwt beam="2">  1       21 0.93124137E-02 0.63837991E+03</pdfrwt>
<totfact> 0.58854649E+03</totfact>
</mgrwt>
</event>
<event>
 6    0  0.9325672E-004  0.5633344E+03  0.7546771E-02  0.9984538E-01
         21   -1    0    0  502  501  0.00000000000E+00  0.00000000000E+00  0.13513467286E+03  0.13513467286E+03  0.00000000000E+00 0.  1.
         21   -1    0    0  501  502 -0.00000000000E+00 -0.00000000000E+00 -0.58709149169E+03  0.58709149169E+03  0.00000000000E+00 0.  1.
      99926    2    1    2    0    0 -0.51110214572E+02  0.53541468426E+02 -0.26070188421E+03  0.48200772023E+03  0.39860635601E+03 0.  0.
         25    1    1    2    0    0  0.51110214572E+02 -0.53541468426E+02 -0.19125493462E+03  0.24021844432E+03  0.12509000000E+03 0.  0.
         25    1    3    3    0    0  0.12869729899E+03  0.19843875304E+02 -0.87016044596E+02  0.20043970233E+03  0.12509000000E+03 0.  0.
         25    1    3    3    0    0 -0.17980751356E+03  0.33697593122E+02 -0.17368583962E+03  0.28156801789E+03  0.12509000000E+03 0.  0.
<mgrwt>
<rscale>  2 0.56333442E+03</rscale>
<asrwt>0</asrwt>
<pdfrwt beam="1">  1       21 0.19872746E-01 0.56333442E+03</pdfrwt>
<pdfrwt beam="2">  1       21 0.86336984E-01 0.56333442E+03</pdfrwt>
<totfact> 0.23855541E+04</totfact>
</mgrwt>
</event>
<event>
 6    0  0.9325672E-004  0.7992463E+03  0.7546771E-02  0.9561109E-01
         21   -1    0    0  502  501  0.00000000000E+00  0.00000000000E+00  0.36004987618E+03  0.36004987618E+03  0.00000000000E+00 0. -1.
         21   -1    0    0  501  502 -0.00000000000E+00 -0.00000000000E+00 -0.44354594918E+03  0.44354594918E+03  0.00000000000E+00 0. -1.
      99926    2    1    2    0    0  0.17871370852E+03 -0.19454324176E+02 -0.23150832112E+03  0.53926233517E+03  0.45264854252E+03 0.  0.
         25    1    1    2    0    0 -0.17871370852E+03  0.19454324176E+02  0.14801224812E+03  0.26433349019E+03  0.12509000000E+03 0.  0.
         25    1    3    3    0    0 -0.79699976403E+02 -0.27026325275E+01  0.29084736277E+02  0.15117149349E+03  0.12509000000E+03 0.  0.
         25    1    3    3    0    0  0.25841368492E+03 -0.16751691648E+02 -0.26059305739E+03  0.38809084167E+03  0.12509000000E+03 0.  0.
<mgrwt>
<rscale>  2 0.79924631E+03</rscale>
<asrwt>0</asrwt>
<pdfrwt beam="1">  1       21 0.52948511E-01 0.79924631E+03</pdfrwt>
<pdfrwt beam="2">  1       21 0.65227345E-01 0.79924631E+03</pdfrwt>
<totfact> 0.59684001E+03</totfact>
</mgrwt>
</event>
<event>
 6    0  0.9325672E-004  0.5924330E+03  0.7546771E-02  0.9921231E-01
         21   -1    0    0  502  501  0.00000000000E+00  0.00000000000E+00  0.23110558216E+03  0.23110558216E+03  0.00000000000E+00 0.  1.
         21   -1    0    0  501  502 -0.00000000000E+00 -0.00000000000E+00 -0.37967149683E+03  0.37967149683E+03  0.00000000000E+00 0.  1.
      99926    2    1    2    0    0 -0.27243881309E+02 -0.69640038199E+01 -0.84363155795E+02  0.46738869465E+03  0.45885109068E+03 0.  0.
         25    1    1    2    0    0  0.27243881309E+02  0.69640038199E+01 -0.64202758870E+02  0.14338838434E+03  0.12509000000E+03 0.  0.
         25    1    3    3    0    0 -0.62005143855E+02 -0.96610433465E+02  0.12094918124E+03  0.20845725284E+03  0.12509000000E+03 0.  0.
         25    1    3    3    0    0  0.34761262545E+02  0.89646429645E+02 -0.20531233703E+03  0.25893144181E+03  0.12509000000E+03 0.  0.
<mgrwt>
<rscale>  2 0.59243296E+03</rscale>
<asrwt>0</asrwt>
<pdfrwt beam="1">  1       21 0.33986115E-01 0.59243296E+03</pdfrwt>
<pdfrwt beam="2">  1       21 0.55834043E-01 0.59243296E+03</pdfrwt>
<totfact> 0.22153921E+04</totfact>
</mgrwt>
</event>
<event>
 6    0  0.9325672E-004  0.5870961E+03  0.7546771E-02  0.9932545E-01
         21   -1    0    0  502  501  0.00000000000E+00  0.00000000000E+00  0.18369731979E+03  0.18369731979E+03  0.00000000000E+00 0.  1.
         21   -1    0    0  501  502 -0.00000000000E+00 -0.00000000000E+00 -0.46908939633E+03  0.46908939633E+03  0.00000000000E+00 0.  1.
      99926    2    1    2    0    0 -0.95486288181E+02 -0.47251398995E+02 -0.12273407894E+03  0.42158235149E+03  0.38899575707E+03 0.  0.
         25    1    1    2    0    0  0.95486288181E+02  0.47251398995E+02 -0.16265799761E+03  0.23120436463E+03  0.12509000000E+03 0.  0.
         25    1    3    3    0    0  0.55527391623E+01 -0.78355121096E+02  0.74319646649E+02  0.16535197577E+03  0.12509000000E+03 0.  0.
         25    1    3    3    0    0 -0.10103902734E+03  0.31103722101E+02 -0.19705372559E+03  0.25623037572E+03  0.12509000000E+03 0.  0.
<mgrwt>
<rscale>  2 0.58709612E+03</rscale>
<asrwt>0</asrwt>
<pdfrwt beam="1">  1       21 0.27014312E-01 0.58709612E+03</pdfrwt>
<pdfrwt beam="2">  1       21 0.68983735E-01 0.58709612E+03</pdfrwt>
<totfact> 0.21961136E+04</totfact>
</mgrwt>
</event>
<event>
 6    0  0.9325672E-004  0.6606935E+03  0.7546771E-02  0.9786918E-01
         21   -1    0    0  502  501  0.00000000000E+00  0.00000000000E+00  0.21333974275E+03  0.21333974275E+03  0.00000000000E+00 0.  1.
         21   -1    0    0  501  502 -0.00000000000E+00 -0.00000000000E+00 -0.51152672615E+03  0.51152672615E+03  0.00000000000E+00 0.  1.
      99926    2    1    2    0    0  0.89369845519E+02 -0.31305466367E+02 -0.10682039332E+03  0.47740802510E+03  0.45556648745E+03 0.  0.
         25    1    3    3    0    0 -0.18973761361E+02 -0.19179225873E+03 -0.18374887208E+02  0.23049819676E+03  0.12509000000E+03 0.  0.
         25    1    1    2    0    0 -0.89369845519E+02  0.31305466367E+02 -0.19136659007E+03  0.24745844380E+03  0.12509000000E+03 0.  0.
         25    1    3    3    0    0  0.10834360688E+03  0.16048679237E+03 -0.88445506115E+02  0.24690982833E+03  0.12509000000E+03 0.  0.
<mgrwt>
<rscale>  2 0.66069351E+03</rscale>
<asrwt>0</asrwt>
<pdfrwt beam="1">  1       21 0.31373492E-01 0.66069351E+03</pdfrwt>
<pdfrwt beam="2">  1       21 0.75224517E-01 0.66069351E+03</pdfrwt>
<totfact> 0.13190385E+04</totfact>
</mgrwt>
</event>
<event>
 6    0  0.9325672E-004  0.6778656E+03  0.7546771E-02  0.9755852E-01
         21   -1    0    0  502  501  0.00000000000E+00  0.00000000000E+00  0.48726765106E+03  0.48726765106E+03  0.00000000000E+00 0.  1.
         21   -1    0    0  501  502 -0.00000000000E+00 -0.00000000000E+00 -0.23575427452E+03  0.23575427452E+03  0.00000000000E+00 0.  1.
      99926    2    1    2    0    0  0.73860754444E+02  0.66976049815E+02  0.56568450164E+02  0.47084691747E+03  0.45667891110E+03 0.  0.
         25    1    3    3    0    0 -0.14849675132E+03 -0.36507023161E+01  0.68318265128E+02  0.20586283354E+03  0.12509000000E+03 0.  0.
         25    1    3    3    0    0  0.22235750577E+03  0.70626752131E+02 -0.11749814964E+02  0.26498408394E+03  0.12509000000E+03 0.  0.
         25    1    1    2    0    0 -0.73860754444E+02 -0.66976049815E+02  0.19494492638E+03  0.25217500811E+03  0.12509000000E+03 0.  0.
<mgrwt>
<rscale>  2 0.67786557E+03</rscale>
<asrwt>0</asrwt>
<pdfrwt beam="1">  1       21 0.71657008E-01 0.67786557E+03</pdfrwt>
<pdfrwt beam="2">  1       21 0.34669746E-01 0.67786557E+03</pdfrwt>
<totfact> 0.12004781E+04</totfact>
</mgrwt>
</event>
<event>
 6    0  0.9325672E-004  0.8071310E+03  0.7546771E-02  0.9549752E-01
         21   -1    0    0  502  501  0.00000000000E+00  0.00000000000E+00  0.61596721554E+02  0.61596721554E+02  0.00000000000E+00 0. -1.
         21   -1    0    0  501  502 -0.00000000000E+00 -0.00000000000E+00 -0.26440546395E+04  0.26440546395E+04  0.00000000000E+00 0. -1.
      99926    2    1    2    0    0 -0.18955670890E+02  0.24150534623E+03 -0.13361046961E+04  0.14298269172E+04  0.44782262629E+03 0.  0.
         25    1    3    3    0    0 -0.22611501580E+02  0.30340104946E+03 -0.63706640914E+03  0.71698298067E+03  0.12509000000E+03 0.  0.
         25    1    1    2    0    0  0.18955670890E+02 -0.24150534623E+03 -0.12463532218E+04  0.12758244438E+04  0.12509000000E+03 0.  0.
         25    1    3    3    0    0  0.36558306893E+01 -0.61895703226E+02 -0.69903828694E+03  0.71284393655E+03  0.12509000000E+03 0.  0.
<mgrwt>
<rscale>  2 0.80713096E+03</rscale>
<asrwt>0</asrwt>
<pdfrwt beam="1">  1       21 0.90583429E-02 0.80713096E+03</pdfrwt>
<pdfrwt beam="2">  1       21 0.38883150E+00 0.80713096E+03</pdfrwt>
<totfact> 0.66237135E+02</totfact>
</mgrwt>
</event>
<event>
 6    0  0.9325672E-004  0.5839102E+03  0.7546771E-02  0.9939361E-01
         21   -1    0    0  502  501  0.00000000000E+00  0.00000000000E+00  0.21695603539E+04  0.21695603539E+04  0.00000000000E+00 0.  1.
         21   -1    0    0  501  502 -0.00000000000E+00 -0.00000000000E+00 -0.39288040364E+02  0.39288040364E+02  0.00000000000E+00 0.  1.
      99926    2    1    2    0    0 -0.39862734620E+02 -0.11574977543E+03  0.12518260616E+04  0.13131350619E+04  0.37718450947E+03 0.  0.
         25    1    3    3    0    0 -0.10730940291E+03 -0.31229885103E+02  0.27281855113E+03  0.32026252297E+03  0.12509000000E+03 0.  0.
         25    1    3    3    0    0  0.67446668291E+02 -0.84519890324E+02  0.97900751046E+03  0.99287253893E+03  0.12509000000E+03 0.  0.
         25    1    1    2    0    0  0.39862734620E+02  0.11574977543E+03  0.87844625196E+03  0.89571333238E+03  0.12509000000E+03 0.  0.
<mgrwt>
<rscale>  2 0.58391018E+03</rscale>
<asrwt>0</asrwt>
<pdfrwt beam="1">  1       21 0.31905291E+00 0.58391018E+03</pdfrwt>
<pdfrwt beam="2">  1       21 0.57776545E-02 0.58391018E+03</pdfrwt>
<totfact> 0.43452474E+03</totfact>
</mgrwt>
</event>
<event>
 6    0  0.9325672E-004  0.6003310E+03  0.7546771E-02  0.9904720E-01
         21   -1    0    0  502  501  0.00000000000E+00  0.00000000000E+00  0.30446935909E+03  0.30446935909E+03  0.00000000000E+00 0. -1.
         21   -1    0    0  501  502 -0.00000000000E+00 -0.00000000000E+00 -0.29592249109E+03  0.29592249109E+03  0.00000000000E+00 0. -1.
      99926    2    1    2    0    0  0.51480424616E+02  0.77109846853E+01 -0.37992941624E+02  0.45713280026E+03  0.45256738731E+03 0.  0.
         25    1    1    2    0    0 -0.51480424616E+02 -0.77109846853E+01  0.46539809622E+02  0.14325904992E+03  0.12509000000E+03 0.  0.
         25    1    3    3    0    0  0.39364141493E+01  0.26841435611E+00 -0.20671906017E+03  0.24165232327E+03  0.12509000000E+03 0.  0.
         25    1    3    3    0    0  0.47544010467E+02  0.74425703292E+01  0.16872611855E+03  0.21548047699E+03  0.12509000000E+03 0.  0.
<mgrwt>
<rscale>  2 0.60033101E+03</rscale>
<asrwt>0</asrwt>
<pdfrwt beam="1">  1       21 0.44774906E-01 0.60033101E+03</pdfrwt>
<pdfrwt beam="2">  1       21 0.43518013E-01 0.60033101E+03</pdfrwt>
<totfact> 0.21313707E+04</totfact>
</mgrwt>
</event>
<event>
 6    0  0.9325672E-004  0.5725416E+03  0.7546771E-02  0.9964070E-01
         21   -1    0    0  502  501  0.00000000000E+00  0.00000000000E+00  0.38980546864E+03  0.38980546864E+03  0.00000000000E+00 0. -1.
         21   -1    0    0  501  502 -0.00000000000E+00 -0.00000000000E+00 -0.21023553332E+03  0.21023553332E+03  0.00000000000E+00 0. -1.
      99926    2    1    2    0    0 -0.80474010197E+02  0.61284937080E+01  0.20221944546E+03  0.44946167681E+03  0.39320410736E+03 0.  0.
         25    1    1    2    0    0  0.80474010197E+02 -0.61284937080E+01 -0.22649510139E+02  0.15057932515E+03  0.12509000000E+03 0.  0.
         25    1    3    3    0    0 -0.12201099390E+03 -0.10120679338E+03  0.24292447034E+02  0.20338910674E+03  0.12509000000E+03 0.  0.
         25    1    3    3    0    0  0.41536983701E+02  0.10733528709E+03  0.17792699843E+03  0.24607257007E+03  0.12509000000E+03 0.  0.
<mgrwt>
<rscale>  2 0.57254156E+03</rscale>
<asrwt>0</asrwt>
<pdfrwt beam="1">  1       21 0.57324334E-01 0.57254156E+03</pdfrwt>
<pdfrwt beam="2">  1       21 0.30916990E-01 0.57254156E+03</pdfrwt>
<totfact> 0.25411654E+04</totfact>
</mgrwt>
</event>
<event>
 6    0  0.9325672E-004  0.6904781E+03  0.7546771E-02  0.9733656E-01
         21   -1    0    0  502  501  0.00000000000E+00  0.00000000000E+00  0.20787782537E+03  0.20787782537E+03  0.00000000000E+00 0.  1.
         21   -1    0    0  501  502 -0.00000000000E+00 -0.00000000000E+00 -0.57336569768E+03  0.57336569768E+03  0.00000000000E+00 0.  1.
      99926    2    1    2    0    0 -0.12719970945E+03  0.61956984665E+02 -0.36372500571E+03  0.59238100736E+03  0.44564665832E+03 0.  0.
         25    1    1    2    0    0  0.12719970945E+03 -0.61956984665E+02 -0.17628665994E+01  0.18886251569E+03  0.12509000000E+03 0.  0.
         25    1    3    3    0    0  0.11275989997E+03  0.78779622321E+02 -0.88060236879E+02  0.20572587916E+03  0.12509000000E+03 0.  0.
         25    1    3    3    0    0 -0.23995960943E+03 -0.16822637656E+02 -0.27566476883E+03  0.38665512821E+03  0.12509000000E+03 0.  0.
<mgrwt>
<rscale>  2 0.69047814E+03</rscale>
<asrwt>0</asrwt>
<pdfrwt beam="1">  1       21 0.30570269E-01 0.69047814E+03</pdfrwt>
<pdfrwt beam="2">  1       21 0.84318483E-01 0.69047814E+03</pdfrwt>
<totfact> 0.10591813E+04</totfact>
</mgrwt>
</event>
<event>
 6    0  0.9325672E-004  0.7137401E+03  0.7546771E-02  0.9694019E-01
         21   -1    0    0  502  501  0.00000000000E+00  0.00000000000E+00  0.29922232361E+03  0.29922232361E+03  0.00000000000E+00 0. -1.
         21   -1    0    0  501  502 -0.00000000000E+00 -0.00000000000E+00 -0.42562408929E+03  0.42562408929E+03  0.00000000000E+00 0. -1.
      99926    2    1    2    0    0  0.12598245379E+03 -0.55710652488E+02  0.36348821899E+02  0.47764099766E+03  0.45589958360E+03 0.  0.
         25    1    1    2    0    0 -0.12598245379E+03  0.55710652488E+02 -0.16275058758E+03  0.24720541523E+03  0.12509000000E+03 0.  0.
         25    1    3    3    0    0  0.19808076149E+03  0.10775584477E+03  0.28016051156E+02  0.25938334059E+03  0.12509000000E+03 0.  0.
         25    1    3    3    0    0 -0.72098307698E+02 -0.16346649726E+03  0.83327707425E+01  0.21825765707E+03  0.12509000000E+03 0.  0.
<mgrwt>
<rscale>  2 0.71374009E+03</rscale>
<asrwt>0</asrwt>
<pdfrwt beam="1">  1       21 0.44003283E-01 0.71374009E+03</pdfrwt>
<pdfrwt beam="2">  1       21 0.62591777E-01 0.71374009E+03</pdfrwt>
<totfact> 0.98732728E+03</totfact>
</mgrwt>
</event>
<event>
 6    0  0.9325672E-004  0.1225422E+04  0.7546771E-02  0.9090892E-01
         21   -1    0    0  502  501  0.00000000000E+00  0.00000000000E+00  0.69868427914E+03  0.69868427914E+03  0.00000000000E+00 0.  1.
         21   -1    0    0  501  502 -0.00000000000E+00 -0.00000000000E+00 -0.53731639137E+03  0.53731639137E+03  0.00000000000E+00 0.  1.
      99926    2    1    2    0    0  0.41733628307E+03 -0.21829801604E+03 -0.12171993044E+03  0.67243184783E+03  0.46424697257E+03 0.  0.
         25    1    3    3    0    0  0.16175355884E+03  0.78140360101E+02 -0.14216613492E+03  0.26101503346E+03  0.12509000000E+03 0.  0.
         25    1    1    2    0    0 -0.41733628307E+03  0.21829801604E+03  0.28308781821E+03  0.56356882268E+03  0.12509000000E+03 0.  0.
         25    1    3    3    0    0  0.25558272423E+03 -0.29643837614E+03  0.20446204479E+02  0.41141681437E+03  0.12509000000E+03 0.  0.
<mgrwt>
<rscale>  2 0.12254216E+04</rscale>
<asrwt>0</asrwt>
<pdfrwt beam="1">  1       21 0.10274769E+00 0.12254216E+04</pdfrwt>
<pdfrwt beam="2">  1       21 0.79017117E-01 0.12254216E+04</pdfrwt>
<totfact> 0.76991195E+02</totfact>
</mgrwt>
</event>
<event>
 6    0  0.9325672E-004  0.1312259E+04  0.7546771E-02  0.9019900E-01
         21   -1    0    0  502  501  0.00000000000E+00  0.00000000000E+00  0.42323937114E+03  0.42323937114E+03  0.00000000000E+00 0. -1.
         21   -1    0    0  501  502 -0.00000000000E+00 -0.00000000000E+00 -0.10171687911E+04  0.10171687911E+04  0.00000000000E+00 0. -1.
      99926    2    1    2    0    0  0.39374777957E+03  0.32559198506E+03 -0.60688988115E+03  0.91423049612E+03  0.45437277377E+03 0.  0.
         25    1    1    2    0    0 -0.39374777957E+03 -0.32559198506E+03  0.12960461198E+02  0.52617766610E+03  0.12509000000E+03 0.  0.
         25    1    3    3    0    0  0.32379537306E+03  0.10286966378E+03 -0.52362848529E+03  0.63660027493E+03  0.12509000000E+03 0.  0.
         25    1    3    3    0    0  0.69952406502E+02  0.22272232128E+03 -0.83261395863E+02  0.27763022118E+03  0.12509000000E+03 0.  0.
<mgrwt>
<rscale>  2 0.13122589E+04</rscale>
<asrwt>0</asrwt>
<pdfrwt beam="1">  1       21 0.62241085E-01 0.13122589E+04</pdfrwt>
<pdfrwt beam="2">  1       21 0.14958364E+00 0.13122589E+04</pdfrwt>
<totfact> 0.48846700E+02</totfact>
</mgrwt>
</event>
<event>
 6    0  0.9325672E-004  0.6428192E+03  0.7546771E-02  0.9820348E-01
         21   -1    0    0  502  501  0.00000000000E+00  0.00000000000E+00  0.18617518360E+03  0.18617518360E+03  0.00000000000E+00 0.  1.
         21   -1    0    0  501  502 -0.00000000000E+00 -0.00000000000E+00 -0.55487592176E+03  0.55487592176E+03  0.00000000000E+00 0.  1.
      99926    2    1    2    0    0  0.10118393782E+03  0.48799291281E+02 -0.21909788014E+03  0.51599981492E+03  0.45346705262E+03 0.  0.
         25    1    3    3    0    0  0.16629987525E+02 -0.12273014167E+03  0.29328890364E+02  0.17845709868E+03  0.12509000000E+03 0.  0.
         25    1    3    3    0    0  0.84553950293E+02  0.17152943295E+03 -0.24842677051E+03  0.33754271624E+03  0.12509000000E+03 0.  0.
         25    1    1    2    0    0 -0.10118393782E+03 -0.48799291281E+02 -0.14960285802E+03  0.22505129044E+03  0.12509000000E+03 0.  0.
<mgrwt>
<rscale>  2 0.64281919E+03</rscale>
<asrwt>0</asrwt>
<pdfrwt beam="1">  1       21 0.27378703E-01 0.64281919E+03</pdfrwt>
<pdfrwt beam="2">  1       21 0.81599401E-01 0.64281919E+03</pdfrwt>
<totfact> 0.14383231E+04</totfact>
</mgrwt>
</event>
<event>
 6    0  0.9325672E-004  0.6784978E+03  0.7546771E-02  0.9754727E-01
         21   -1    0    0  502  501  0.00000000000E+00  0.00000000000E+00  0.69914103247E+03  0.69914103247E+03  0.00000000000E+00 0. -1.
         21   -1    0    0  501  502 -0.00000000000E+00 -0.00000000000E+00 -0.16461604403E+03  0.16461604403E+03  0.00000000000E+00 0. -1.
      99926    2    1    2    0    0  0.37542809370E+02 -0.85743781245E+02  0.22717091687E+03  0.51897382288E+03  0.45712771170E+03 0.  0.
         25    1    3    3    0    0  0.19926981906E+03 -0.10608780466E+03  0.96858612811E+02  0.27566679536E+03  0.12509000000E+03 0.  0.
         25    1    1    2    0    0 -0.37542809370E+02  0.85743781245E+02  0.30735407158E+03  0.34478325362E+03  0.12509000000E+03 0.  0.
         25    1    3    3    0    0 -0.16172700970E+03  0.20344023414E+02  0.13031230406E+03  0.24330702752E+03  0.12509000000E+03 0.  0.
<mgrwt>
<rscale>  2 0.67849784E+03</rscale>
<asrwt>0</asrwt>
<pdfrwt beam="1">  1       21 0.10281486E+00 0.67849784E+03</pdfrwt>
<pdfrwt beam="2">  1       21 0.24208242E-01 0.67849784E+03</pdfrwt>
<totfact> 0.10443479E+04</totfact>
</mgrwt>
</event>
<event>
 6    0  0.9325672E-004  0.7202699E+03  0.7546771E-02  0.9683182E-01
         21   -1    0    0  502  501  0.00000000000E+00  0.00000000000E+00  0.83770383270E+03  0.83770383270E+03  0.00000000000E+00 0.  1.
         21   -1    0    0  501  502 -0.00000000000E+00 -0.00000000000E+00 -0.15482461152E+03  0.15482461152E+03  0.00000000000E+00 0.  1.
      99926    2    1    2    0    0 -0.83481101938E+02  0.10443359554E+02  0.59554721459E+03  0.81830862441E+03  0.55486427334E+03 0.  0.
         25    1    3    3    0    0  0.80276010588E+02  0.37886593603E+02  0.59077966539E+03  0.61036690030E+03  0.12509000000E+03 0.  0.
         25    1    1    2    0    0  0.83481101938E+02 -0.10443359554E+02  0.87332006592E+02  0.17421981981E+03  0.12509000000E+03 0.  0.
         25    1    3    3    0    0 -0.16375711253E+03 -0.27443234050E+02  0.47675492077E+01  0.20794172410E+03  0.12509000000E+03 0.  0.
<mgrwt>
<rscale>  2 0.72026987E+03</rscale>
<asrwt>0</asrwt>
<pdfrwt beam="1">  1       21 0.12319174E+00 0.72026987E+03</pdfrwt>
<pdfrwt beam="2">  1       21 0.22768326E-01 0.72026987E+03</pdfrwt>
<totfact> 0.73911354E+03</totfact>
</mgrwt>
</event>
<event>
 6    0  0.9325672E-004  0.6244825E+03  0.7546771E-02  0.9855875E-01
         21   -1    0    0  502  501  0.00000000000E+00  0.00000000000E+00  0.82259477299E+02  0.82259477299E+02  0.00000000000E+00 0.  1.
         21   -1    0    0  501  502 -0.00000000000E+00 -0.00000000000E+00 -0.11852079130E+04  0.11852079130E+04  0.00000000000E+00 0.  1.
      99926    2    1    2    0    0 -0.70698032048E+02 -0.49226996306E+02 -0.92100821874E+03  0.10304626234E+04  0.45406560128E+03 0.  0.
         25    1    3    3    0    0 -0.64390186127E+02 -0.10613057691E+03 -0.10972418581E+03  0.20759744814E+03  0.12509000000E+03 0.  0.
         25    1    3    3    0    0 -0.63078459218E+01  0.56903580602E+02 -0.81128403293E+03  0.82286517523E+03  0.12509000000E+03 0.  0.
         25    1    1    2    0    0  0.70698032048E+02  0.49226996306E+02 -0.18194021696E+03  0.23700476693E+03  0.12509000000E+03 0.  0.
<mgrwt>
<rscale>  2 0.62448245E+03</rscale>
<asrwt>0</asrwt>
<pdfrwt beam="1">  1       21 0.12096981E-01 0.62448245E+03</pdfrwt>
<pdfrwt beam="2">  1       21 0.17429529E+00 0.62448245E+03</pdfrwt>
<totfact> 0.96225956E+03</totfact>
</mgrwt>
</event>
<event>
 6    0  0.9325672E-004  0.6416016E+03  0.7546771E-02  0.9822667E-01
         21   -1    0    0  502  501  0.00000000000E+00  0.00000000000E+00  0.18769456541E+04  0.18769456541E+04  0.00000000000E+00 0. -1.
         21   -1    0    0  501  502 -0.00000000000E+00 -0.00000000000E+00 -0.54830112444E+02  0.54830112444E+02  0.00000000000E+00 0. -1.
      99926    2    1    2    0    0  0.87936794640E+02  0.68589319044E+02  0.14592850528E+04  0.15321123503E+04  0.45323064117E+03 0.  0.
         25    1    3    3    0    0  0.60782499926E+02 -0.12140062301E+03  0.10211217780E+04  0.10376751983E+04  0.12509000000E+03 0.  0.
         25    1    3    3    0    0  0.27154294713E+02  0.18998994206E+03  0.43816327486E+03  0.49443715206E+03  0.12509000000E+03 0.  0.
         25    1    1    2    0    0 -0.87936794640E+02 -0.68589319044E+02  0.36283048888E+03  0.39966341626E+03  0.12509000000E+03 0.  0.
<mgrwt>
<rscale>  2 0.64160156E+03</rscale>
<asrwt>0</asrwt>
<pdfrwt beam="1">  1       21 0.27602138E+00 0.64160156E+03</pdfrwt>
<pdfrwt beam="2">  1       21 0.80632531E-02 0.64160156E+03</pdfrwt>
<totfact> 0.43312416E+03</totfact>
</mgrwt>
</event>
<event>
 6    0  0.9325672E-004  0.7084430E+03  0.7546771E-02  0.9702901E-01
         21   -1    0    0  502  501  0.00000000000E+00  0.00000000000E+00  0.27904838543E+03  0.27904838543E+03  0.00000000000E+00 0. -1.
         21   -1    0    0  501  502 -0.00000000000E+00 -0.00000000000E+00 -0.44964558432E+03  0.44964558432E+03  0.00000000000E+00 0. -1.
      99926    2    1    2    0    0  0.58507994300E+02  0.13039614287E+03 -0.37945008049E-01  0.47342096557E+03  0.45133254894E+03 0.  0.
         25    1    3    3    0    0  0.19186680704E+03 -0.28843802308E+02 -0.49849672932E+01  0.23090516360E+03  0.12509000000E+03 0.  0.
         25    1    1    2    0    0 -0.58507994300E+02 -0.13039614287E+03 -0.17055925389E+03  0.25527300418E+03  0.12509000000E+03 0.  0.
         25    1    3    3    0    0 -0.13335881274E+03  0.15923994518E+03  0.49470222852E+01  0.24251580198E+03  0.12509000000E+03 0.  0.
<mgrwt>
<rscale>  2 0.70844301E+03</rscale>
<asrwt>0</asrwt>
<pdfrwt beam="1">  1       21 0.41036527E-01 0.70844301E+03</pdfrwt>
<pdfrwt beam="2">  1       21 0.66124351E-01 0.70844301E+03</pdfrwt>
<totfact> 0.10116946E+04</totfact>
</mgrwt>
</event>
<event>
 6    0  0.9325672E-004  0.5750789E+03  0.7546771E-02  0.9958502E-01
         21   -1    0    0  502  501  0.00000000000E+00  0.00000000000E+00  0.16491117505E+03  0.16491117505E+03  0.00000000000E+00 0. -1.
         21   -1    0    0  501  502 -0.00000000000E+00 -0.00000000000E+00 -0.50135431185E+03  0.50135431185E+03  0.00000000000E+00 0. -1.
      99926    2    1    2    0    0  0.51177315539E+02  0.23229003172E+01 -0.27901237637E+03  0.51939713144E+03  0.43508730215E+03 0.  0.
         25    1    3    3    0    0  0.14403855329E+03  0.30231389704E+02  0.61557559176E+01  0.19325227861E+03  0.12509000000E+03 0.  0.
         25    1    1    2    0    0 -0.51177315539E+02 -0.23229003172E+01 -0.57430760423E+02  0.14686835546E+03  0.12509000000E+03 0.  0.
         25    1    3    3    0    0 -0.92861237747E+02 -0.27908489387E+02 -0.28516813229E+03  0.32614485283E+03  0.12509000000E+03 0.  0.
<mgrwt>
<rscale>  2 0.57507888E+03</rscale>
<asrwt>0</asrwt>
<pdfrwt beam="1">  1       21 0.24251644E-01 0.57507888E+03</pdfrwt>
<pdfrwt beam="2">  1       21 0.73728574E-01 0.57507888E+03</pdfrwt>
<totfact> 0.23382449E+04</totfact>
</mgrwt>
</event>
<event>
 6    0  0.9325672E-004  0.6189604E+03  0.7546771E-02  0.9866832E-01
         21   -1    0    0  502  501  0.00000000000E+00  0.00000000000E+00  0.81007333146E+03  0.81007333146E+03  0.00000000000E+00 0. -1.
         21   -1    0    0  501  502 -0.00000000000E+00 -0.00000000000E+00 -0.11823373180E+03  0.11823373180E+03  0.00000000000E+00 0. -1.
      99926    2    1    2    0    0 -0.50415456731E+02 -0.10011939687E+03  0.45646008942E+03  0.63914165411E+03  0.43310579409E+03 0.  0.
         25    1    3    3    0    0 -0.17434489887E+03 -0.15283386339E+03  0.27637465498E+03  0.38181774654E+03  0.12509000000E+03 0.  0.
         25    1    1    2    0    0  0.50415456731E+02  0.10011939687E+03  0.23537951024E+03  0.28916540915E+03  0.12509000000E+03 0.  0.
         25    1    3    3    0    0  0.12392944214E+03  0.52714466514E+02  0.18008543444E+03  0.25732390757E+03  0.12509000000E+03 0.  0.
<mgrwt>
<rscale>  2 0.61896040E+03</rscale>
<asrwt>0</asrwt>
<pdfrwt beam="1">  1       21 0.11912843E+00 0.61896040E+03</pdfrwt>
<pdfrwt beam="2">  1       21 0.17387314E-01 0.61896040E+03</pdfrwt>
<totfact> 0.13797194E+04</totfact>
</mgrwt>
</event>
<event>
 6    0  0.9325672E-004  0.6873614E+03  0.7546771E-02  0.9739093E-01
         21   -1    0    0  502  501  0.00000000000E+00  0.00000000000E+00  0.12494015548E+03  0.12494015548E+03  0.00000000000E+00 0.  1.
         21   -1    0    0  501  502 -0.00000000000E+00 -0.00000000000E+00 -0.94538407743E+03  0.94538407743E+03  0.00000000000E+00 0.  1.
      99926    2    1    2    0    0  0.15012527083E+03 -0.89548093668E+02 -0.64691892274E+03  0.79407273251E+03  0.42601755115E+03 0.  0.
         25    1    1    2    0    0 -0.15012527083E+03  0.89548093668E+02 -0.17352499921E+03  0.27625150039E+03  0.12509000000E+03 0.  0.
         25    1    3    3    0    0  0.32210902233E+01 -0.19095382908E+03 -0.42835204280E+03  0.48539336721E+03  0.12509000000E+03 0.  0.
         25    1    3    3    0    0  0.14690418060E+03  0.10140573541E+03 -0.21856687994E+03  0.30867936530E+03  0.12509000000E+03 0.  0.
<mgrwt>
<rscale>  2 0.68736143E+03</rscale>
<asrwt>0</asrwt>
<pdfrwt beam="1">  1       21 0.18373553E-01 0.68736143E+03</pdfrwt>
<pdfrwt beam="2">  1       21 0.13902706E+00 0.68736143E+03</pdfrwt>
<totfact> 0.81734669E+03</totfact>
</mgrwt>
</event>
<event>
 5    0  0.9325672E-004  0.8114662E+03  0.7546771E-02  0.9543567E-01
         21   -1    0    0  502  501  0.00000000000E+00  0.00000000000E+00  0.69262801809E+03  0.69262801809E+03  0.00000000000E+00 0.  1.
         21   -1    0    0  501  502 -0.00000000000E+00 -0.00000000000E+00 -0.23767355222E+03  0.23767355222E+03  0.00000000000E+00 0.  1.
         25    1    1    2    0    0  0.53833896915E+02  0.24698989347E+03  0.43927604892E+03  0.52202782607E+03  0.12509000000E+03 0.  0.
         25    1    1    2    0    0 -0.29713343146E+02 -0.71967709815E+02  0.97687330134E+02  0.17678392627E+03  0.12509000000E+03 0.  0.
         25    1    1    2    0    0 -0.24120553769E+02 -0.17502218366E+03 -0.82008913184E+02  0.23148981798E+03  0.12509000000E+03 0.  0.
<mgrwt>
<rscale>  2 0.81146623E+03</rscale>
<asrwt>0</asrwt>
<pdfrwt beam="1">  1       21 0.10185706E+00 0.81146623E+03</pdfrwt>
<pdfrwt beam="2">  1       21 0.34951993E-01 0.81146623E+03</pdfrwt>
<totfact> 0.50024133E+03</totfact>
</mgrwt>
</event>
<event>
 5    0  0.1943051E-003  0.5149689E+03  0.7546771E-02  0.1009944E+00
         21   -1    0    0  502  501  0.00000000000E+00  0.00000000000E+00  0.59918574093E+02  0.59918574093E+02  0.00000000000E+00 0.  1.
         21   -1    0    0  501  502 -0.00000000000E+00 -0.00000000000E+00 -0.11064721145E+04  0.11064721145E+04  0.00000000000E+00 0.  1.
         25    1    1    2    0    0  0.13647494013E+02  0.95437768292E+02 -0.25144166360E+03  0.29692598405E+03  0.12509000000E+03 0.  0.
         25    1    1    2    0    0  0.89080065204E+02  0.17312062243E+02 -0.35006783189E+03  0.38266167895E+03  0.12509000000E+03 0.  0.
         25    1    1    2    0    0 -0.10272755922E+03 -0.11274983053E+03 -0.44504404492E+03  0.48680302560E+03  0.12509000000E+03 0.  0.
<mgrwt>
<rscale>  2 0.51496886E+03</rscale>
<asrwt>0</asrwt>
<pdfrwt beam="1">  1       21 0.88115546E-02 0.51496886E+03</pdfrwt>
<pdfrwt beam="2">  1       21 0.16271650E+00 0.51496886E+03</pdfrwt>
<totfact> 0.21370401E+04</totfact>
</mgrwt>
</event>
<event>
 6    0  0.9325672E-004  0.7476192E+03  0.7546771E-02  0.9639093E-01
         21   -1    0    0  502  501  0.00000000000E+00  0.00000000000E+00  0.64257497209E+03  0.64257497209E+03  0.00000000000E+00 0. -1.
         21   -1    0    0  501  502 -0.00000000000E+00 -0.00000000000E+00 -0.21745886181E+03  0.21745886181E+03  0.00000000000E+00 0. -1.
      99926    2    1    2    0    0 -0.16935471512E+03  0.15691465535E+03  0.30387532071E+03  0.57081062295E+03  0.42447771217E+03 0.  0.
         25    1    3    3    0    0 -0.11779897087E+03 -0.71375876451E+02  0.28239234171E+02  0.18819159313E+03  0.12509000000E+03 0.  0.
         25    1    3    3    0    0 -0.51555744253E+02  0.22829053181E+03  0.27563608654E+03  0.38261902982E+03  0.12509000000E+03 0.  0.
         25    1    1    2    0    0  0.16935471512E+03 -0.15691465535E+03  0.12124078956E+03  0.28922321095E+03  0.12509000000E+03 0.  0.
<mgrwt>
<rscale>  2 0.74761921E+03</rscale>
<asrwt>0</asrwt>
<pdfrwt beam="1">  1       21 0.94496319E-01 0.74761921E+03</pdfrwt>
<pdfrwt beam="2">  1       21 0.31979245E-01 0.74761921E+03</pdfrwt>
<totfact> 0.72873032E+03</totfact>
</mgrwt>
</event>
<event>
 6    0  0.9325672E-004  0.6259579E+03  0.7546771E-02  0.9852969E-01
         21   -1    0    0  502  501  0.00000000000E+00  0.00000000000E+00  0.54089121175E+02  0.54089121175E+02  0.00000000000E+00 0.  1.
         21   -1    0    0  501  502 -0.00000000000E+00 -0.00000000000E+00 -0.18110077156E+04  0.18110077156E+04  0.00000000000E+00 0.  1.
      99926    2    1    2    0    0  0.38903589833E+02  0.95735450647E+02 -0.15071291607E+04  0.15672360721E+04  0.41726710023E+03 0.  0.
         25    1    3    3    0    0 -0.55756586082E+02  0.16378103292E+03 -0.11689417642E+04  0.11882783259E+04  0.12509000000E+03 0.  0.
         25    1    1    2    0    0 -0.38903589833E+02 -0.95735450647E+02 -0.24978943370E+03  0.29786076462E+03  0.12509000000E+03 0.  0.
         25    1    3    3    0    0  0.94660175915E+02 -0.68045582270E+02 -0.33818739654E+03  0.37895774626E+03  0.12509000000E+03 0.  0.
<mgrwt>
<rscale>  2 0.62595788E+03</rscale>
<asrwt>0</asrwt>
<pdfrwt beam="1">  1       21 0.79542836E-02 0.62595788E+03</pdfrwt>
<pdfrwt beam="2">  1       21 0.26632463E+00 0.62595788E+03</pdfrwt>
<totfact> 0.51145574E+03</totfact>
</mgrwt>
</event>
<event>
 6    0  0.9325672E-004  0.5795760E+03  0.7546771E-02  0.9948709E-01
         21   -1    0    0  502  501  0.00000000000E+00  0.00000000000E+00  0.66276379371E+02  0.66276379371E+02  0.00000000000E+00 0. -1.
         21   -1    0    0  501  502 -0.00000000000E+00 -0.00000000000E+00 -0.12670741500E+04  0.12670741500E+04  0.00000000000E+00 0. -1.
      99926    2    1    2    0    0 -0.77535658490E+02  0.53151605559E+02 -0.10479684857E+04  0.11146242851E+04  0.36784844478E+03 0.  0.
         25    1    3    3    0    0 -0.76022397700E+02 -0.89096122042E+02 -0.67363228570E+03  0.69508667686E+03  0.12509000000E+03 0.  0.
         25    1    3    3    0    0 -0.15132607894E+01  0.14224772760E+03 -0.37433620000E+03  0.41953760820E+03  0.12509000000E+03 0.  0.
         25    1    1    2    0    0  0.77535658490E+02 -0.53151605559E+02 -0.15282928489E+03  0.21872624427E+03  0.12509000000E+03 0.  0.
<mgrwt>
<rscale>  2 0.57957601E+03</rscale>
<asrwt>0</asrwt>
<pdfrwt beam="1">  1       21 0.97465271E-02 0.57957601E+03</pdfrwt>
<pdfrwt beam="2">  1       21 0.18633442E+00 0.57957601E+03</pdfrwt>
<totfact> 0.11832975E+04</totfact>
</mgrwt>
</event>
<event>
 6    0  0.9325672E-004  0.5894433E+03  0.7546771E-02  0.9927553E-01
         21   -1    0    0  502  501  0.00000000000E+00  0.00000000000E+00  0.91927319020E+02  0.91927319020E+02  0.00000000000E+00 0. -1.
         21   -1    0    0  501  502 -0.00000000000E+00 -0.00000000000E+00 -0.94488629395E+03  0.94488629395E+03  0.00000000000E+00 0. -1.
      99926    2    1    2    0    0  0.40623279584E+02 -0.79518191347E+02 -0.76289782640E+03  0.85867907905E+03  0.38385319288E+03 0.  0.
         25    1    1    2    0    0 -0.40623279584E+02  0.79518191347E+02 -0.90061148537E+02  0.17813453392E+03  0.12509000000E+03 0.  0.
         25    1    3    3    0    0  0.16421210727E+03 -0.35040947986E+02 -0.35271102188E+03  0.41017807994E+03  0.12509000000E+03 0.  0.
         25    1    3    3    0    0 -0.12358882768E+03 -0.44477243361E+02 -0.41018680452E+03  0.44850099911E+03  0.12509000000E+03 0.  0.
<mgrwt>
<rscale>  2 0.58944334E+03</rscale>
<asrwt>0</asrwt>
<pdfrwt beam="1">  1       21 0.13518724E-01 0.58944334E+03</pdfrwt>
<pdfrwt beam="2">  1       21 0.13895387E+00 0.58944334E+03</pdfrwt>
<totfact> 0.14863928E+04</totfact>
</mgrwt>
</event>
<event>
 5    0  0.9325672E-004  0.7204939E+03  0.7546771E-02  0.9682813E-01
         21   -1    0    0  502  501  0.00000000000E+00  0.00000000000E+00  0.14078608943E+03  0.14078608943E+03  0.00000000000E+00 0. -1.
         21   -1    0    0  501  502 -0.00000000000E+00 -0.00000000000E+00 -0.92180878819E+03  0.92180878819E+03  0.00000000000E+00 0.  1.
         25    1    1    2    0    0  0.20627721801E+02  0.64234852044E+02 -0.23398370513E+02  0.14403683892E+03  0.12509000000E+03 0.  0.
         25    1    1    2    0    0  0.33667453986E+02 -0.25147334823E+03 -0.47826696484E+03  0.55566099385E+03  0.12509000000E+03 0.  0.
         25    1    1    2    0    0 -0.54295175787E+02  0.18723849618E+03 -0.27935736341E+03  0.36289704484E+03  0.12509000000E+03 0.  0.
<mgrwt>
<rscale>  2 0.72049387E+03</rscale>
<asrwt>0</asrwt>
<pdfrwt beam="1">  1       21 0.20703837E-01 0.72049387E+03</pdfrwt>
<pdfrwt beam="2">  1       21 0.13556012E+00 0.72049387E+03</pdfrwt>
<totfact> 0.69097381E+03</totfact>
</mgrwt>
</event>
<event>
 6    0  0.9325672E-004  0.6015963E+03  0.7546771E-02  0.9902100E-01
         21   -1    0    0  502  501  0.00000000000E+00  0.00000000000E+00  0.72456995304E+03  0.72456995304E+03  0.00000000000E+00 0.  1.
         21   -1    0    0  501  502 -0.00000000000E+00 -0.00000000000E+00 -0.12487340798E+03  0.12487340798E+03  0.00000000000E+00 0.  1.
      99926    2    1    2    0    0 -0.52815563636E+02 -0.51804062619E+01  0.41100770603E+03  0.61691958494E+03  0.45699684845E+03 0.  0.
         25    1    1    2    0    0  0.52815563636E+02  0.51804062619E+01  0.18868883903E+03  0.23252377608E+03  0.12509000000E+03 0.  0.
         25    1    3    3    0    0  0.95994251506E+01  0.17319901433E+03  0.11106481838E+03  0.24098329716E+03  0.12509000000E+03 0.  0.
         25    1    3    3    0    0 -0.62414988786E+02 -0.17837942059E+03  0.29994288765E+03  0.37593628778E+03  0.12509000000E+03 0.  0.
<mgrwt>
<rscale>  2 0.60159627E+03</rscale>
<asrwt>0</asrwt>
<pdfrwt beam="1">  1       21 0.10655440E+00 0.60159627E+03</pdfrwt>
<pdfrwt beam="2">  1       21 0.18363737E-01 0.60159627E+03</pdfrwt>
<totfact> 0.16527546E+04</totfact>
</mgrwt>
</event>
<event>
 6    0  0.9325672E-004  0.7400344E+03  0.7546771E-02  0.9651116E-01
         21   -1    0    0  502  501  0.00000000000E+00  0.00000000000E+00  0.29500256606E+03  0.29500256606E+03  0.00000000000E+00 0. -1.
         21   -1    0    0  501  502 -0.00000000000E+00 -0.00000000000E+00 -0.46410691695E+03  0.46410691695E+03  0.00000000000E+00 0. -1.
      99926    2    1    2    0    0  0.22364662343E+03 -0.82772158717E+02 -0.14706336845E+03  0.48892000240E+03  0.40068203351E+03 0.  0.
         25    1    3    3    0    0  0.25801699183E+03  0.25017096821E+02 -0.43767058621E+02  0.29113860398E+03  0.12509000000E+03 0.  0.
         25    1    1    2    0    0 -0.22364662343E+03  0.82772158717E+02 -0.22040982443E+02  0.27018948062E+03  0.12509000000E+03 0.  0.
         25    1    3    3    0    0 -0.34370368409E+02 -0.10778925554E+03 -0.10329630983E+03  0.19778139841E+03  0.12509000000E+03 0.  0.
<mgrwt>
<rscale>  2 0.74003441E+03</rscale>
<asrwt>0</asrwt>
<pdfrwt beam="1">  1       21 0.43382731E-01 0.74003441E+03</pdfrwt>
<pdfrwt beam="2">  1       21 0.68251016E-01 0.74003441E+03</pdfrwt>
<totfact> 0.83350895E+03</totfact>
</mgrwt>
</event>
<event>
 5    0  0.9325672E-004  0.5430073E+03  0.7546771E-02  0.1003126E+00
         21   -1    0    0  502  501  0.00000000000E+00  0.00000000000E+00  0.47709323864E+02  0.47709323864E+02  0.00000000000E+00 0. -1.
         21   -1    0    0  501  502 -0.00000000000E+00 -0.00000000000E+00 -0.15450696700E+04  0.15450696700E+04  0.00000000000E+00 0. -1.
         25    1    1    2    0    0  0.32909134352E+02 -0.11557091195E+03 -0.27897628932E+03  0.32850407138E+03  0.12509000000E+03 0.  0.
         25    1    1    2    0    0  0.53955778062E+02  0.12282535490E+03 -0.72690029051E+03  0.74968582368E+03  0.12509000000E+03 0.  0.
         25    1    1    2    0    0 -0.86864912414E+02 -0.72544429520E+01 -0.49148376628E+03  0.51458909876E+03  0.12509000000E+03 0.  0.
<mgrwt>
<rscale>  2 0.54300729E+03</rscale>
<asrwt>0</asrwt>
<pdfrwt beam="1">  1       21 0.70160789E-02 0.54300729E+03</pdfrwt>
<pdfrwt beam="2">  1       21 0.22721607E+00 0.54300729E+03</pdfrwt>
<totfact> 0.11499849E+04</totfact>
</mgrwt>
</event>
<event>
 6    0  0.9325672E-004  0.6075316E+03  0.7546771E-02  0.9889902E-01
         21   -1    0    0  502  501  0.00000000000E+00  0.00000000000E+00  0.48693823130E+03  0.48693823130E+03  0.00000000000E+00 0.  1.
         21   -1    0    0  501  502 -0.00000000000E+00 -0.00000000000E+00 -0.18949765237E+03  0.18949765237E+03  0.00000000000E+00 0.  1.
      99926    2    1    2    0    0 -0.71559670218E+02  0.26947842718E+02  0.21398251132E+03  0.50773576577E+03  0.45404858778E+03 0.  0.
         25    1    3    3    0    0  0.46041071879E+02 -0.14857333324E+02  0.28680270165E+03  0.31661304210E+03  0.12509000000E+03 0.  0.
         25    1    1    2    0    0  0.71559670218E+02 -0.26947842718E+02  0.83458067617E+02  0.16870011790E+03  0.12509000000E+03 0.  0.
         25    1    3    3    0    0 -0.11760074210E+03  0.41805176042E+02 -0.72820190328E+02  0.19112272367E+03  0.12509000000E+03 0.  0.
<mgrwt>
<rscale>  2 0.60753157E+03</rscale>
<asrwt>0</asrwt>
<pdfrwt beam="1">  1       21 0.71608563E-01 0.60753157E+03</pdfrwt>
<pdfrwt beam="2">  1       21 0.27867302E-01 0.60753157E+03</pdfrwt>
<totfact> 0.18899162E+04</totfact>
</mgrwt>
</event>
<event>
 6    0  0.9325672E-004  0.5871463E+03  0.7546771E-02  0.9932438E-01
         21   -1    0    0  502  501  0.00000000000E+00  0.00000000000E+00  0.14431743122E+03  0.14431743122E+03  0.00000000000E+00 0.  1.
         21   -1    0    0  501  502 -0.00000000000E+00 -0.00000000000E+00 -0.59719180639E+03  0.59719180639E+03  0.00000000000E+00 0.  1.
      99926    2    1    2    0    0 -0.69440163245E+02  0.35895789702E+02 -0.37723563085E+03  0.57574080958E+03  0.42785548336E+03 0.  0.
         25    1    3    3    0    0 -0.13114082263E+03  0.10871399942E+03 -0.56924934847E+02  0.21887120719E+03  0.12509000000E+03 0.  0.
         25    1    3    3    0    0  0.61700659385E+02 -0.72818209716E+02 -0.32031069600E+03  0.35686960239E+03  0.12509000000E+03 0.  0.
         25    1    1    2    0    0  0.69440163245E+02 -0.35895789702E+02 -0.75638744325E+02  0.16576842803E+03  0.12509000000E+03 0.  0.
<mgrwt>
<rscale>  2 0.58714628E+03</rscale>
<asrwt>0</asrwt>
<pdfrwt beam="1">  1       21 0.21223152E-01 0.58714628E+03</pdfrwt>
<pdfrwt beam="2">  1       21 0.87822322E-01 0.58714628E+03</pdfrwt>
<totfact> 0.20100178E+04</totfact>
</mgrwt>
</event>
<event>
 6    0  0.9325672E-004  0.7539219E+03  0.7546771E-02  0.9629217E-01
         21   -1    0    0  502  501  0.00000000000E+00  0.00000000000E+00  0.18517570827E+03  0.18517570827E+03  0.00000000000E+00 0. -1.
         21   -1    0    0  501  502 -0.00000000000E+00 -0.00000000000E+00 -0.76737691783E+03  0.76737691783E+03  0.00000000000E+00 0. -1.
      99926    2    1    2    0    0 -0.31721937502E+02  0.16124389135E+03 -0.30084505931E+03  0.60353304900E+03  0.49672781049E+03 0.  0.
         25    1    3    3    0    0  0.17002593553E+03  0.47209338480E+01 -0.22647529977E+03  0.30962828597E+03  0.12509000000E+03 0.  0.
         25    1    3    3    0    0 -0.20174787303E+03  0.15652295750E+03 -0.74369759543E+02  0.29390476303E+03  0.12509000000E+03 0.  0.
         25    1    1    2    0    0  0.31721937502E+02 -0.16124389135E+03 -0.28135615024E+03  0.34901957709E+03  0.12509000000E+03 0.  0.
<mgrwt>
<rscale>  2 0.75392192E+03</rscale>
<asrwt>0</asrwt>
<pdfrwt beam="1">  1       21 0.27231722E-01 0.75392192E+03</pdfrwt>
<pdfrwt beam="2">  1       21 0.11284955E+00 0.75392192E+03</pdfrwt>
<totfact> 0.64670703E+03</totfact>
</mgrwt>
</event>
<event>
 6    0  0.9325672E-004  0.6378114E+03  0.7546771E-02  0.9829923E-01
         21   -1    0    0  502  501  0.00000000000E+00  0.00000000000E+00  0.87709683596E+03  0.87709683596E+03  0.00000000000E+00 0.  1.
         21   -1    0    0  501  502 -0.00000000000E+00 -0.00000000000E+00 -0.11595169031E+03  0.11595169031E+03  0.00000000000E+00 0.  1.
      99926    2    1    2    0    0  0.22850527870E+02 -0.92134609655E+02  0.45504877632E+03  0.64902319531E+03  0.45293574191E+03 0.  0.
         25    1    3    3    0    0 -0.14568770656E+03  0.18921640811E+02  0.32584882224E+03  0.37869235455E+03  0.12509000000E+03 0.  0.
         25    1    3    3    0    0  0.16853823443E+03 -0.11105625047E+03  0.12919995408E+03  0.27033084076E+03  0.12509000000E+03 0.  0.
         25    1    1    2    0    0 -0.22850527870E+02  0.92134609655E+02  0.30609636933E+03  0.34402533096E+03  0.12509000000E+03 0.  0.
<mgrwt>
<rscale>  2 0.63781145E+03</rscale>
<asrwt>0</asrwt>
<pdfrwt beam="1">  1       21 0.12898483E+00 0.63781145E+03</pdfrwt>
<pdfrwt beam="2">  1       21 0.17051720E-01 0.63781145E+03</pdfrwt>
<totfact> 0.11603541E+04</totfact>
</mgrwt>
</event>
<event>
 6    0  0.9325672E-004  0.7621317E+03  0.7546771E-02  0.9616508E-01
         21   -1    0    0  502  501  0.00000000000E+00  0.00000000000E+00  0.16106992438E+04  0.16106992438E+04  0.00000000000E+00 0.  1.
         21   -1    0    0  501  502 -0.00000000000E+00 -0.00000000000E+00 -0.90154133169E+02  0.90154133169E+02  0.00000000000E+00 0.  1.
      99926    2    1    2    0    0  0.83050196611E+02 -0.26261629336E+02  0.14678811397E+04  0.15395833851E+04  0.45613041014E+03 0.  0.
         25    1    3    3    0    0  0.19002129901E+03  0.48303053463E+02  0.45801948333E+03  0.51368339886E+03  0.12509000000E+03 0.  0.
         25    1    1    2    0    0 -0.83050196611E+02  0.26261629336E+02  0.52663970880E+02  0.16126999182E+03  0.12509000000E+03 0.  0.
         25    1    3    3    0    0 -0.10697110240E+03 -0.74564682799E+02  0.10098616564E+04  0.10258999863E+04  0.12509000000E+03 0.  0.
<mgrwt>
<rscale>  2 0.76213173E+03</rscale>
<asrwt>0</asrwt>
<pdfrwt beam="1">  1       21 0.23686752E+00 0.76213173E+03</pdfrwt>
<pdfrwt beam="2">  1       21 0.13257962E-01 0.76213173E+03</pdfrwt>
<totfact> 0.29756056E+03</totfact>
</mgrwt>
</event>
<event>
 6    0  0.9325672E-004  0.6142634E+03  0.7546771E-02  0.9876248E-01
         21   -1    0    0  502  501  0.00000000000E+00  0.00000000000E+00  0.17682049758E+04  0.17682049758E+04  0.00000000000E+00 0.  1.
         21   -1    0    0  501  502 -0.00000000000E+00 -0.00000000000E+00 -0.53347817171E+02  0.53347817171E+02  0.00000000000E+00 0.  1.
      99926    2    1    2    0    0  0.66382129426E+02 -0.10400580424E+03  0.96378151990E+03  0.10501994903E+04  0.39852271805E+03 0.  0.
         25    1    1    2    0    0 -0.66382129426E+02  0.10400580424E+03  0.75107563877E+03  0.77135330276E+03  0.12509000000E+03 0.  0.
         25    1    3    3    0    0  0.16795360634E+03 -0.13996006066E+03  0.59825329413E+03  0.64911612559E+03  0.12509000000E+03 0.  0.
         25    1    3    3    0    0 -0.10157147691E+03  0.35954256417E+02  0.36552822576E+03  0.40108336466E+03  0.12509000000E+03 0.  0.
<mgrwt>
<rscale>  2 0.61426338E+03</rscale>
<asrwt>0</asrwt>
<pdfrwt beam="1">  1       21 0.26003010E+00 0.61426338E+03</pdfrwt>
<pdfrwt beam="2">  1       21 0.78452684E-02 0.61426338E+03</pdfrwt>
<totfact> 0.57519018E+03</totfact>
</mgrwt>
</event>
<event>
 5    0  0.9325672E-004  0.5575086E+03  0.7546771E-02  0.9997708E-01
         21   -1    0    0  502  501  0.00000000000E+00  0.00000000000E+00  0.52276922419E+03  0.52276922419E+03  0.00000000000E+00 0. -1.
         21   -1    0    0  501  502 -0.00000000000E+00 -0.00000000000E+00 -0.14863914928E+03  0.14863914928E+03  0.00000000000E+00 0. -1.
         25    1    1    2    0    0  0.55716030830E+01 -0.18560871559E+02  0.21344266474E+03  0.24815484671E+03  0.12509000000E+03 0.  0.
         25    1    1    2    0    0  0.14287383928E+03  0.14595655297E+02  0.39914383684E+02  0.19459350768E+03  0.12509000000E+03 0.  0.
         25    1    1    2    0    0 -0.14844544237E+03  0.39652162626E+01  0.12077302648E+03  0.22866001908E+03  0.12509000000E+03 0.  0.
<mgrwt>
<rscale>  2 0.55750865E+03</rscale>
<asrwt>0</asrwt>
<pdfrwt beam="1">  1       21 0.76877827E-01 0.55750865E+03</pdfrwt>
<pdfrwt beam="2">  1       21 0.21858699E-01 0.55750865E+03</pdfrwt>
<totfact> 0.26073035E+04</totfact>
</mgrwt>
</event>
<event>
 6    0  0.9325672E-004  0.6654193E+03  0.7546771E-02  0.9778269E-01
         21   -1    0    0  502  501  0.00000000000E+00  0.00000000000E+00  0.15218984621E+03  0.15218984621E+03  0.00000000000E+00 0. -1.
         21   -1    0    0  501  502 -0.00000000000E+00 -0.00000000000E+00 -0.72735282846E+03  0.72735282846E+03  0.00000000000E+00 0. -1.
      99926    2    1    2    0    0 -0.49516034519E+02 -0.11244396476E+03 -0.51357006487E+03  0.69370220960E+03  0.44985893477E+03 0.  0.
         25    1    1    2    0    0  0.49516034519E+02  0.11244396476E+03 -0.61592917382E+02  0.18584046507E+03  0.12509000000E+03 0.  0.
         25    1    3    3    0    0 -0.16004679379E+03 -0.10030935576E+03 -0.46845655095E+03  0.52036140449E+03  0.12509000000E+03 0.  0.
         25    1    3    3    0    0  0.11053075927E+03 -0.12134608999E+02 -0.45113513927E+02  0.17334080512E+03  0.12509000000E+03 0.  0.
<mgrwt>
<rscale>  2 0.66541931E+03</rscale>
<asrwt>0</asrwt>
<pdfrwt beam="1">  1       21 0.22380859E-01 0.66541931E+03</pdfrwt>
<pdfrwt beam="2">  1       21 0.10696365E+00 0.66541931E+03</pdfrwt>
<totfact> 0.11056435E+04</totfact>
</mgrwt>
</event>
<event>
 6    0  0.9325672E-004  0.9964933E+03  0.7546771E-02  0.9312399E-01
         21   -1    0    0  502  501  0.00000000000E+00  0.00000000000E+00  0.60945200835E+03  0.60945200835E+03  0.00000000000E+00 0.  1.
         21   -1    0    0  501  502 -0.00000000000E+00 -0.00000000000E+00 -0.40733269820E+03  0.40733269820E+03  0.00000000000E+00 0.  1.
      99926    2    1    2    0    0  0.19754728604E+03 -0.32294891646E+03  0.55518720537E+02  0.59197866393E+03  0.45170286401E+03 0.  0.
         25    1    1    2    0    0 -0.19754728604E+03  0.32294891646E+03  0.14660058961E+03  0.42480604261E+03  0.12509000000E+03 0.  0.
         25    1    3    3    0    0  0.21111945117E+03 -0.21443891541E+03  0.19087465527E+03  0.37767196510E+03  0.12509000000E+03 0.  0.
         25    1    3    3    0    0 -0.13572165126E+02 -0.10851000105E+03 -0.13535593473E+03  0.21430669883E+03  0.12509000000E+03 0.  0.
<mgrwt>
<rscale>  2 0.99649331E+03</rscale>
<asrwt>0</asrwt>
<pdfrwt beam="1">  1       21 0.89625296E-01 0.99649331E+03</pdfrwt>
<pdfrwt beam="2">  1       21 0.59901867E-01 0.99649331E+03</pdfrwt>
<totfact> 0.21022802E+03</totfact>
</mgrwt>
</event>
<event>
 6    0  0.9325672E-004  0.7726895E+03  0.7546771E-02  0.9600412E-01
         21   -1    0    0  502  501  0.00000000000E+00  0.00000000000E+00  0.24132814062E+03  0.24132814062E+03  0.00000000000E+00 0.  1.
         21   -1    0    0  501  502 -0.00000000000E+00 -0.00000000000E+00 -0.61850332677E+03  0.61850332677E+03  0.00000000000E+00 0.  1.
      99926    2    1    2    0    0  0.26909669250E+02  0.10735747279E+03 -0.47617340592E+03  0.66567196368E+03  0.45180559255E+03 0.  0.
         25    1    1    2    0    0 -0.26909669250E+02 -0.10735747279E+03  0.98998219770E+02  0.19415950371E+03  0.12509000000E+03 0.  0.
         25    1    3    3    0    0  0.19911042549E+03  0.85093429059E+02 -0.27928048361E+03  0.37487457880E+03  0.12509000000E+03 0.  0.
         25    1    3    3    0    0 -0.17220075624E+03  0.22264043735E+02 -0.19689292231E+03  0.29079738487E+03  0.12509000000E+03 0.  0.
<mgrwt>
<rscale>  2 0.77268948E+03</rscale>
<asrwt>0</asrwt>
<pdfrwt beam="1">  1       21 0.35489433E-01 0.77268948E+03</pdfrwt>
<pdfrwt beam="2">  1       21 0.90956370E-01 0.77268948E+03</pdfrwt>
<totfact> 0.64353282E+03</totfact>
</mgrwt>
</event>
<event>
 6    0  0.9325672E-004  0.7404144E+03  0.7546771E-02  0.9650510E-01
         21   -1    0    0  502  501  0.00000000000E+00  0.00000000000E+00  0.65505616438E+03  0.65505616438E+03  0.00000000000E+00 0. -1.
         21   -1    0    0  501  502 -0.00000000000E+00 -0.00000000000E+00 -0.20922384795E+03  0.20922384795E+03  0.00000000000E+00 0. -1.
      99926    2    1    2    0    0  0.94595842951E+02 -0.32293500375E+02  0.94288746659E+02  0.47798785189E+03  0.45781085083E+03 0.  0.
         25    1    1    2    0    0 -0.94595842951E+02  0.32293500375E+02  0.35154356978E+03  0.38629216045E+03  0.12509000000E+03 0.  0.
         25    1    3    3    0    0 -0.11392358970E+03  0.47802494993E+02  0.13113697102E+03  0.21933553311E+03  0.12509000000E+03 0.  0.
         25    1    3    3    0    0  0.20851943265E+03 -0.80095995368E+02 -0.36848224359E+02  0.25865231877E+03  0.12509000000E+03 0.  0.
<mgrwt>
<rscale>  2 0.74041440E+03</rscale>
<asrwt>0</asrwt>
<pdfrwt beam="1">  1       21 0.96331788E-01 0.74041440E+03</pdfrwt>
<pdfrwt beam="2">  1       21 0.30768213E-01 0.74041440E+03</pdfrwt>
<totfact> 0.75277557E+03</totfact>
</mgrwt>
</event>
<event>
 6    0  0.9325672E-004  0.7466216E+03  0.7546771E-02  0.9640665E-01
         21   -1    0    0  502  501  0.00000000000E+00  0.00000000000E+00  0.12847705369E+03  0.12847705369E+03  0.00000000000E+00 0.  1.
         21   -1    0    0  501  502 -0.00000000000E+00 -0.00000000000E+00 -0.10847147880E+04  0.10847147880E+04  0.00000000000E+00 0.  1.
      99926    2    1    2    0    0 -0.96003123592E+02  0.15059829674E+03 -0.42556688549E+03  0.63947108677E+03  0.44262811713E+03 0.  0.
         25    1    3    3    0    0  0.80064542462E+02 -0.44195690238E+02 -0.46700222935E+02  0.16183945414E+03  0.12509000000E+03 0.  0.
         25    1    3    3    0    0 -0.17606766605E+03  0.19479398698E+03 -0.37886666255E+03  0.47763163263E+03  0.12509000000E+03 0.  0.
         25    1    1    2    0    0  0.96003123592E+02 -0.15059829674E+03 -0.53067084880E+03  0.57372075489E+03  0.12509000000E+03 0.  0.
<mgrwt>
<rscale>  2 0.74662162E+03</rscale>
<asrwt>0</asrwt>
<pdfrwt beam="1">  1       21 0.18893686E-01 0.74662162E+03</pdfrwt>
<pdfrwt beam="2">  1       21 0.15951687E+00 0.74662162E+03</pdfrwt>
<totfact> 0.52413630E+03</totfact>
</mgrwt>
</event>
<event>
 6    0  0.9325672E-004  0.6648679E+03  0.7546771E-02  0.9779274E-01
         21   -1    0    0  502  501  0.00000000000E+00  0.00000000000E+00  0.15808613306E+03  0.15808613306E+03  0.00000000000E+00 0.  1.
         21   -1    0    0  501  502 -0.00000000000E+00 -0.00000000000E+00 -0.69906413290E+03  0.69906413290E+03  0.00000000000E+00 0.  1.
      99926    2    1    2    0    0 -0.52744441609E+02  0.11829516880E+03 -0.47601373685E+03  0.66572511963E+03  0.44701804679E+03 0.  0.
         25    1    1    2    0    0  0.52744441609E+02 -0.11829516880E+03 -0.64964262990E+02  0.19142514633E+03  0.12509000000E+03 0.  0.
         25    1    3    3    0    0  0.61793712066E+01  0.23528453435E+03 -0.36949834576E+03  0.45560238405E+03  0.12509000000E+03 0.  0.
         25    1    3    3    0    0 -0.58923812816E+02 -0.11698936555E+03 -0.10651539109E+03  0.21012273558E+03  0.12509000000E+03 0.  0.
<mgrwt>
<rscale>  2 0.66486794E+03</rscale>
<asrwt>0</asrwt>
<pdfrwt beam="1">  1       21 0.23247961E-01 0.66486794E+03</pdfrwt>
<pdfrwt beam="2">  1       21 0.10280355E+00 0.66486794E+03</pdfrwt>
<totfact> 0.11334851E+04</totfact>
</mgrwt>
</event>
<event>
 6    0  0.9325672E-004  0.8588610E+03  0.7546771E-02  0.9478521E-01
         21   -1    0    0  502  501  0.00000000000E+00  0.00000000000E+00  0.10333025177E+04  0.10333025177E+04  0.00000000000E+00 0. -1.
         21   -1    0    0  501  502 -0.00000000000E+00 -0.00000000000E+00 -0.17846716254E+03  0.17846716254E+03  0.00000000000E+00 0. -1.
      99926    2    1    2    0    0 -0.25777396119E+03  0.27117207735E+02  0.81200761351E+03  0.92079806382E+03  0.34832449226E+03 0.  0.
         25    1    3    3    0    0 -0.63427631754E+02  0.81109612821E+02  0.51911835955E+03  0.54381358303E+03  0.12509000000E+03 0.  0.
         25    1    1    2    0    0  0.25777396119E+03 -0.27117207735E+02  0.42827741663E+02  0.29097161645E+03  0.12509000000E+03 0.  0.
         25    1    3    3    0    0 -0.19434632943E+03 -0.53992405086E+02  0.29288925396E+03  0.37698448079E+03  0.12509000000E+03 0.  0.
<mgrwt>
<rscale>  2 0.85886103E+03</rscale>
<asrwt>0</asrwt>
<pdfrwt beam="1">  1       21 0.15195625E+00 0.85886103E+03</pdfrwt>
<pdfrwt beam="2">  1       21 0.26245172E-01 0.85886103E+03</pdfrwt>
<totfact> 0.30997672E+03</totfact>
</mgrwt>
</event>
<event>
 6    0  0.9325672E-004  0.8279002E+03  0.7546771E-02  0.9520488E-01
         21   -1    0    0  502  501  0.00000000000E+00  0.00000000000E+00  0.10949245620E+04  0.10949245620E+04  0.00000000000E+00 0. -1.
         21   -1    0    0  501  502 -0.00000000000E+00 -0.00000000000E+00 -0.15649907582E+03  0.15649907582E+03  0.00000000000E+00 0. -1.
      99926    2    1    2    0    0 -0.22003722933E+03  0.11740609700E+03  0.78159497526E+03  0.93135506521E+03  0.44082987449E+03 0.  0.
         25    1    1    2    0    0  0.22003722933E+03 -0.11740609700E+03  0.15683051090E+03  0.32006857258E+03  0.12509000000E+03 0.  0.
         25    1    3    3    0    0 -0.12281667154E+03 -0.44299684814E+02  0.63834273054E+03  0.66345711739E+03  0.12509000000E+03 0.  0.
         25    1    3    3    0    0 -0.97220557795E+02  0.16170578181E+03  0.14325224472E+03  0.26789794782E+03  0.12509000000E+03 0.  0.
<mgrwt>
<rscale>  2 0.82790019E+03</rscale>
<asrwt>0</asrwt>
<pdfrwt beam="1">  1       21 0.16101831E+00 0.82790019E+03</pdfrwt>
<pdfrwt beam="2">  1       21 0.23014571E-01 0.82790019E+03</pdfrwt>
<totfact> 0.34293219E+03</totfact>
</mgrwt>
</event>
<event>
 6    0  0.9325672E-004  0.6059643E+03  0.7546771E-02  0.9893109E-01
         21   -1    0    0  502  501  0.00000000000E+00  0.00000000000E+00  0.15978494815E+03  0.15978494815E+03  0.00000000000E+00 0. -1.
         21   -1    0    0  501  502 -0.00000000000E+00 -0.00000000000E+00 -0.57451090976E+03  0.57451090976E+03  0.00000000000E+00 0. -1.
      99926    2    1    2    0    0 -0.13956784841E+03 -0.71422634834E+02 -0.26202639460E+03  0.48221443666E+03  0.37321917740E+03 0.  0.
         25    1    3    3    0    0 -0.55440961078E+01 -0.14527581611E+03 -0.63377011167E+02  0.20198998340E+03  0.12509000000E+03 0.  0.
         25    1    1    2    0    0  0.13956784841E+03  0.71422634834E+02 -0.15269956701E+03  0.25208142126E+03  0.12509000000E+03 0.  0.
         25    1    3    3    0    0 -0.13402375231E+03  0.73853181276E+02 -0.19864938343E+03  0.28022445326E+03  0.12509000000E+03 0.  0.
<mgrwt>
<rscale>  2 0.60596434E+03</rscale>
<asrwt>0</asrwt>
<pdfrwt beam="1">  1       21 0.23497787E-01 0.60596434E+03</pdfrwt>
<pdfrwt beam="2">  1       21 0.84486897E-01 0.60596434E+03</pdfrwt>
<totfact> 0.18019927E+04</totfact>
</mgrwt>
</event>
