<event>
 7    0  0.4712189E-002  0.4304692E+03  0.7546771E-02  0.1033712E+00
         21   -1    0    0  502  501  0.00000000000E+00  0.00000000000E+00  0.10597139284E+03  0.10597139284E+03  0.00000000000E+00 0.  1.
         21   -1    0    0  501  502 -0.00000000000E+00 -0.00000000000E+00 -0.43715499559E+03  0.43715499559E+03  0.00000000000E+00 0.  1.
      99926    2    1    2    0    0  0.88817841970E-15 -0.35527136788E-14 -0.33118360274E+03  0.54312638843E+03  0.43046915694E+03 0.  0.
      99925    2    3    3    0    0  0.31740350873E+01 -0.26695717084E+02 -0.31928616578E+03  0.41462816698E+03  0.26315418557E+03 0.  0.
         25    1    4    4    0    0  0.23492980717E+02 -0.15389506225E+02 -0.21408021187E+03  0.24953276791E+03  0.12509000000E+03 0.  0.
         25    1    4    4    0    0 -0.20318945630E+02 -0.11306210859E+02 -0.10520595392E+03  0.16509539907E+03  0.12509000000E+03 0.  0.
         25    1    3    3    0    0 -0.31740350873E+01  0.26695717084E+02 -0.11897436960E+02  0.12849822145E+03  0.12509000000E+03 0.  0.
<mgrwt>
<rscale>  2 0.43046916E+03</rscale>
<asrwt>0</asrwt>
<pdfrwt beam="1">  1       21 0.15584028E-01 0.43046916E+03</pdfrwt>
<pdfrwt beam="2">  1       21 0.64287499E-01 0.43046916E+03</pdfrwt>
<totfact> 0.76043913E+04</totfact>
</mgrwt>
</event>
<event>
 7    0  0.4712189E-002  0.4480070E+03  0.7546771E-02  0.1028318E+00
         21   -1    0    0  502  501  0.00000000000E+00  0.00000000000E+00  0.60236498708E+03  0.60236498708E+03  0.00000000000E+00 0.  1.
         21   -1    0    0  501  502 -0.00000000000E+00 -0.00000000000E+00 -0.83300939656E+02  0.83300939656E+02  0.00000000000E+00 0.  1.
      99926    2    1    2    0    0  0.35527136788E-14 -0.14210854715E-13  0.51906404743E+03  0.68566592674E+03  0.44800700637E+03 0.  0.
      99925    2    3    3    0    0 -0.30853700510E+02  0.70454692925E+02  0.21600659759E+03  0.34890615985E+03  0.26298449306E+03 0.  0.
         25    1    4    4    0    0 -0.10758288457E+01  0.35384594460E+02  0.58453337471E+02  0.14253956536E+03  0.12509000000E+03 0.  0.
         25    1    4    4    0    0 -0.29777871664E+02  0.35070098465E+02  0.15755326012E+03  0.20636659449E+03  0.12509000000E+03 0.  0.
         25    1    3    3    0    0  0.30853700510E+02 -0.70454692925E+02  0.30305744984E+03  0.33675976689E+03  0.12509000000E+03 0.  0.
<mgrwt>
<rscale>  2 0.44800701E+03</rscale>
<asrwt>0</asrwt>
<pdfrwt beam="1">  1       21 0.88583084E-01 0.44800701E+03</pdfrwt>
<pdfrwt beam="2">  1       21 0.12250138E-01 0.44800701E+03</pdfrwt>
<totfact> 0.56748652E+04</totfact>
</mgrwt>
</event>
<event>
 7    0  0.4712189E-002  0.4576970E+03  0.7546771E-02  0.1025451E+00
         21   -1    0    0  502  501  0.00000000000E+00  0.00000000000E+00  0.12714537209E+03  0.12714537209E+03  0.00000000000E+00 0.  1.
         21   -1    0    0  501  502 -0.00000000000E+00 -0.00000000000E+00 -0.41190359666E+03  0.41190359666E+03  0.00000000000E+00 0.  1.
      99926    2    1    2    0    0  0.00000000000E+00  0.00000000000E+00 -0.28475822457E+03  0.53904896876E+03  0.45769700049E+03 0.  0.
      99925    2    3    3    0    0 -0.41455661577E+02 -0.10473586960E+03 -0.20909716848E+03  0.35449470095E+03  0.26316666369E+03 0.  0.
         25    1    4    4    0    0 -0.22927404839E+02 -0.71322417019E+02 -0.64259420610E+02  0.15934030971E+03  0.12509000000E+03 0.  0.
         25    1    4    4    0    0 -0.18528256738E+02 -0.33413452577E+02 -0.14483774787E+03  0.19515439123E+03  0.12509000000E+03 0.  0.
         25    1    3    3    0    0  0.41455661577E+02  0.10473586960E+03 -0.75661056098E+02  0.18455426781E+03  0.12509000000E+03 0.  0.
<mgrwt>
<rscale>  2 0.45769700E+03</rscale>
<asrwt>0</asrwt>
<pdfrwt beam="1">  1       21 0.18697849E-01 0.45769700E+03</pdfrwt>
<pdfrwt beam="2">  1       21 0.60574058E-01 0.45769700E+03</pdfrwt>
<totfact> 0.61277564E+04</totfact>
</mgrwt>
</event>
<event>
 7    0  0.4712189E-002  0.4577504E+03  0.7546771E-02  0.1025436E+00
         21   -1    0    0  502  501  0.00000000000E+00  0.00000000000E+00  0.28593783127E+03  0.28593783127E+03  0.00000000000E+00 0.  1.
         21   -1    0    0  501  502 -0.00000000000E+00 -0.00000000000E+00 -0.18320017220E+03  0.18320017220E+03  0.00000000000E+00 0.  1.
      99926    2    1    2    0    0 -0.35527136788E-14  0.71054273576E-14  0.10273765908E+03  0.46913800347E+03  0.45775041202E+03 0.  0.
      99925    2    3    3    0    0  0.45448524215E+01 -0.61353175286E+02  0.16495675056E+03  0.31648286518E+03  0.26299392882E+03 0.  0.
         25    1    4    4    0    0  0.37142364527E+02 -0.27704552202E+02  0.10641545650E+03  0.17064247694E+03  0.12509000000E+03 0.  0.
         25    1    3    3    0    0 -0.45448524215E+01  0.61353175286E+02 -0.62219091481E+02  0.15265513829E+03  0.12509000000E+03 0.  0.
         25    1    4    4    0    0 -0.32597512105E+02 -0.33648623085E+02  0.58541294059E+02  0.14584038824E+03  0.12509000000E+03 0.  0.
<mgrwt>
<rscale>  2 0.45775041E+03</rscale>
<asrwt>0</asrwt>
<pdfrwt beam="1">  1       21 0.42049681E-01 0.45775041E+03</pdfrwt>
<pdfrwt beam="2">  1       21 0.26941202E-01 0.45775041E+03</pdfrwt>
<totfact> 0.66047437E+04</totfact>
</mgrwt>
</event>
<event>
 7    0  0.4712189E-002  0.4547314E+03  0.7546771E-02  0.1026320E+00
         21   -1    0    0  502  501  0.00000000000E+00  0.00000000000E+00  0.22440726283E+03  0.22440726283E+03  0.00000000000E+00 0. -1.
         21   -1    0    0  501  502 -0.00000000000E+00 -0.00000000000E+00 -0.23036318704E+03  0.23036318704E+03  0.00000000000E+00 0. -1.
      99926    2    1    2    0    0 -0.14210854715E-13 -0.14210854715E-13 -0.59559242146E+01  0.45477044987E+03  0.45473144717E+03 0.  0.
      99925    2    3    3    0    0  0.64716949617E+02  0.92537317754E+02 -0.47248793563E+01  0.28624608274E+03  0.26298870062E+03 0.  0.
         25    1    4    4    0    0  0.60193636392E+02  0.27369420379E+02 -0.24980766075E+02  0.14367987266E+03  0.12509000000E+03 0.  0.
         25    1    3    3    0    0 -0.64716949617E+02 -0.92537317754E+02 -0.12310448582E+01  0.16852436713E+03  0.12509000000E+03 0.  0.
         25    1    4    4    0    0  0.45233132246E+01  0.65167897374E+02  0.20255886719E+02  0.14256621008E+03  0.12509000000E+03 0.  0.
<mgrwt>
<rscale>  2 0.45473145E+03</rscale>
<asrwt>0</asrwt>
<pdfrwt beam="1">  1       21 0.33001068E-01 0.45473145E+03</pdfrwt>
<pdfrwt beam="2">  1       21 0.33876939E-01 0.45473145E+03</pdfrwt>
<totfact> 0.68709723E+04</totfact>
</mgrwt>
</event>
<event>
 7    0  0.4712189E-002  0.4540225E+03  0.7546771E-02  0.1026529E+00
         21   -1    0    0  502  501  0.00000000000E+00  0.00000000000E+00  0.11120834426E+04  0.11120834426E+04  0.00000000000E+00 0.  1.
         21   -1    0    0  501  502 -0.00000000000E+00 -0.00000000000E+00 -0.46340138493E+02  0.46340138493E+02  0.00000000000E+00 0.  1.
      99926    2    1    2    0    0  0.00000000000E+00  0.00000000000E+00  0.10657433041E+04  0.11584235811E+04  0.45402246970E+03 0.  0.
      99925    2    3    3    0    0  0.63142544814E+02 -0.90144990556E+02  0.61526972025E+03  0.67812465528E+03  0.26302684112E+03 0.  0.
         25    1    4    4    0    0  0.40038794442E+02 -0.39407313795E+02  0.40128501245E+03  0.42406746015E+03  0.12509000000E+03 0.  0.
         25    1    4    4    0    0  0.23103750372E+02 -0.50737676761E+02  0.21398470780E+03  0.25405719513E+03  0.12509000000E+03 0.  0.
         25    1    3    3    0    0 -0.63142544814E+02  0.90144990556E+02  0.45047358388E+03  0.48029892584E+03  0.12509000000E+03 0.  0.
<mgrwt>
<rscale>  2 0.45402247E+03</rscale>
<asrwt>0</asrwt>
<pdfrwt beam="1">  1       21 0.16354167E+00 0.45402247E+03</pdfrwt>
<pdfrwt beam="2">  1       21 0.68147269E-02 0.45402247E+03</pdfrwt>
<totfact> 0.33758804E+04</totfact>
</mgrwt>
</event>
<event>
 7    0  0.4712189E-002  0.4521586E+03  0.7546771E-02  0.1027080E+00
         21   -1    0    0  502  501  0.00000000000E+00  0.00000000000E+00  0.37296426789E+03  0.37296426789E+03  0.00000000000E+00 0.  1.
         21   -1    0    0  501  502 -0.00000000000E+00 -0.00000000000E+00 -0.13704224309E+03  0.13704224309E+03  0.00000000000E+00 0.  1.
      99926    2    1    2    0    0  0.00000000000E+00  0.14210854715E-13  0.23592202480E+03  0.51000651097E+03  0.45215864411E+03 0.  0.
      99925    2    3    3    0    0 -0.32581232329E+02 -0.69852141737E+02  0.23810215052E+03  0.36306053636E+03  0.26301988627E+03 0.  0.
         25    1    4    4    0    0 -0.48766790395E+02 -0.11008520938E+02  0.11040702453E+03  0.17417406966E+03  0.12509000000E+03 0.  0.
         25    1    4    4    0    0  0.16185558066E+02 -0.58843620799E+02  0.12769512600E+03  0.18888646670E+03  0.12509000000E+03 0.  0.
         25    1    3    3    0    0  0.32581232329E+02  0.69852141737E+02 -0.21801257230E+01  0.14694597461E+03  0.12509000000E+03 0.  0.
<mgrwt>
<rscale>  2 0.45215864E+03</rscale>
<asrwt>0</asrwt>
<pdfrwt beam="1">  1       21 0.54847686E-01 0.45215864E+03</pdfrwt>
<pdfrwt beam="2">  1       21 0.20153271E-01 0.45215864E+03</pdfrwt>
<totfact> 0.66050064E+04</totfact>
</mgrwt>
</event>
<event>
 7    0  0.4712189E-002  0.4524010E+03  0.7546771E-02  0.1027008E+00
         21   -1    0    0  502  501  0.00000000000E+00  0.00000000000E+00  0.40563409566E+02  0.40563409566E+02  0.00000000000E+00 0. -1.
         21   -1    0    0  501  502 -0.00000000000E+00 -0.00000000000E+00 -0.12613996673E+04  0.12613996673E+04  0.00000000000E+00 0. -1.
      99926    2    1    2    0    0  0.00000000000E+00  0.71054273576E-14 -0.12208362578E+04  0.13019630769E+04  0.45240102269E+03 0.  0.
      99925    2    3    3    0    0 -0.60040297156E+02  0.43475496454E+02 -0.53313495642E+03  0.59905800219E+03  0.26294990428E+03 0.  0.
         25    1    3    3    0    0  0.60040297156E+02 -0.43475496454E+02 -0.68770130134E+03  0.70290507470E+03  0.12509000000E+03 0.  0.
         25    1    4    4    0    0 -0.52007473408E+02  0.48219194301E+02 -0.33495259789E+03  0.36451422321E+03  0.12509000000E+03 0.  0.
         25    1    4    4    0    0 -0.80328237475E+01 -0.47436978462E+01 -0.19818235853E+03  0.23454377898E+03  0.12509000000E+03 0.  0.
<mgrwt>
<rscale>  2 0.45240102E+03</rscale>
<asrwt>0</asrwt>
<pdfrwt beam="1">  1       21 0.59652079E-02 0.45240102E+03</pdfrwt>
<pdfrwt beam="2">  1       21 0.18549993E+00 0.45240102E+03</pdfrwt>
<totfact> 0.29652555E+04</totfact>
</mgrwt>
</event>
<event>
 7    0  0.4712189E-002  0.4550363E+03  0.7546771E-02  0.1026231E+00
         21   -1    0    0  502  501  0.00000000000E+00  0.00000000000E+00  0.10004446057E+03  0.10004446057E+03  0.00000000000E+00 0. -1.
         21   -1    0    0  501  502 -0.00000000000E+00 -0.00000000000E+00 -0.51741514277E+03  0.51741514277E+03  0.00000000000E+00 0. -1.
      99926    2    1    2    0    0  0.00000000000E+00  0.00000000000E+00 -0.41737068220E+03  0.61745960333E+03  0.45503634513E+03 0.  0.
      99925    2    3    3    0    0  0.31022371505E+02  0.10853989342E+03 -0.25142153878E+03  0.38096452453E+03  0.26301688690E+03 0.  0.
         25    1    3    3    0    0 -0.31022371505E+02 -0.10853989342E+03 -0.16594914342E+03  0.23649507880E+03  0.12509000000E+03 0.  0.
         25    1    4    4    0    0  0.44795334286E+01  0.27246607874E+02 -0.75156023399E+02  0.14852063767E+03  0.12509000000E+03 0.  0.
         25    1    4    4    0    0  0.26542838076E+02  0.81293285542E+02 -0.17626551538E+03  0.23244388686E+03  0.12509000000E+03 0.  0.
<mgrwt>
<rscale>  2 0.45503635E+03</rscale>
<asrwt>0</asrwt>
<pdfrwt beam="1">  1       21 0.14712420E-01 0.45503635E+03</pdfrwt>
<pdfrwt beam="2">  1       21 0.76090464E-01 0.45503635E+03</pdfrwt>
<totfact> 0.57599718E+04</totfact>
</mgrwt>
</event>
<event>
 7    0  0.4712189E-002  0.4541388E+03  0.7546771E-02  0.1026495E+00
         21   -1    0    0  502  501  0.00000000000E+00  0.00000000000E+00  0.12381210732E+04  0.12381210732E+04  0.00000000000E+00 0.  1.
         21   -1    0    0  501  502 -0.00000000000E+00 -0.00000000000E+00 -0.41644160830E+02  0.41644160830E+02  0.00000000000E+00 0.  1.
      99926    2    1    2    0    0 -0.35527136788E-14  0.00000000000E+00  0.11964769123E+04  0.12797652340E+04  0.45413880301E+03 0.  0.
      99925    2    3    3    0    0  0.30310242852E+02 -0.10181412125E+03  0.85672060229E+03  0.90245013435E+03  0.26298522484E+03 0.  0.
         25    1    4    4    0    0 -0.16601433679E+02 -0.64078583149E+02  0.36395600134E+03  0.39050371500E+03  0.12509000000E+03 0.  0.
         25    1    3    3    0    0 -0.30310242852E+02  0.10181412125E+03  0.33975631005E+03  0.37731509966E+03  0.12509000000E+03 0.  0.
         25    1    4    4    0    0  0.46911676532E+02 -0.37735538105E+02  0.49276460095E+03  0.51194641935E+03  0.12509000000E+03 0.  0.
<mgrwt>
<rscale>  2 0.45413880E+03</rscale>
<asrwt>0</asrwt>
<pdfrwt beam="1">  1       21 0.18207660E+00 0.45413880E+03</pdfrwt>
<pdfrwt beam="2">  1       21 0.61241421E-02 0.45413880E+03</pdfrwt>
<totfact> 0.29908052E+04</totfact>
</mgrwt>
</event>
<event>
 7    0  0.4712189E-002  0.4568091E+03  0.7546771E-02  0.1025711E+00
         21   -1    0    0  502  501  0.00000000000E+00  0.00000000000E+00  0.21732849171E+03  0.21732849171E+03  0.00000000000E+00 0.  1.
         21   -1    0    0  501  502 -0.00000000000E+00 -0.00000000000E+00 -0.24004511532E+03  0.24004511532E+03  0.00000000000E+00 0.  1.
      99926    2    1    2    0    0  0.00000000000E+00  0.00000000000E+00 -0.22716623611E+02  0.45737360703E+03  0.45680911924E+03 0.  0.
      99925    2    3    3    0    0 -0.10267605972E+03  0.12031467120E+02 -0.64380904245E+02  0.28983092643E+03  0.26300177878E+03 0.  0.
         25    1    4    4    0    0 -0.89117799772E+02 -0.12561271514E+02 -0.41615956838E+02  0.15962194004E+03  0.12509000000E+03 0.  0.
         25    1    4    4    0    0 -0.13558259951E+02  0.24592738634E+02 -0.22764947407E+02  0.13020898639E+03  0.12509000000E+03 0.  0.
         25    1    3    3    0    0  0.10267605972E+03 -0.12031467120E+02  0.41664280634E+02  0.16754268060E+03  0.12509000000E+03 0.  0.
<mgrwt>
<rscale>  2 0.45680912E+03</rscale>
<asrwt>0</asrwt>
<pdfrwt beam="1">  1       21 0.31960073E-01 0.45680912E+03</pdfrwt>
<pdfrwt beam="2">  1       21 0.35300752E-01 0.45680912E+03</pdfrwt>
<totfact> 0.67394198E+04</totfact>
</mgrwt>
</event>
<event>
 7    0  0.4712189E-002  0.4437444E+03  0.7546771E-02  0.1029604E+00
         21   -1    0    0  502  501  0.00000000000E+00  0.00000000000E+00  0.92316631179E+02  0.92316631179E+02  0.00000000000E+00 0. -1.
         21   -1    0    0  501  502 -0.00000000000E+00 -0.00000000000E+00 -0.53324393600E+03  0.53324393600E+03  0.00000000000E+00 0. -1.
      99926    2    1    2    0    0  0.00000000000E+00 -0.17763568394E-14 -0.44092730482E+03  0.62556056718E+03  0.44374444794E+03 0.  0.
      99925    2    3    3    0    0  0.51037866490E+02 -0.81382771607E+01 -0.40473008247E+03  0.48545759656E+03  0.26304285398E+03 0.  0.
         25    1    3    3    0    0 -0.51037866490E+02  0.81382771607E+01 -0.36197222354E+02  0.14010297062E+03  0.12509000000E+03 0.  0.
         25    1    4    4    0    0  0.41231300293E+02 -0.30426120499E+02 -0.15939005639E+03  0.20899394037E+03  0.12509000000E+03 0.  0.
         25    1    4    4    0    0  0.98065661971E+01  0.22287843338E+02 -0.24534002608E+03  0.27646365619E+03  0.12509000000E+03 0.  0.
<mgrwt>
<rscale>  2 0.44374445E+03</rscale>
<asrwt>0</asrwt>
<pdfrwt beam="1">  1       21 0.13575975E-01 0.44374445E+03</pdfrwt>
<pdfrwt beam="2">  1       21 0.78418227E-01 0.44374445E+03</pdfrwt>
<totfact> 0.62503378E+04</totfact>
</mgrwt>
</event>
<event>
 7    0  0.4712189E-002  0.4531946E+03  0.7546771E-02  0.1026774E+00
         21   -1    0    0  502  501  0.00000000000E+00  0.00000000000E+00  0.27071965949E+02  0.27071965949E+02  0.00000000000E+00 0. -1.
         21   -1    0    0  501  502 -0.00000000000E+00 -0.00000000000E+00 -0.18966605264E+04  0.18966605264E+04  0.00000000000E+00 0. -1.
      99926    2    1    2    0    0  0.00000000000E+00  0.00000000000E+00 -0.18695885604E+04  0.19237324923E+04  0.45319456831E+03 0.  0.
      99925    2    3    3    0    0 -0.72762142687E+02 -0.68909588577E+02 -0.97104531690E+03  0.10110056277E+04  0.26298386067E+03 0.  0.
         25    1    3    3    0    0  0.72762142687E+02  0.68909588577E+02 -0.89854324353E+03  0.91272686462E+03  0.12509000000E+03 0.  0.
         25    1    4    4    0    0 -0.21740602629E+01 -0.87286197230E+01 -0.41055854399E+03  0.42928631644E+03  0.12509000000E+03 0.  0.
         25    1    4    4    0    0 -0.70588082424E+02 -0.60180968854E+02 -0.56048677291E+03  0.58171931127E+03  0.12509000000E+03 0.  0.
<mgrwt>
<rscale>  2 0.45319457E+03</rscale>
<asrwt>0</asrwt>
<pdfrwt beam="1">  1       21 0.39811709E-02 0.45319457E+03</pdfrwt>
<pdfrwt beam="2">  1       21 0.27892070E+00 0.45319457E+03</pdfrwt>
<totfact> 0.15207137E+04</totfact>
</mgrwt>
</event>
<event>
 7    0  0.4712189E-002  0.4472944E+03  0.7546771E-02  0.1028532E+00
         21   -1    0    0  502  501  0.00000000000E+00  0.00000000000E+00  0.90355446366E+03  0.90355446366E+03  0.00000000000E+00 0.  1.
         21   -1    0    0  501  502 -0.00000000000E+00 -0.00000000000E+00 -0.55356998104E+02  0.55356998104E+02  0.00000000000E+00 0.  1.
      99926    2    1    2    0    0  0.00000000000E+00  0.00000000000E+00  0.84819746556E+03  0.95891146177E+03  0.44729436720E+03 0.  0.
      99925    2    3    3    0    0  0.12816550851E+02  0.14066286394E+02  0.31417820491E+03  0.41010712210E+03  0.26290261081E+03 0.  0.
         25    1    4    4    0    0 -0.83652821819E+01 -0.29299631974E+02  0.16953244857E+03  0.21287838218E+03  0.12509000000E+03 0.  0.
         25    1    3    3    0    0 -0.12816550851E+02 -0.14066286394E+02  0.53401926065E+03  0.54880433966E+03  0.12509000000E+03 0.  0.
         25    1    4    4    0    0  0.21181833033E+02  0.43365918368E+02  0.14464575634E+03  0.19722873993E+03  0.12509000000E+03 0.  0.
<mgrwt>
<rscale>  2 0.44729437E+03</rscale>
<asrwt>0</asrwt>
<pdfrwt beam="1">  1       21 0.13287565E+00 0.44729437E+03</pdfrwt>
<pdfrwt beam="2">  1       21 0.81407356E-02 0.44729437E+03</pdfrwt>
<totfact> 0.43334645E+04</totfact>
</mgrwt>
</event>
<event>
 6    0  0.4712189E-002  0.4481774E+03  0.7546771E-02  0.1028267E+00
         21   -1    0    0  502  501  0.00000000000E+00  0.00000000000E+00  0.80687643113E+03  0.80687643113E+03  0.00000000000E+00 0.  1.
         21   -1    0    0  501  502 -0.00000000000E+00 -0.00000000000E+00 -0.62234729122E+02  0.62234729122E+02  0.00000000000E+00 0.  1.
      99926    2    1    2    0    0 -0.14210854715E-13 -0.13322676296E-14  0.74464170201E+03  0.86911116026E+03  0.44817735832E+03 0.  0.
         25    1    3    3    0    0 -0.14207554493E+02 -0.42132559492E+02  0.29047140959E+03  0.31937150008E+03  0.12509000000E+03 0.  0.
         25    1    3    3    0    0 -0.75571776321E+02  0.39301126075E+02  0.27137353513E+03  0.31071977014E+03  0.12509000000E+03 0.  0.
         25    1    3    3    0    0  0.89779330814E+02  0.28314334164E+01  0.18279675729E+03  0.23901989003E+03  0.12509000000E+03 0.  0.
<mgrwt>
<rscale>  2 0.44817736E+03</rscale>
<asrwt>0</asrwt>
<pdfrwt beam="1">  1       21 0.11865829E+00 0.44817736E+03</pdfrwt>
<pdfrwt beam="2">  1       21 0.91521665E-02 0.44817736E+03</pdfrwt>
<totfact> 0.47061363E+04</totfact>
</mgrwt>
</event>
<event>
 7    0  0.4712189E-002  0.4591457E+03  0.7546771E-02  0.1025029E+00
         21   -1    0    0  502  501  0.00000000000E+00  0.00000000000E+00  0.21970847471E+03  0.21970847471E+03  0.00000000000E+00 0.  1.
         21   -1    0    0  501  502 -0.00000000000E+00 -0.00000000000E+00 -0.23988006996E+03  0.23988006996E+03  0.00000000000E+00 0.  1.
      99926    2    1    2    0    0  0.00000000000E+00  0.00000000000E+00 -0.20171595253E+02  0.45958854466E+03  0.45914566004E+03 0.  0.
      99925    2    3    3    0    0  0.89531447254E+02  0.42725723746E+02 -0.74775060872E+02  0.29085676320E+03  0.26299235627E+03 0.  0.
         25    1    3    3    0    0 -0.89531447254E+02 -0.42725723746E+02  0.54603465620E+02  0.16873178146E+03  0.12509000000E+03 0.  0.
         25    1    4    4    0    0  0.29372300736E+02  0.58421659287E+02 -0.31551717661E+02  0.14463347231E+03  0.12509000000E+03 0.  0.
         25    1    4    4    0    0  0.60159146519E+02 -0.15695935541E+02 -0.43223343211E+02  0.14622329090E+03  0.12509000000E+03 0.  0.
<mgrwt>
<rscale>  2 0.45914566E+03</rscale>
<asrwt>0</asrwt>
<pdfrwt beam="1">  1       21 0.32310070E-01 0.45914566E+03</pdfrwt>
<pdfrwt beam="2">  1       21 0.35276481E-01 0.45914566E+03</pdfrwt>
<totfact> 0.66000642E+04</totfact>
</mgrwt>
</event>
<event>
 7    0  0.4712189E-002  0.4564368E+03  0.7546771E-02  0.1025820E+00
         21   -1    0    0  502  501  0.00000000000E+00  0.00000000000E+00  0.90824427873E+03  0.90824427873E+03  0.00000000000E+00 0. -1.
         21   -1    0    0  501  502 -0.00000000000E+00 -0.00000000000E+00 -0.57345398495E+02  0.57345398495E+02  0.00000000000E+00 0. -1.
      99926    2    1    2    0    0  0.14210854715E-13  0.00000000000E+00  0.85089888023E+03  0.96558967722E+03  0.45643676493E+03 0.  0.
      99925    2    3    3    0    0 -0.10493763468E+03  0.99521926867E+01  0.44002922232E+03  0.52335406445E+03  0.26298822591E+03 0.  0.
         25    1    3    3    0    0  0.10493763468E+03 -0.99521926867E+01  0.41086965791E+03  0.44223561277E+03  0.12509000000E+03 0.  0.
         25    1    4    4    0    0 -0.10388289399E+02  0.53867750414E+01  0.21561564086E+03  0.24954868580E+03  0.12509000000E+03 0.  0.
         25    1    4    4    0    0 -0.94549345284E+02  0.45654176454E+01  0.22441358146E+03  0.27380537864E+03  0.12509000000E+03 0.  0.
<mgrwt>
<rscale>  2 0.45643676E+03</rscale>
<asrwt>0</asrwt>
<pdfrwt beam="1">  1       21 0.13356533E+00 0.45643676E+03</pdfrwt>
<pdfrwt beam="2">  1       21 0.84331474E-02 0.45643676E+03</pdfrwt>
<totfact> 0.40063988E+04</totfact>
</mgrwt>
</event>
<event>
 7    0  0.4712189E-002  0.4550415E+03  0.7546771E-02  0.1026229E+00
         21   -1    0    0  502  501  0.00000000000E+00  0.00000000000E+00  0.26096415558E+03  0.26096415558E+03  0.00000000000E+00 0.  1.
         21   -1    0    0  501  502 -0.00000000000E+00 -0.00000000000E+00 -0.19836324435E+03  0.19836324435E+03  0.00000000000E+00 0.  1.
      99926    2    1    2    0    0  0.00000000000E+00  0.00000000000E+00  0.62600911231E+02  0.45932739993E+03  0.45504152144E+03 0.  0.
      99925    2    3    3    0    0 -0.17910277249E+02  0.18605299895E+02  0.15069652528E+03  0.30416528944E+03  0.26294513754E+03 0.  0.
         25    1    4    4    0    0 -0.14089374457E+02 -0.10141608039E+02  0.34323060676E+02  0.13086994797E+03  0.12509000000E+03 0.  0.
         25    1    4    4    0    0 -0.38209027918E+01  0.28746907934E+02  0.11637346460E+03  0.17329534148E+03  0.12509000000E+03 0.  0.
         25    1    3    3    0    0  0.17910277249E+02 -0.18605299895E+02 -0.88095614048E+02  0.15516211048E+03  0.12509000000E+03 0.  0.
<mgrwt>
<rscale>  2 0.45504152E+03</rscale>
<asrwt>0</asrwt>
<pdfrwt beam="1">  1       21 0.38377082E-01 0.45504152E+03</pdfrwt>
<pdfrwt beam="2">  1       21 0.29171065E-01 0.45504152E+03</pdfrwt>
<totfact> 0.68207029E+04</totfact>
</mgrwt>
</event>
<event>
 7    0  0.4712189E-002  0.4556684E+03  0.7546771E-02  0.1026045E+00
         21   -1    0    0  502  501  0.00000000000E+00  0.00000000000E+00  0.19257172975E+03  0.19257172975E+03  0.00000000000E+00 0.  1.
         21   -1    0    0  501  502 -0.00000000000E+00 -0.00000000000E+00 -0.26955372757E+03  0.26955372757E+03  0.00000000000E+00 0.  1.
      99926    2    1    2    0    0  0.71054273576E-14 -0.22204460493E-15 -0.76981997822E+02  0.46212545732E+03  0.45566842146E+03 0.  0.
      99925    2    3    3    0    0  0.43979821383E+02 -0.11697641362E+01  0.57615458688E+02  0.27318214192E+03  0.26338820882E+03 0.  0.
         25    1    3    3    0    0 -0.43979821383E+02  0.11697641362E+01 -0.13459745651E+03  0.18894331540E+03  0.12509000000E+03 0.  0.
         25    1    4    4    0    0  0.60725992947E+02  0.14335231878E+02  0.26537967096E+02  0.14228463336E+03  0.12509000000E+03 0.  0.
         25    1    4    4    0    0 -0.16746171564E+02 -0.15504996014E+02  0.31077491593E+02  0.13089750856E+03  0.12509000000E+03 0.  0.
<mgrwt>
<rscale>  2 0.45566842E+03</rscale>
<asrwt>0</asrwt>
<pdfrwt beam="1">  1       21 0.28319372E-01 0.45566842E+03</pdfrwt>
<pdfrwt beam="2">  1       21 0.39640254E-01 0.45566842E+03</pdfrwt>
<totfact> 0.67663751E+04</totfact>
</mgrwt>
</event>
<event>
 7    0  0.4712189E-002  0.4604185E+03  0.7546771E-02  0.1024660E+00
         21   -1    0    0  502  501  0.00000000000E+00  0.00000000000E+00  0.10598164310E+03  0.10598164310E+03  0.00000000000E+00 0. -1.
         21   -1    0    0  501  502 -0.00000000000E+00 -0.00000000000E+00 -0.50005173327E+03  0.50005173327E+03  0.00000000000E+00 0. -1.
      99926    2    1    2    0    0  0.00000000000E+00  0.00000000000E+00 -0.39407009018E+03  0.60603337637E+03  0.46041852406E+03 0.  0.
      99925    2    3    3    0    0  0.43902864447E+02 -0.84789187721E+02 -0.33847005646E+03  0.43913358695E+03  0.26298224313E+03 0.  0.
         25    1    4    4    0    0  0.26461748770E+02 -0.78848899397E+02 -0.15085855416E+03  0.21289242482E+03  0.12509000000E+03 0.  0.
         25    1    4    4    0    0  0.17441115677E+02 -0.59402883237E+01 -0.18761150231E+03  0.22624116212E+03  0.12509000000E+03 0.  0.
         25    1    3    3    0    0 -0.43902864447E+02  0.84789187721E+02 -0.55600033715E+02  0.16689978943E+03  0.12509000000E+03 0.  0.
<mgrwt>
<rscale>  2 0.46041852E+03</rscale>
<asrwt>0</asrwt>
<pdfrwt beam="1">  1       21 0.15585536E-01 0.46041852E+03</pdfrwt>
<pdfrwt beam="2">  1       21 0.73537020E-01 0.46041852E+03</pdfrwt>
<totfact> 0.55877786E+04</totfact>
</mgrwt>
</event>
<event>
 7    0  0.4712189E-002  0.4577427E+03  0.7546771E-02  0.1025438E+00
         21   -1    0    0  502  501  0.00000000000E+00  0.00000000000E+00  0.87688186125E+02  0.87688186125E+02  0.00000000000E+00 0. -1.
         21   -1    0    0  501  502 -0.00000000000E+00 -0.00000000000E+00 -0.59736782201E+03  0.59736782201E+03  0.00000000000E+00 0. -1.
      99926    2    1    2    0    0  0.00000000000E+00  0.17763568394E-14 -0.50967963589E+03  0.68505600814E+03  0.45774272583E+03 0.  0.
      99925    2    3    3    0    0  0.54465513777E+02 -0.35774776030E+01 -0.16647600626E+03  0.31571127753E+03  0.26264055201E+03 0.  0.
         25    1    3    3    0    0 -0.54465513777E+02  0.35774776030E+01 -0.34320362963E+03  0.36934473061E+03  0.12509000000E+03 0.  0.
         25    1    4    4    0    0 -0.10016740250E+02  0.14335193225E+02 -0.74597384681E+02  0.14669052714E+03  0.12509000000E+03 0.  0.
         25    1    4    4    0    0  0.64482254026E+02 -0.17912670828E+02 -0.91878621575E+02  0.16902075039E+03  0.12509000000E+03 0.  0.
<mgrwt>
<rscale>  2 0.45774273E+03</rscale>
<asrwt>0</asrwt>
<pdfrwt beam="1">  1       21 0.12895321E-01 0.45774273E+03</pdfrwt>
<pdfrwt beam="2">  1       21 0.87848210E-01 0.45774273E+03</pdfrwt>
<totfact> 0.52577498E+04</totfact>
</mgrwt>
</event>
<event>
 7    0  0.4712189E-002  0.4492697E+03  0.7546771E-02  0.1027940E+00
         21   -1    0    0  502  501  0.00000000000E+00  0.00000000000E+00  0.55346038287E+02  0.55346038287E+02  0.00000000000E+00 0.  1.
         21   -1    0    0  501  502 -0.00000000000E+00 -0.00000000000E+00 -0.91173329303E+03  0.91173329303E+03  0.00000000000E+00 0.  1.
      99926    2    1    2    0    0  0.00000000000E+00  0.00000000000E+00 -0.85638725474E+03  0.96707933131E+03  0.44926974411E+03 0.  0.
      99925    2    3    3    0    0  0.86323926505E+02  0.50880910812E+02 -0.62698394451E+03  0.68723281228E+03  0.26294369022E+03 0.  0.
         25    1    4    4    0    0  0.74049884456E+02  0.19423395135E+02 -0.39759715312E+03  0.42378255973E+03  0.12509000000E+03 0.  0.
         25    1    4    4    0    0  0.12274042049E+02  0.31457515677E+02 -0.22938679139E+03  0.26345025255E+03  0.12509000000E+03 0.  0.
         25    1    3    3    0    0 -0.86323926505E+02 -0.50880910812E+02 -0.22940331023E+03  0.27984651903E+03  0.12509000000E+03 0.  0.
<mgrwt>
<rscale>  2 0.44926974E+03</rscale>
<asrwt>0</asrwt>
<pdfrwt beam="1">  1       21 0.81391233E-02 0.44926974E+03</pdfrwt>
<pdfrwt beam="2">  1       21 0.13407843E+00 0.44926974E+03</pdfrwt>
<totfact> 0.42321291E+04</totfact>
</mgrwt>
</event>
<event>
 7    0  0.4712189E-002  0.4851153E+03  0.7546771E-02  0.1017739E+00
         21   -1    0    0  502  501  0.00000000000E+00  0.00000000000E+00  0.13152329222E+04  0.13152329222E+04  0.00000000000E+00 0.  1.
         21   -1    0    0  501  502 -0.00000000000E+00 -0.00000000000E+00 -0.44732922115E+02  0.44732922115E+02  0.00000000000E+00 0.  1.
      99926    2    1    2    0    0  0.00000000000E+00  0.00000000000E+00  0.12705000001E+04  0.13599658443E+04  0.48511529298E+03 0.  0.
      99925    2    3    3    0    0  0.10845281546E+03  0.75319075642E+02  0.65422196536E+03  0.71740759752E+03  0.26312032359E+03 0.  0.
         25    1    4    4    0    0  0.83229496795E+02  0.58249460769E+02  0.30043616979E+03  0.34092455036E+03  0.12509000000E+03 0.  0.
         25    1    3    3    0    0 -0.10845281546E+03 -0.75319075642E+02  0.61627803469E+03  0.64255824676E+03  0.12509000000E+03 0.  0.
         25    1    4    4    0    0  0.25223318668E+02  0.17069614872E+02  0.35378579557E+03  0.37648304717E+03  0.12509000000E+03 0.  0.
<mgrwt>
<rscale>  2 0.48511529E+03</rscale>
<asrwt>0</asrwt>
<pdfrwt beam="1">  1       21 0.19341658E+00 0.48511529E+03</pdfrwt>
<pdfrwt beam="2">  1       21 0.65783718E-02 0.48511529E+03</pdfrwt>
<totfact> 0.21839357E+04</totfact>
</mgrwt>
</event>
<event>
 7    0  0.4712189E-002  0.4541756E+03  0.7546771E-02  0.1026484E+00
         21   -1    0    0  502  501  0.00000000000E+00  0.00000000000E+00  0.87848745914E+02  0.87848745914E+02  0.00000000000E+00 0. -1.
         21   -1    0    0  501  502 -0.00000000000E+00 -0.00000000000E+00 -0.58701874697E+03  0.58701874697E+03  0.00000000000E+00 0. -1.
      99926    2    1    2    0    0  0.71054273576E-14  0.00000000000E+00 -0.49917000106E+03  0.67486749288E+03  0.45417556407E+03 0.  0.
      99925    2    3    3    0    0 -0.42246939070E+02 -0.49164460139E+02 -0.45072532273E+03  0.52588312136E+03  0.26305473341E+03 0.  0.
         25    1    3    3    0    0  0.42246939070E+02  0.49164460139E+02 -0.48444678321E+02  0.14898437153E+03  0.12509000000E+03 0.  0.
         25    1    4    4    0    0 -0.60045066538E+01 -0.61265101560E+02 -0.25155420536E+03  0.28760475153E+03  0.12509000000E+03 0.  0.
         25    1    4    4    0    0 -0.36242432416E+02  0.12100641421E+02 -0.19917111738E+03  0.23827836983E+03  0.12509000000E+03 0.  0.
<mgrwt>
<rscale>  2 0.45417556E+03</rscale>
<asrwt>0</asrwt>
<pdfrwt beam="1">  1       21 0.12918933E-01 0.45417556E+03</pdfrwt>
<pdfrwt beam="2">  1       21 0.86326288E-01 0.45417556E+03</pdfrwt>
<totfact> 0.54643448E+04</totfact>
</mgrwt>
</event>
<event>
 7    0  0.4712189E-002  0.4562194E+03  0.7546771E-02  0.1025883E+00
         21   -1    0    0  502  501  0.00000000000E+00  0.00000000000E+00  0.17536399681E+03  0.17536399681E+03  0.00000000000E+00 0. -1.
         21   -1    0    0  501  502 -0.00000000000E+00 -0.00000000000E+00 -0.29672015756E+03  0.29672015756E+03  0.00000000000E+00 0. -1.
      99926    2    1    2    0    0  0.00000000000E+00  0.00000000000E+00 -0.12135616075E+03  0.47208415438E+03  0.45621938918E+03 0.  0.
      99925    2    3    3    0    0  0.11092398340E+03 -0.24889269309E+02 -0.62122028546E+02  0.29297581751E+03  0.26277761966E+03 0.  0.
         25    1    3    3    0    0 -0.11092398340E+03  0.24889269309E+02 -0.59234132205E+02  0.17910833687E+03  0.12509000000E+03 0.  0.
         25    1    4    4    0    0  0.49709376516E+02 -0.45716343791E+02 -0.88833983207E+01  0.14243394634E+03  0.12509000000E+03 0.  0.
         25    1    4    4    0    0  0.61214606879E+02  0.20827074482E+02 -0.53238630225E+02  0.15054187117E+03  0.12509000000E+03 0.  0.
<mgrwt>
<rscale>  2 0.45621939E+03</rscale>
<asrwt>0</asrwt>
<pdfrwt beam="1">  1       21 0.25788823E-01 0.45621939E+03</pdfrwt>
<pdfrwt beam="2">  1       21 0.43635317E-01 0.45621939E+03</pdfrwt>
<totfact> 0.66634073E+04</totfact>
</mgrwt>
</event>
<event>
 7    0  0.4712189E-002  0.4505007E+03  0.7546771E-02  0.1027573E+00
         21   -1    0    0  502  501  0.00000000000E+00  0.00000000000E+00  0.30572987160E+03  0.30572987160E+03  0.00000000000E+00 0.  1.
         21   -1    0    0  501  502 -0.00000000000E+00 -0.00000000000E+00 -0.16595605370E+03  0.16595605370E+03  0.00000000000E+00 0.  1.
      99926    2    1    2    0    0  0.71054273576E-14  0.00000000000E+00  0.13977381790E+03  0.47168592530E+03  0.45050071249E+03 0.  0.
      99925    2    3    3    0    0 -0.44313171872E+02 -0.64355957560E+02  0.16770928672E+03  0.32157514956E+03  0.26301867897E+03 0.  0.
         25    1    3    3    0    0  0.44313171872E+02  0.64355957560E+02 -0.27935468815E+02  0.15011077574E+03  0.12509000000E+03 0.  0.
         25    1    4    4    0    0  0.35561938617E+01 -0.61812764381E+02  0.98169396113E+02  0.17064056607E+03  0.12509000000E+03 0.  0.
         25    1    4    4    0    0 -0.47869365734E+02 -0.25431931784E+01  0.69539890607E+02  0.15093458349E+03  0.12509000000E+03 0.  0.
<mgrwt>
<rscale>  2 0.45050071E+03</rscale>
<asrwt>0</asrwt>
<pdfrwt beam="1">  1       21 0.44960276E-01 0.45050071E+03</pdfrwt>
<pdfrwt beam="2">  1       21 0.24405302E-01 0.45050071E+03</pdfrwt>
<totfact> 0.69768435E+04</totfact>
</mgrwt>
</event>
<event>
 7    0  0.4712189E-002  0.4453674E+03  0.7546771E-02  0.1029113E+00
         21   -1    0    0  502  501  0.00000000000E+00  0.00000000000E+00  0.90791478064E+03  0.90791478064E+03  0.00000000000E+00 0.  1.
         21   -1    0    0  501  502 -0.00000000000E+00 -0.00000000000E+00 -0.54617503211E+02  0.54617503211E+02  0.00000000000E+00 0.  1.
      99926    2    1    2    0    0  0.00000000000E+00  0.00000000000E+00  0.85329727743E+03  0.96253228385E+03  0.44536743683E+03 0.  0.
      99925    2    3    3    0    0  0.85992874897E+02  0.38026885782E+02  0.63690494133E+03  0.69548552802E+03  0.26308058998E+03 0.  0.
         25    1    3    3    0    0 -0.85992874897E+02 -0.38026885782E+02  0.21639233610E+03  0.26704675583E+03  0.12509000000E+03 0.  0.
         25    1    4    4    0    0  0.24646010043E+02  0.16836425294E+02  0.39633995654E+03  0.41668184539E+03  0.12509000000E+03 0.  0.
         25    1    4    4    0    0  0.61346864855E+02  0.21190460488E+02  0.24056498479E+03  0.27880368264E+03  0.12509000000E+03 0.  0.
<mgrwt>
<rscale>  2 0.44536744E+03</rscale>
<asrwt>0</asrwt>
<pdfrwt beam="1">  1       21 0.13351687E+00 0.44536744E+03</pdfrwt>
<pdfrwt beam="2">  1       21 0.80319863E-02 0.44536744E+03</pdfrwt>
<totfact> 0.43847815E+04</totfact>
</mgrwt>
</event>
<event>
 7    0  0.4712189E-002  0.4566347E+03  0.7546771E-02  0.1025762E+00
         21   -1    0    0  502  501  0.00000000000E+00  0.00000000000E+00  0.41908207108E+02  0.41908207108E+02  0.00000000000E+00 0.  1.
         21   -1    0    0  501  502 -0.00000000000E+00 -0.00000000000E+00 -0.12438809828E+04  0.12438809828E+04  0.00000000000E+00 0.  1.
      99926    2    1    2    0    0 -0.71054273576E-14  0.00000000000E+00 -0.12019727757E+04  0.12857891899E+04  0.45663474175E+03 0.  0.
      99925    2    3    3    0    0  0.56046118138E+02 -0.91454950982E+02 -0.86883867554E+03  0.91412938282E+03  0.26314769428E+03 0.  0.
         25    1    4    4    0    0 -0.73757917580E+01 -0.43354830331E+02 -0.48013977049E+03  0.49811218708E+03  0.12509000000E+03 0.  0.
         25    1    3    3    0    0 -0.56046118138E+02  0.91454950982E+02 -0.33313410013E+03  0.37165980706E+03  0.12509000000E+03 0.  0.
         25    1    4    4    0    0  0.63421909896E+02 -0.48100120650E+02 -0.38869890505E+03  0.41601719574E+03  0.12509000000E+03 0.  0.
<mgrwt>
<rscale>  2 0.45663474E+03</rscale>
<asrwt>0</asrwt>
<pdfrwt beam="1">  1       21 0.61629728E-02 0.45663474E+03</pdfrwt>
<pdfrwt beam="2">  1       21 0.18292364E+00 0.45663474E+03</pdfrwt>
<totfact> 0.29157678E+04</totfact>
</mgrwt>
</event>
<event>
 7    0  0.4712189E-002  0.4541864E+03  0.7546771E-02  0.1026481E+00
         21   -1    0    0  502  501  0.00000000000E+00  0.00000000000E+00  0.12610585355E+03  0.12610585355E+03  0.00000000000E+00 0.  1.
         21   -1    0    0  501  502 -0.00000000000E+00 -0.00000000000E+00 -0.40895260413E+03  0.40895260413E+03  0.00000000000E+00 0.  1.
      99926    2    1    2    0    0  0.17763568394E-14  0.00000000000E+00 -0.28284675058E+03  0.53505845767E+03  0.45418638114E+03 0.  0.
      99925    2    3    3    0    0  0.96708483733E+01 -0.73658351841E+02 -0.27742581273E+03  0.38947009010E+03  0.26306423439E+03 0.  0.
         25    1    3    3    0    0 -0.96708483733E+01  0.73658351841E+02 -0.54209378537E+01  0.14558836757E+03  0.12509000000E+03 0.  0.
         25    1    4    4    0    0 -0.87755188048E+01 -0.14341973567E+02 -0.86905256887E+02  0.15324077039E+03  0.12509000000E+03 0.  0.
         25    1    4    4    0    0  0.18446367178E+02 -0.59316378274E+02 -0.19052055584E+03  0.23622931971E+03  0.12509000000E+03 0.  0.
<mgrwt>
<rscale>  2 0.45418638E+03</rscale>
<asrwt>0</asrwt>
<pdfrwt beam="1">  1       21 0.18544978E-01 0.45418638E+03</pdfrwt>
<pdfrwt beam="2">  1       21 0.60140089E-01 0.45418638E+03</pdfrwt>
<totfact> 0.63271255E+04</totfact>
</mgrwt>
</event>
<event>
 7    0  0.4712189E-002  0.4631861E+03  0.7546771E-02  0.1023861E+00
         21   -1    0    0  502  501  0.00000000000E+00  0.00000000000E+00  0.43596763510E+02  0.43596763510E+02  0.00000000000E+00 0.  1.
         21   -1    0    0  501  502 -0.00000000000E+00 -0.00000000000E+00 -0.12302595635E+04  0.12302595635E+04  0.00000000000E+00 0.  1.
      99926    2    1    2    0    0  0.00000000000E+00  0.00000000000E+00 -0.11866628000E+04  0.12738563270E+04  0.46318607598E+03 0.  0.
      99925    2    3    3    0    0 -0.97667256160E+02 -0.59469200519E+02 -0.63576758545E+03  0.69748099423E+03  0.26306621954E+03 0.  0.
         25    1    3    3    0    0  0.97667256160E+02  0.59469200519E+02 -0.55089521451E+03  0.57637533275E+03  0.12509000000E+03 0.  0.
         25    1    4    4    0    0 -0.24751302873E+02  0.58466597684E+01 -0.26614912920E+03  0.29517736617E+03  0.12509000000E+03 0.  0.
         25    1    4    4    0    0 -0.72915953287E+02 -0.65315860288E+02 -0.36961845624E+03  0.40230362805E+03  0.12509000000E+03 0.  0.
<mgrwt>
<rscale>  2 0.46318608E+03</rscale>
<asrwt>0</asrwt>
<pdfrwt beam="1">  1       21 0.64112889E-02 0.46318608E+03</pdfrwt>
<pdfrwt beam="2">  1       21 0.18092052E+00 0.46318608E+03</pdfrwt>
<totfact> 0.28053200E+04</totfact>
</mgrwt>
</event>
<event>
 7    0  0.4712189E-002  0.4638698E+03  0.7546771E-02  0.1023665E+00
         21   -1    0    0  502  501  0.00000000000E+00  0.00000000000E+00  0.16695974067E+03  0.16695974067E+03  0.00000000000E+00 0. -1.
         21   -1    0    0  501  502 -0.00000000000E+00 -0.00000000000E+00 -0.32219621899E+03  0.32219621899E+03  0.00000000000E+00 0. -1.
      99926    2    1    2    0    0  0.00000000000E+00  0.00000000000E+00 -0.15523647833E+03  0.48915595966E+03  0.46386979711E+03 0.  0.
      99925    2    3    3    0    0  0.19506927598E+02 -0.10630355109E+03 -0.39033700093E+02  0.28708775591E+03  0.26308702867E+03 0.  0.
         25    1    3    3    0    0 -0.19506927598E+02  0.10630355109E+03 -0.11620277823E+03  0.20206820375E+03  0.12509000000E+03 0.  0.
         25    1    4    4    0    0 -0.20317288220E+02 -0.22673738130E+02 -0.15644708443E+02  0.12968868726E+03  0.12509000000E+03 0.  0.
         25    1    4    4    0    0  0.39824215818E+02 -0.83629812956E+02 -0.23388991650E+02  0.15739906865E+03  0.12509000000E+03 0.  0.
<mgrwt>
<rscale>  2 0.46386980E+03</rscale>
<asrwt>0</asrwt>
<pdfrwt beam="1">  1       21 0.24552903E-01 0.46386980E+03</pdfrwt>
<pdfrwt beam="2">  1       21 0.47381796E-01 0.46386980E+03</pdfrwt>
<totfact> 0.61587466E+04</totfact>
</mgrwt>
</event>
<event>
 7    0  0.4712189E-002  0.4634157E+03  0.7546771E-02  0.1023795E+00
         21   -1    0    0  502  501  0.00000000000E+00  0.00000000000E+00  0.26094253920E+03  0.26094253920E+03  0.00000000000E+00 0. -1.
         21   -1    0    0  501  502 -0.00000000000E+00 -0.00000000000E+00 -0.20574843178E+03  0.20574843178E+03  0.00000000000E+00 0. -1.
      99926    2    1    2    0    0  0.00000000000E+00  0.00000000000E+00  0.55194107421E+02  0.46669097098E+03  0.46341565889E+03 0.  0.
      99925    2    3    3    0    0  0.12072750687E+02  0.11185457386E+03 -0.10403706129E+02  0.28611473156E+03  0.26286157100E+03 0.  0.
         25    1    4    4    0    0  0.13401374424E+02  0.59014296054E+02 -0.44844338908E+02  0.14601646074E+03  0.12509000000E+03 0.  0.
         25    1    4    4    0    0 -0.13286237369E+01  0.52840277802E+02  0.34440632779E+02  0.14009827082E+03  0.12509000000E+03 0.  0.
         25    1    3    3    0    0 -0.12072750687E+02 -0.11185457386E+03  0.65597813550E+02  0.18057623942E+03  0.12509000000E+03 0.  0.
<mgrwt>
<rscale>  2 0.46341566E+03</rscale>
<asrwt>0</asrwt>
<pdfrwt beam="1">  1       21 0.38373903E-01 0.46341566E+03</pdfrwt>
<pdfrwt beam="2">  1       21 0.30257122E-01 0.46341566E+03</pdfrwt>
<totfact> 0.63336854E+04</totfact>
</mgrwt>
</event>
<event>
 7    0  0.4712189E-002  0.4382385E+03  0.7546771E-02  0.1031289E+00
         21   -1    0    0  502  501  0.00000000000E+00  0.00000000000E+00  0.50431019070E+03  0.50431019070E+03  0.00000000000E+00 0.  1.
         21   -1    0    0  501  502 -0.00000000000E+00 -0.00000000000E+00 -0.95205797934E+02  0.95205797934E+02  0.00000000000E+00 0.  1.
      99926    2    1    2    0    0  0.00000000000E+00  0.00000000000E+00  0.40910439276E+03  0.59951598863E+03  0.43823853829E+03 0.  0.
      99925    2    3    3    0    0  0.86052123626E+02  0.37684071025E+02  0.29220303707E+03  0.40422519967E+03  0.26304056719E+03 0.  0.
         25    1    3    3    0    0 -0.86052123626E+02 -0.37684071025E+02  0.11690135570E+03  0.19529078896E+03  0.12509000000E+03 0.  0.
         25    1    4    4    0    0  0.57769268896E+02  0.57726564423E+02  0.16222385717E+03  0.22053057068E+03  0.12509000000E+03 0.  0.
         25    1    4    4    0    0  0.28282854731E+02 -0.20042493398E+02  0.12997917990E+03  0.18369462899E+03  0.12509000000E+03 0.  0.
<mgrwt>
<rscale>  2 0.43823854E+03</rscale>
<asrwt>0</asrwt>
<pdfrwt beam="1">  1       21 0.74163262E-01 0.43823854E+03</pdfrwt>
<pdfrwt beam="2">  1       21 0.14000853E-01 0.43823854E+03</pdfrwt>
<totfact> 0.67171171E+04</totfact>
</mgrwt>
</event>
<event>
 7    0  0.4712189E-002  0.4577499E+03  0.7546771E-02  0.1025436E+00
         21   -1    0    0  502  501  0.00000000000E+00  0.00000000000E+00  0.15409916261E+03  0.15409916261E+03  0.00000000000E+00 0.  1.
         21   -1    0    0  501  502 -0.00000000000E+00 -0.00000000000E+00 -0.33993530682E+03  0.33993530682E+03  0.00000000000E+00 0.  1.
      99926    2    1    2    0    0  0.00000000000E+00  0.00000000000E+00 -0.18583614421E+03  0.49403446943E+03  0.45774991478E+03 0.  0.
      99925    2    3    3    0    0  0.10096750540E+03  0.42177967400E+01 -0.55984441577E+02  0.28734339624E+03  0.26309645134E+03 0.  0.
         25    1    3    3    0    0 -0.10096750540E+03 -0.42177967400E+01 -0.12985170264E+03  0.20669107318E+03  0.12509000000E+03 0.  0.
         25    1    4    4    0    0  0.56479079367E+02  0.42096907071E+02 -0.34120555943E+02  0.14755933189E+03  0.12509000000E+03 0.  0.
         25    1    4    4    0    0  0.44488426035E+02 -0.37879110331E+02 -0.21863885634E+02  0.13978406435E+03  0.12509000000E+03 0.  0.
<mgrwt>
<rscale>  2 0.45774991E+03</rscale>
<asrwt>0</asrwt>
<pdfrwt beam="1">  1       21 0.22661642E-01 0.45774991E+03</pdfrwt>
<pdfrwt beam="2">  1       21 0.49990486E-01 0.45774991E+03</pdfrwt>
<totfact> 0.64277107E+04</totfact>
</mgrwt>
</event>
<event>
 7    0  0.4712189E-002  0.4385272E+03  0.7546771E-02  0.1031200E+00
         21   -1    0    0  502  501  0.00000000000E+00  0.00000000000E+00  0.25467247427E+03  0.25467247427E+03  0.00000000000E+00 0. -1.
         21   -1    0    0  501  502 -0.00000000000E+00 -0.00000000000E+00 -0.18877785356E+03  0.18877785356E+03  0.00000000000E+00 0. -1.
      99926    2    1    2    0    0  0.35527136788E-14  0.00000000000E+00  0.65894620705E+02  0.44345032783E+03  0.43852718526E+03 0.  0.
      99925    2    3    3    0    0  0.18815836594E+02  0.41712590799E+02  0.12848113077E+03  0.29628186898E+03  0.26302389433E+03 0.  0.
         25    1    4    4    0    0  0.22948969897E+01 -0.52028379572E+00  0.10010940117E+03  0.16023400872E+03  0.12509000000E+03 0.  0.
         25    1    3    3    0    0 -0.18815836594E+02 -0.41712590799E+02 -0.62586510064E+02  0.14716845885E+03  0.12509000000E+03 0.  0.
         25    1    4    4    0    0  0.16520939605E+02  0.42232874594E+02  0.28371729597E+02  0.13604786026E+03  0.12509000000E+03 0.  0.
<mgrwt>
<rscale>  2 0.43852719E+03</rscale>
<asrwt>0</asrwt>
<pdfrwt beam="1">  1       21 0.37451834E-01 0.43852719E+03</pdfrwt>
<pdfrwt beam="2">  1       21 0.27761449E-01 0.43852719E+03</pdfrwt>
<totfact> 0.79323089E+04</totfact>
</mgrwt>
</event>
<event>
 7    0  0.4712189E-002  0.4250885E+03  0.7546771E-02  0.1035423E+00
         21   -1    0    0  502  501  0.00000000000E+00  0.00000000000E+00  0.14918198991E+04  0.14918198991E+04  0.00000000000E+00 0.  1.
         21   -1    0    0  501  502 -0.00000000000E+00 -0.00000000000E+00 -0.30281837629E+02  0.30281837629E+02  0.00000000000E+00 0.  1.
      99926    2    1    2    0    0  0.00000000000E+00  0.00000000000E+00  0.14615380615E+04  0.15221017368E+04  0.42508845177E+03 0.  0.
      99925    2    3    3    0    0  0.33057394342E+02 -0.50800022343E+02  0.75005620309E+03  0.79716906642E+03  0.26309842086E+03 0.  0.
         25    1    3    3    0    0 -0.33057394342E+02  0.50800022343E+02  0.71148185841E+03  0.72493267035E+03  0.12509000000E+03 0.  0.
         25    1    4    4    0    0 -0.63756869081E+01  0.11129500525E+01  0.41879490134E+03  0.43712534304E+03  0.12509000000E+03 0.  0.
         25    1    4    4    0    0  0.39433081250E+02 -0.51912972396E+02  0.33126130175E+03  0.36004372337E+03  0.12509000000E+03 0.  0.
<mgrwt>
<rscale>  2 0.42508845E+03</rscale>
<asrwt>0</asrwt>
<pdfrwt beam="1">  1       21 0.21938523E+00 0.42508845E+03</pdfrwt>
<pdfrwt beam="2">  1       21 0.44532124E-02 0.42508845E+03</pdfrwt>
<totfact> 0.29530598E+04</totfact>
</mgrwt>
</event>
<event>
 6    0  0.4712189E-002  0.4511053E+03  0.7546771E-02  0.1027393E+00
         21   -1    0    0  502  501  0.00000000000E+00  0.00000000000E+00  0.12175510165E+03  0.12175510165E+03  0.00000000000E+00 0.  1.
         21   -1    0    0  501  502 -0.00000000000E+00 -0.00000000000E+00 -0.41783881686E+03  0.41783881686E+03  0.00000000000E+00 0.  1.
      99926    2    1    2    0    0  0.00000000000E+00  0.00000000000E+00 -0.29608371521E+03  0.53959391850E+03  0.45110534299E+03 0.  0.
         25    1    3    3    0    0 -0.10133036425E+02  0.27003524301E+02 -0.21629212025E+03  0.25151870335E+03  0.12509000000E+03 0.  0.
         25    1    3    3    0    0  0.23940020632E+02 -0.81350922740E+01  0.16242199690E+02  0.12864921867E+03  0.12509000000E+03 0.  0.
         25    1    3    3    0    0 -0.13806984207E+02 -0.18868432027E+02 -0.96033794650E+02  0.15942599648E+03  0.12509000000E+03 0.  0.
<mgrwt>
<rscale>  2 0.45110534E+03</rscale>
<asrwt>0</asrwt>
<pdfrwt beam="1">  1       21 0.17905162E-01 0.45110534E+03</pdfrwt>
<pdfrwt beam="2">  1       21 0.61446885E-01 0.45110534E+03</pdfrwt>
<totfact> 0.64525363E+04</totfact>
</mgrwt>
</event>
<event>
 7    0  0.4712189E-002  0.4525014E+03  0.7546771E-02  0.1026979E+00
         21   -1    0    0  502  501  0.00000000000E+00  0.00000000000E+00  0.90987696836E+02  0.90987696836E+02  0.00000000000E+00 0.  1.
         21   -1    0    0  501  502 -0.00000000000E+00 -0.00000000000E+00 -0.56259674268E+03  0.56259674268E+03  0.00000000000E+00 0.  1.
      99926    2    1    2    0    0  0.26645352591E-14  0.00000000000E+00 -0.47160904584E+03  0.65358443951E+03  0.45250141155E+03 0.  0.
      99925    2    3    3    0    0 -0.40833122085E+01  0.54914929396E+02 -0.15659261168E+03  0.31019663425E+03  0.26204652824E+03 0.  0.
         25    1    4    4    0    0 -0.40681451630E+02  0.27640707817E+02 -0.84672634439E+02  0.15885827759E+03  0.12509000000E+03 0.  0.
         25    1    3    3    0    0  0.40833122085E+01 -0.54914929396E+02 -0.31501643416E+03  0.34338780526E+03  0.12509000000E+03 0.  0.
         25    1    4    4    0    0  0.36598139421E+02  0.27274221579E+02 -0.71919977238E+02  0.15133835666E+03  0.12509000000E+03 0.  0.
<mgrwt>
<rscale>  2 0.45250141E+03</rscale>
<asrwt>0</asrwt>
<pdfrwt beam="1">  1       21 0.13380544E-01 0.45250141E+03</pdfrwt>
<pdfrwt beam="2">  1       21 0.82734816E-01 0.45250141E+03</pdfrwt>
<totfact> 0.56602799E+04</totfact>
</mgrwt>
</event>
<event>
 7    0  0.4712189E-002  0.4578760E+03  0.7546771E-02  0.1025399E+00
         21   -1    0    0  502  501  0.00000000000E+00  0.00000000000E+00  0.48304841583E+02  0.48304841583E+02  0.00000000000E+00 0. -1.
         21   -1    0    0  501  502 -0.00000000000E+00 -0.00000000000E+00 -0.10850384381E+04  0.10850384381E+04  0.00000000000E+00 0. -1.
      99926    2    1    2    0    0  0.00000000000E+00  0.00000000000E+00 -0.10367335965E+04  0.11333432797E+04  0.45787600882E+03 0.  0.
      99925    2    3    3    0    0  0.62467626647E+02  0.92461191544E+02 -0.72632580906E+03  0.78056604270E+03  0.26321643145E+03 0.  0.
         25    1    4    4    0    0  0.22456116359E+02  0.61742618619E+02 -0.27015751088E+03  0.30487541210E+03  0.12509000000E+03 0.  0.
         25    1    3    3    0    0 -0.62467626647E+02 -0.92461191544E+02 -0.31040778746E+03  0.35277723698E+03  0.12509000000E+03 0.  0.
         25    1    4    4    0    0  0.40011510288E+02  0.30718572925E+02 -0.45616829817E+03  0.47569063060E+03  0.12509000000E+03 0.  0.
<mgrwt>
<rscale>  2 0.45787601E+03</rscale>
<asrwt>0</asrwt>
<pdfrwt beam="1">  1       21 0.71036527E-02 0.45787601E+03</pdfrwt>
<pdfrwt beam="2">  1       21 0.15956449E+00 0.45787601E+03</pdfrwt>
<totfact> 0.33584142E+04</totfact>
</mgrwt>
</event>
<event>
 7    0  0.4712189E-002  0.4565858E+03  0.7546771E-02  0.1025776E+00
         21   -1    0    0  502  501  0.00000000000E+00  0.00000000000E+00  0.12227806041E+03  0.12227806041E+03  0.00000000000E+00 0. -1.
         21   -1    0    0  501  502 -0.00000000000E+00 -0.00000000000E+00 -0.42622235079E+03  0.42622235079E+03  0.00000000000E+00 0. -1.
      99926    2    1    2    0    0  0.35527136788E-14  0.00000000000E+00 -0.30394429038E+03  0.54850041120E+03  0.45658577445E+03 0.  0.
      99925    2    3    3    0    0  0.11666045995E+02  0.10463683454E+03 -0.24547571597E+03  0.37485984548E+03  0.26301447270E+03 0.  0.
         25    1    4    4    0    0 -0.25526722033E+02  0.79518739759E+02 -0.13039187794E+03  0.19905876882E+03  0.12509000000E+03 0.  0.
         25    1    3    3    0    0 -0.11666045995E+02 -0.10463683454E+03 -0.58468574405E+02  0.17364056572E+03  0.12509000000E+03 0.  0.
         25    1    4    4    0    0  0.37192768028E+02  0.25118094779E+02 -0.11508383803E+03  0.17580107666E+03  0.12509000000E+03 0.  0.
<mgrwt>
<rscale>  2 0.45658577E+03</rscale>
<asrwt>0</asrwt>
<pdfrwt beam="1">  1       21 0.17982067E-01 0.45658577E+03</pdfrwt>
<pdfrwt beam="2">  1       21 0.62679759E-01 0.45658577E+03</pdfrwt>
<totfact> 0.61194287E+04</totfact>
</mgrwt>
</event>
<event>
 7    0  0.4712189E-002  0.4487492E+03  0.7546771E-02  0.1028096E+00
         21   -1    0    0  502  501  0.00000000000E+00  0.00000000000E+00  0.27049800355E+03  0.27049800355E+03  0.00000000000E+00 0. -1.
         21   -1    0    0  501  502 -0.00000000000E+00 -0.00000000000E+00 -0.18611583501E+03  0.18611583501E+03  0.00000000000E+00 0. -1.
      99926    2    1    2    0    0  0.17763568394E-14  0.00000000000E+00  0.84382168534E+02  0.45661383856E+03  0.44874920301E+03 0.  0.
      99925    2    3    3    0    0 -0.12601724210E+02 -0.78871102465E+02 -0.20188178048E+02  0.27505966003E+03  0.26243246710E+03 0.  0.
         25    1    4    4    0    0 -0.31239635204E+02 -0.42596039874E+02  0.20537602525E+02  0.13733039954E+03  0.12509000000E+03 0.  0.
         25    1    4    4    0    0  0.18637910994E+02 -0.36275062591E+02 -0.40725780573E+02  0.13772926049E+03  0.12509000000E+03 0.  0.
         25    1    3    3    0    0  0.12601724210E+02  0.78871102465E+02  0.10457034658E+03  0.18155417853E+03  0.12509000000E+03 0.  0.
<mgrwt>
<rscale>  2 0.44874920E+03</rscale>
<asrwt>0</asrwt>
<pdfrwt beam="1">  1       21 0.39779118E-01 0.44874920E+03</pdfrwt>
<pdfrwt beam="2">  1       21 0.27369976E-01 0.44874920E+03</pdfrwt>
<totfact> 0.71946329E+04</totfact>
</mgrwt>
</event>
<event>
 7    0  0.4712189E-002  0.4561944E+03  0.7546771E-02  0.1025891E+00
         21   -1    0    0  502  501  0.00000000000E+00  0.00000000000E+00  0.27176501569E+03  0.27176501569E+03  0.00000000000E+00 0.  1.
         21   -1    0    0  501  502 -0.00000000000E+00 -0.00000000000E+00 -0.19144599268E+03  0.19144599268E+03  0.00000000000E+00 0.  1.
      99926    2    1    2    0    0  0.00000000000E+00  0.00000000000E+00  0.80319023009E+02  0.46321100836E+03  0.45619435859E+03 0.  0.
      99925    2    3    3    0    0 -0.78913505729E+02  0.81547366505E+02  0.39796454981E+02  0.28952479420E+03  0.26336957732E+03 0.  0.
         25    1    3    3    0    0  0.78913505729E+02 -0.81547366505E+02  0.40522568028E+02  0.17368621416E+03  0.12509000000E+03 0.  0.
         25    1    4    4    0    0 -0.44173962345E+02  0.31480347606E+00  0.30358074939E+02  0.13609025999E+03  0.12509000000E+03 0.  0.
         25    1    4    4    0    0 -0.34739543384E+02  0.81232563029E+02  0.94383800420E+01  0.15343453421E+03  0.12509000000E+03 0.  0.
<mgrwt>
<rscale>  2 0.45619436E+03</rscale>
<asrwt>0</asrwt>
<pdfrwt beam="1">  1       21 0.39965444E-01 0.45619436E+03</pdfrwt>
<pdfrwt beam="2">  1       21 0.28153822E-01 0.45619436E+03</pdfrwt>
<totfact> 0.67301852E+04</totfact>
</mgrwt>
</event>
<event>
 7    0  0.4712189E-002  0.4516104E+03  0.7546771E-02  0.1027243E+00
         21   -1    0    0  502  501  0.00000000000E+00  0.00000000000E+00  0.20085594658E+04  0.20085594658E+04  0.00000000000E+00 0.  1.
         21   -1    0    0  501  502 -0.00000000000E+00 -0.00000000000E+00 -0.25385351316E+02  0.25385351316E+02  0.00000000000E+00 0.  1.
      99926    2    1    2    0    0 -0.26645352591E-14  0.00000000000E+00  0.19831741145E+04  0.20339448171E+04  0.45161039704E+03 0.  0.
      99925    2    3    3    0    0  0.71735235793E+01 -0.47058873645E+02  0.16983343637E+04  0.17192271838E+04  0.26293820825E+03 0.  0.
         25    1    4    4    0    0 -0.31107436903E+02 -0.22821779648E+02  0.97642098969E+03  0.98515682176E+03  0.12509000000E+03 0.  0.
         25    1    3    3    0    0 -0.71735235793E+01  0.47058873645E+02  0.28483975076E+03  0.31471763335E+03  0.12509000000E+03 0.  0.
         25    1    4    4    0    0  0.38280960482E+02 -0.24237093997E+02  0.72191337403E+03  0.73407036200E+03  0.12509000000E+03 0.  0.
<mgrwt>
<rscale>  2 0.45161040E+03</rscale>
<asrwt>0</asrwt>
<pdfrwt beam="1">  1       21 0.29537628E+00 0.45161040E+03</pdfrwt>
<pdfrwt beam="2">  1       21 0.37331413E-02 0.45161040E+03</pdfrwt>
<totfact> 0.13515533E+04</totfact>
</mgrwt>
</event>
<event>
 7    0  0.4712189E-002  0.4616751E+03  0.7546771E-02  0.1024297E+00
         21   -1    0    0  502  501  0.00000000000E+00  0.00000000000E+00  0.21832953829E+02  0.21832953829E+02  0.00000000000E+00 0.  1.
         21   -1    0    0  501  502 -0.00000000000E+00 -0.00000000000E+00 -0.24406216367E+04  0.24406216367E+04  0.00000000000E+00 0.  1.
      99926    2    1    2    0    0  0.00000000000E+00 -0.17763568394E-14 -0.24187886828E+04  0.24624545905E+04  0.46167512174E+03 0.  0.
      99925    2    3    3    0    0  0.51677687479E+02  0.15195712146E+02 -0.20806571703E+04  0.20979248648E+04  0.26315961875E+03 0.  0.
         25    1    3    3    0    0 -0.51677687479E+02 -0.15195712146E+02 -0.33813151254E+03  0.36452972570E+03  0.12509000000E+03 0.  0.
         25    1    4    4    0    0  0.33343109335E+02 -0.25936878816E+02 -0.12088262519E+04  0.12160151726E+04  0.12509000000E+03 0.  0.
         25    1    4    4    0    0  0.18334578144E+02  0.41132590962E+02 -0.87183091841E+03  0.88190969219E+03  0.12509000000E+03 0.  0.
<mgrwt>
<rscale>  2 0.46167512E+03</rscale>
<asrwt>0</asrwt>
<pdfrwt beam="1">  1       21 0.32107296E-02 0.46167512E+03</pdfrwt>
<pdfrwt beam="2">  1       21 0.35891483E+00 0.46167512E+03</pdfrwt>
<totfact> 0.71456497E+03</totfact>
</mgrwt>
</event>
<event>
 7    0  0.4712189E-002  0.4469996E+03  0.7546771E-02  0.1028621E+00
         21   -1    0    0  502  501  0.00000000000E+00  0.00000000000E+00  0.51507530688E+02  0.51507530688E+02  0.00000000000E+00 0. -1.
         21   -1    0    0  501  502 -0.00000000000E+00 -0.00000000000E+00 -0.96980326704E+03  0.96980326704E+03  0.00000000000E+00 0. -1.
      99926    2    1    2    0    0 -0.71054273576E-14  0.00000000000E+00 -0.91829573635E+03  0.10213107977E+04  0.44699964894E+03 0.  0.
      99925    2    3    3    0    0  0.63644740878E+02 -0.29904563777E+02 -0.76178907331E+03  0.80897432029E+03  0.26300555638E+03 0.  0.
         25    1    3    3    0    0 -0.63644740878E+02  0.29904563777E+02 -0.15650666304E+03  0.21233647744E+03  0.12509000000E+03 0.  0.
         25    1    4    4    0    0  0.67951944657E+02 -0.29544376028E+02 -0.36412723689E+03  0.39207969813E+03  0.12509000000E+03 0.  0.
         25    1    4    4    0    0 -0.43072037793E+01 -0.36018774932E+00 -0.39766183642E+03  0.41689462216E+03  0.12509000000E+03 0.  0.
<mgrwt>
<rscale>  2 0.44699965E+03</rscale>
<asrwt>0</asrwt>
<pdfrwt beam="1">  1       21 0.75746369E-02 0.44699965E+03</pdfrwt>
<pdfrwt beam="2">  1       21 0.14261813E+00 0.44699965E+03</pdfrwt>
<totfact> 0.40840003E+04</totfact>
</mgrwt>
</event>
<event>
 7    0  0.4712189E-002  0.4688858E+03  0.7546771E-02  0.1022235E+00
         21   -1    0    0  502  501  0.00000000000E+00  0.00000000000E+00  0.80697848350E+02  0.80697848350E+02  0.00000000000E+00 0.  1.
         21   -1    0    0  501  502 -0.00000000000E+00 -0.00000000000E+00 -0.68110217803E+03  0.68110217803E+03  0.00000000000E+00 0.  1.
      99926    2    1    2    0    0  0.00000000000E+00  0.00000000000E+00 -0.60040432968E+03  0.76180002637E+03  0.46888582948E+03 0.  0.
      99925    2    3    3    0    0 -0.64172232255E+02  0.10722671140E+03 -0.39639902664E+03  0.49183463082E+03  0.26297047880E+03 0.  0.
         25    1    4    4    0    0 -0.50629010950E+02  0.47768455286E+02 -0.26095335605E+03  0.29763952057E+03  0.12509000000E+03 0.  0.
         25    1    4    4    0    0 -0.13543221305E+02  0.59458256117E+02 -0.13544567059E+03  0.19419511025E+03  0.12509000000E+03 0.  0.
         25    1    3    3    0    0  0.64172232255E+02 -0.10722671140E+03 -0.20400530303E+03  0.26996539556E+03  0.12509000000E+03 0.  0.
<mgrwt>
<rscale>  2 0.46888583E+03</rscale>
<asrwt>0</asrwt>
<pdfrwt beam="1">  1       21 0.11867331E-01 0.46888583E+03</pdfrwt>
<pdfrwt beam="2">  1       21 0.10016208E+00 0.46888583E+03</pdfrwt>
<totfact> 0.44602711E+04</totfact>
</mgrwt>
</event>
<event>
 7    0  0.4712189E-002  0.4516627E+03  0.7546771E-02  0.1027227E+00
         21   -1    0    0  502  501  0.00000000000E+00  0.00000000000E+00  0.64278523351E+03  0.64278523351E+03  0.00000000000E+00 0. -1.
         21   -1    0    0  501  502 -0.00000000000E+00 -0.00000000000E+00 -0.79341899737E+02  0.79341899737E+02  0.00000000000E+00 0. -1.
      99926    2    1    2    0    0 -0.35527136788E-14  0.00000000000E+00  0.56344333377E+03  0.72212713324E+03  0.45166271287E+03 0.  0.
      99925    2    3    3    0    0  0.29739041475E+02  0.66724394632E+02  0.22250684185E+03  0.35169258430E+03  0.26237725465E+03 0.  0.
         25    1    3    3    0    0 -0.29739041475E+02 -0.66724394632E+02  0.34093649192E+03  0.37043454894E+03  0.12509000000E+03 0.  0.
         25    1    4    4    0    0  0.83251448754E+01  0.63068435358E+02  0.15030617947E+03  0.20563655137E+03  0.12509000000E+03 0.  0.
         25    1    4    4    0    0  0.21413896600E+02  0.36559592743E+01  0.72200662382E+02  0.14605603293E+03  0.12509000000E+03 0.  0.
<mgrwt>
<rscale>  2 0.45166271E+03</rscale>
<asrwt>0</asrwt>
<pdfrwt beam="1">  1       21 0.94527238E-01 0.45166271E+03</pdfrwt>
<pdfrwt beam="2">  1       21 0.11667927E-01 0.45166271E+03</pdfrwt>
<totfact> 0.53098110E+04</totfact>
</mgrwt>
</event>
<event>
 7    0  0.4712189E-002  0.4576310E+03  0.7546771E-02  0.1025471E+00
         21   -1    0    0  502  501  0.00000000000E+00  0.00000000000E+00  0.11556576570E+03  0.11556576570E+03  0.00000000000E+00 0.  1.
         21   -1    0    0  501  502 -0.00000000000E+00 -0.00000000000E+00 -0.45304529365E+03  0.45304529365E+03  0.00000000000E+00 0.  1.
      99926    2    1    2    0    0  0.00000000000E+00  0.00000000000E+00 -0.33747952795E+03  0.56861105935E+03  0.45763097035E+03 0.  0.
      99925    2    3    3    0    0 -0.11235311931E+03  0.18935227726E+02 -0.18843198754E+03  0.34312393406E+03  0.26314568955E+03 0.  0.
         25    1    3    3    0    0  0.11235311931E+03 -0.18935227726E+02 -0.14904754041E+03  0.22548712529E+03  0.12509000000E+03 0.  0.
         25    1    4    4    0    0 -0.37697584443E+02 -0.23910043298E+02 -0.10865088360E+03  0.17159638880E+03  0.12509000000E+03 0.  0.
         25    1    4    4    0    0 -0.74655534868E+02  0.42845271024E+02 -0.79781103939E+02  0.17152754526E+03  0.12509000000E+03 0.  0.
<mgrwt>
<rscale>  2 0.45763097E+03</rscale>
<asrwt>0</asrwt>
<pdfrwt beam="1">  1       21 0.16994966E-01 0.45763097E+03</pdfrwt>
<pdfrwt beam="2">  1       21 0.66624307E-01 0.45763097E+03</pdfrwt>
<totfact> 0.59407450E+04</totfact>
</mgrwt>
</event>
<event>
 7    0  0.4712189E-002  0.4593128E+03  0.7546771E-02  0.1024981E+00
         21   -1    0    0  502  501  0.00000000000E+00  0.00000000000E+00  0.30570643573E+03  0.30570643573E+03  0.00000000000E+00 0.  1.
         21   -1    0    0  501  502 -0.00000000000E+00 -0.00000000000E+00 -0.17252516397E+03  0.17252516397E+03  0.00000000000E+00 0.  1.
      99926    2    1    2    0    0  0.88817841970E-15 -0.14210854715E-13  0.13318127176E+03  0.47823159970E+03  0.45931276033E+03 0.  0.
      99925    2    3    3    0    0 -0.26250796656E+01 -0.10112887710E+03  0.21949498341E+02  0.28264541321E+03  0.26300704991E+03 0.  0.
         25    1    4    4    0    0  0.14728542635E+02 -0.53338577285E+02  0.48320060730E+02  0.14506643362E+03  0.12509000000E+03 0.  0.
         25    1    4    4    0    0 -0.17353622301E+02 -0.47790299817E+02 -0.26370562389E+02  0.13757897959E+03  0.12509000000E+03 0.  0.
         25    1    3    3    0    0  0.26250796656E+01  0.10112887710E+03  0.11123177342E+03  0.19558618649E+03  0.12509000000E+03 0.  0.
<mgrwt>
<rscale>  2 0.45931276E+03</rscale>
<asrwt>0</asrwt>
<pdfrwt beam="1">  1       21 0.44956829E-01 0.45931276E+03</pdfrwt>
<pdfrwt beam="2">  1       21 0.25371348E-01 0.45931276E+03</pdfrwt>
<totfact> 0.64589904E+04</totfact>
</mgrwt>
</event>
<event>
 7    0  0.4712189E-002  0.4567887E+03  0.7546771E-02  0.1025717E+00
         21   -1    0    0  502  501  0.00000000000E+00  0.00000000000E+00  0.33461450118E+02  0.33461450118E+02  0.00000000000E+00 0.  1.
         21   -1    0    0  501  502 -0.00000000000E+00 -0.00000000000E+00 -0.15589275882E+04  0.15589275882E+04  0.00000000000E+00 0.  1.
      99926    2    1    2    0    0 -0.35527136788E-14 -0.71054273576E-14 -0.15254661381E+04  0.15923890383E+04  0.45678869395E+03 0.  0.
      99925    2    3    3    0    0 -0.29508192503E+02 -0.54903638486E+02 -0.62156193647E+03  0.67774404887E+03  0.26289277654E+03 0.  0.
         25    1    3    3    0    0  0.29508192503E+02  0.54903638486E+02 -0.90390420163E+03  0.91464498947E+03  0.12509000000E+03 0.  0.
         25    1    4    4    0    0  0.12325334594E+02 -0.11129402365E+01 -0.25024221593E+03  0.28003897451E+03  0.12509000000E+03 0.  0.
         25    1    4    4    0    0 -0.41833527097E+02 -0.53790698249E+02 -0.37131972054E+03  0.39770507436E+03  0.12509000000E+03 0.  0.
<mgrwt>
<rscale>  2 0.45678869E+03</rscale>
<asrwt>0</asrwt>
<pdfrwt beam="1">  1       21 0.49208009E-02 0.45678869E+03</pdfrwt>
<pdfrwt beam="2">  1       21 0.22925408E+00 0.45678869E+03</pdfrwt>
<totfact> 0.21304858E+04</totfact>
</mgrwt>
</event>
<event>
 7    0  0.4712189E-002  0.4577991E+03  0.7546771E-02  0.1025421E+00
         21   -1    0    0  502  501  0.00000000000E+00  0.00000000000E+00  0.11872136682E+03  0.11872136682E+03  0.00000000000E+00 0. -1.
         21   -1    0    0  501  502 -0.00000000000E+00 -0.00000000000E+00 -0.44132753089E+03  0.44132753089E+03  0.00000000000E+00 0. -1.
      99926    2    1    2    0    0  0.28421709430E-13 -0.35527136788E-14 -0.32260616408E+03  0.56004889771E+03  0.45779911612E+03 0.  0.
      99925    2    3    3    0    0  0.97687958430E+02 -0.16802393459E+02 -0.27635144456E+03  0.39387951176E+03  0.26257511540E+03 0.  0.
         25    1    3    3    0    0 -0.97687958430E+02  0.16802393459E+02 -0.46254719524E+02  0.16616938595E+03  0.12509000000E+03 0.  0.
         25    1    4    4    0    0  0.73291313669E+02 -0.38383104656E+02 -0.16809423585E+03  0.22527329981E+03  0.12509000000E+03 0.  0.
         25    1    4    4    0    0  0.24396644761E+02  0.21580711196E+02 -0.10825720871E+03  0.16860621195E+03  0.12509000000E+03 0.  0.
<mgrwt>
<rscale>  2 0.45779912E+03</rscale>
<asrwt>0</asrwt>
<pdfrwt beam="1">  1       21 0.17459024E-01 0.45779912E+03</pdfrwt>
<pdfrwt beam="2">  1       21 0.64901108E-01 0.45779912E+03</pdfrwt>
<totfact> 0.59870680E+04</totfact>
</mgrwt>
</event>
<event>
 7    0  0.4712189E-002  0.4531519E+03  0.7546771E-02  0.1026786E+00
         21   -1    0    0  502  501  0.00000000000E+00  0.00000000000E+00  0.11317210228E+03  0.11317210228E+03  0.00000000000E+00 0.  1.
         21   -1    0    0  501  502 -0.00000000000E+00 -0.00000000000E+00 -0.45361587068E+03  0.45361587068E+03  0.00000000000E+00 0.  1.
      99926    2    1    2    0    0  0.00000000000E+00  0.77715611724E-15 -0.34044376840E+03  0.56678797296E+03  0.45315190262E+03 0.  0.
      99925    2    3    3    0    0  0.62045662704E+02  0.19680533770E+00 -0.33025876561E+03  0.42678459666E+03  0.26310556189E+03 0.  0.
         25    1    4    4    0    0  0.55761381654E+02 -0.15176205571E+02 -0.12614725351E+03  0.18681618390E+03  0.12509000000E+03 0.  0.
         25    1    3    3    0    0 -0.62045662704E+02 -0.19680533770E+00 -0.10185002792E+02  0.14000337630E+03  0.12509000000E+03 0.  0.
         25    1    4    4    0    0  0.62842810505E+01  0.15373010908E+02 -0.20411151210E+03  0.23996841276E+03  0.12509000000E+03 0.  0.
<mgrwt>
<rscale>  2 0.45315190E+03</rscale>
<asrwt>0</asrwt>
<pdfrwt beam="1">  1       21 0.16642957E-01 0.45315190E+03</pdfrwt>
<pdfrwt beam="2">  1       21 0.66708215E-01 0.45315190E+03</pdfrwt>
<totfact> 0.61666961E+04</totfact>
</mgrwt>
</event>
<event>
 7    0  0.4712189E-002  0.4514171E+03  0.7546771E-02  0.1027300E+00
         21   -1    0    0  502  501  0.00000000000E+00  0.00000000000E+00  0.37730615353E+03  0.37730615353E+03  0.00000000000E+00 0.  1.
         21   -1    0    0  501  502 -0.00000000000E+00 -0.00000000000E+00 -0.13502126086E+03  0.13502126086E+03  0.00000000000E+00 0.  1.
      99926    2    1    2    0    0  0.35527136788E-14  0.00000000000E+00  0.24228489268E+03  0.51232741439E+03  0.45141711345E+03 0.  0.
      99925    2    3    3    0    0  0.29470077770E+02  0.74642420078E+02  0.67790192949E+02  0.28312033620E+03  0.26290994305E+03 0.  0.
         25    1    4    4    0    0  0.44914364462E+02  0.23687378059E+02  0.57635238937E+02  0.14679141965E+03  0.12509000000E+03 0.  0.
         25    1    3    3    0    0 -0.29470077770E+02 -0.74642420078E+02  0.17449469973E+03  0.22920707819E+03  0.12509000000E+03 0.  0.
         25    1    4    4    0    0 -0.15444286692E+02  0.50955042020E+02  0.10154954012E+02  0.13632891656E+03  0.12509000000E+03 0.  0.
<mgrwt>
<rscale>  2 0.45141711E+03</rscale>
<asrwt>0</asrwt>
<pdfrwt beam="1">  1       21 0.55486199E-01 0.45141711E+03</pdfrwt>
<pdfrwt beam="2">  1       21 0.19856068E-01 0.45141711E+03</pdfrwt>
<totfact> 0.66277400E+04</totfact>
</mgrwt>
</event>
<event>
 7    0  0.4712189E-002  0.4048358E+03  0.7546771E-02  0.1042118E+00
         21   -1    0    0  502  501  0.00000000000E+00  0.00000000000E+00  0.12989256563E+04  0.12989256563E+04  0.00000000000E+00 0.  1.
         21   -1    0    0  501  502 -0.00000000000E+00 -0.00000000000E+00 -0.31543765627E+02  0.31543765627E+02  0.00000000000E+00 0.  1.
      99926    2    1    2    0    0  0.88817841970E-15  0.00000000000E+00  0.12673818906E+04  0.13304694219E+04  0.40483580113E+03 0.  0.
      99925    2    3    3    0    0  0.79378310211E+01  0.31206210353E+02  0.69765377807E+03  0.74628240810E+03  0.26302053507E+03 0.  0.
         25    1    4    4    0    0 -0.75915819670E+01  0.54368979861E+02  0.37504986638E+03  0.39915351491E+03  0.12509000000E+03 0.  0.
         25    1    3    3    0    0 -0.79378310211E+01 -0.31206210353E+02  0.56972811258E+03  0.58418701380E+03  0.12509000000E+03 0.  0.
         25    1    4    4    0    0  0.15529412988E+02 -0.23162769508E+02  0.32260391168E+03  0.34712889320E+03  0.12509000000E+03 0.  0.
<mgrwt>
<rscale>  2 0.40483580E+03</rscale>
<asrwt>0</asrwt>
<pdfrwt beam="1">  1       21 0.19101844E+00 0.40483580E+03</pdfrwt>
<pdfrwt beam="2">  1       21 0.46387899E-02 0.40483580E+03</pdfrwt>
<totfact> 0.42588893E+04</totfact>
</mgrwt>
</event>
<event>
 7    0  0.4712189E-002  0.4751748E+03  0.7546771E-02  0.1020470E+00
         21   -1    0    0  502  501  0.00000000000E+00  0.00000000000E+00  0.10009841363E+03  0.10009841363E+03  0.00000000000E+00 0.  1.
         21   -1    0    0  501  502 -0.00000000000E+00 -0.00000000000E+00 -0.56392281546E+03  0.56392281546E+03  0.00000000000E+00 0.  1.
      99926    2    1    2    0    0  0.00000000000E+00  0.00000000000E+00 -0.46382440184E+03  0.66402122909E+03  0.47517482776E+03 0.  0.
      99925    2    3    3    0    0  0.73017860867E+02  0.92260809949E+02 -0.20684704163E+03  0.35494431824E+03  0.26335547339E+03 0.  0.
         25    1    4    4    0    0  0.45699764199E+02  0.74812917353E+01 -0.11422849799E+03  0.17561348475E+03  0.12509000000E+03 0.  0.
         25    1    4    4    0    0  0.27318096669E+02  0.84779518214E+02 -0.92618543636E+02  0.17933083349E+03  0.12509000000E+03 0.  0.
         25    1    3    3    0    0 -0.73017860867E+02 -0.92260809949E+02 -0.25697736021E+03  0.30907691085E+03  0.12509000000E+03 0.  0.
<mgrwt>
<rscale>  2 0.47517483E+03</rscale>
<asrwt>0</asrwt>
<pdfrwt beam="1">  1       21 0.14720355E-01 0.47517483E+03</pdfrwt>
<pdfrwt beam="2">  1       21 0.82929825E-01 0.47517483E+03</pdfrwt>
<totfact> 0.46969247E+04</totfact>
</mgrwt>
</event>
<event>
 7    0  0.4712189E-002  0.4565806E+03  0.7546771E-02  0.1025778E+00
         21   -1    0    0  502  501  0.00000000000E+00  0.00000000000E+00  0.14691909633E+03  0.14691909633E+03  0.00000000000E+00 0.  1.
         21   -1    0    0  501  502 -0.00000000000E+00 -0.00000000000E+00 -0.35472905347E+03  0.35472905347E+03  0.00000000000E+00 0.  1.
      99926    2    1    2    0    0  0.14210854715E-13 -0.17763568394E-14 -0.20780995714E+03  0.50164814980E+03  0.45658064777E+03 0.  0.
      99925    2    3    3    0    0  0.11029617221E+03 -0.14033824179E+02 -0.15476827041E+03  0.32608299821E+03  0.26460292963E+03 0.  0.
         25    1    3    3    0    0 -0.11029617221E+03  0.14033824179E+02 -0.53041686729E+02  0.17556515160E+03  0.12509000000E+03 0.  0.
         25    1    4    4    0    0  0.99850156159E+02 -0.17496068418E+02 -0.95800706295E+02  0.18735380840E+03  0.12509000000E+03 0.  0.
         25    1    4    4    0    0  0.10446016048E+02  0.34622442382E+01 -0.58967564117E+02  0.13872918981E+03  0.12509000000E+03 0.  0.
<mgrwt>
<rscale>  2 0.45658065E+03</rscale>
<asrwt>0</asrwt>
<pdfrwt beam="1">  1       21 0.21605750E-01 0.45658065E+03</pdfrwt>
<pdfrwt beam="2">  1       21 0.52166036E-01 0.45658065E+03</pdfrwt>
<totfact> 0.64343902E+04</totfact>
</mgrwt>
</event>
<event>
 7    0  0.4712189E-002  0.4525724E+03  0.7546771E-02  0.1026958E+00
         21   -1    0    0  502  501  0.00000000000E+00  0.00000000000E+00  0.92071969041E+02  0.92071969041E+02  0.00000000000E+00 0.  1.
         21   -1    0    0  501  502 -0.00000000000E+00 -0.00000000000E+00 -0.55614580332E+03  0.55614580332E+03  0.00000000000E+00 0.  1.
      99926    2    1    2    0    0  0.00000000000E+00  0.00000000000E+00 -0.46407383428E+03  0.64821777237E+03  0.45257237735E+03 0.  0.
      99925    2    3    3    0    0  0.10239196953E+03 -0.17525846411E+02 -0.23743315517E+03  0.36928269705E+03  0.26306641071E+03 0.  0.
         25    1    3    3    0    0 -0.10239196953E+03  0.17525846411E+02 -0.22664067911E+03  0.27893507532E+03  0.12509000000E+03 0.  0.
         25    1    4    4    0    0  0.59171086950E+02 -0.11306019165E+02 -0.69166200171E+02  0.15511452204E+03  0.12509000000E+03 0.  0.
         25    1    4    4    0    0  0.43220882577E+02 -0.62198272457E+01 -0.16826695500E+03  0.21416817501E+03  0.12509000000E+03 0.  0.
<mgrwt>
<rscale>  2 0.45257238E+03</rscale>
<asrwt>0</asrwt>
<pdfrwt beam="1">  1       21 0.13539995E-01 0.45257238E+03</pdfrwt>
<pdfrwt beam="2">  1       21 0.81786148E-01 0.45257238E+03</pdfrwt>
<totfact> 0.56885965E+04</totfact>
</mgrwt>
</event>
<event>
 7    0  0.4712189E-002  0.4268106E+03  0.7546771E-02  0.1034872E+00
         21   -1    0    0  502  501  0.00000000000E+00  0.00000000000E+00  0.81995663579E+02  0.81995663579E+02  0.00000000000E+00 0. -1.
         21   -1    0    0  501  502 -0.00000000000E+00 -0.00000000000E+00 -0.55541743574E+03  0.55541743574E+03  0.00000000000E+00 0. -1.
      99926    2    1    2    0    0  0.00000000000E+00 -0.35527136788E-14 -0.47342177216E+03  0.63741309932E+03  0.42681059597E+03 0.  0.
      99925    2    3    3    0    0  0.22598107903E+02 -0.21727780362E+02 -0.42275781718E+03  0.49885944417E+03  0.26297110513E+03 0.  0.
         25    1    3    3    0    0 -0.22598107903E+02  0.21727780362E+02 -0.50663954984E+02  0.13855365515E+03  0.12509000000E+03 0.  0.
         25    1    4    4    0    0 -0.15671569837E+02  0.19733410675E+02 -0.20238542297E+03  0.23925378394E+03  0.12509000000E+03 0.  0.
         25    1    4    4    0    0  0.38269677740E+02 -0.41461191037E+02 -0.22037239420E+03  0.25960566023E+03  0.12509000000E+03 0.  0.
<mgrwt>
<rscale>  2 0.42681060E+03</rscale>
<asrwt>0</asrwt>
<pdfrwt beam="1">  1       21 0.12058186E-01 0.42681060E+03</pdfrwt>
<pdfrwt beam="2">  1       21 0.81679034E-01 0.42681060E+03</pdfrwt>
<totfact> 0.70938413E+04</totfact>
</mgrwt>
</event>
<event>
 7    0  0.4712189E-002  0.4576669E+03  0.7546771E-02  0.1025460E+00
         21   -1    0    0  502  501  0.00000000000E+00  0.00000000000E+00  0.18845697745E+03  0.18845697745E+03  0.00000000000E+00 0. -1.
         21   -1    0    0  501  502 -0.00000000000E+00 -0.00000000000E+00 -0.27786046201E+03  0.27786046201E+03  0.00000000000E+00 0. -1.
      99926    2    1    2    0    0  0.00000000000E+00  0.00000000000E+00 -0.89403484558E+02  0.46631743946E+03  0.45766687809E+03 0.  0.
      99925    2    3    3    0    0  0.10612171595E+03 -0.16090167205E+02 -0.10013601576E+03  0.30114054216E+03  0.26294047311E+03 0.  0.
         25    1    4    4    0    0  0.18746361482E+02  0.13151907690E+02 -0.29876909498E+02  0.13063130010E+03  0.12509000000E+03 0.  0.
         25    1    4    4    0    0  0.87375354472E+02 -0.29242074894E+02 -0.70259106267E+02  0.17050924206E+03  0.12509000000E+03 0.  0.
         25    1    3    3    0    0 -0.10612171595E+03  0.16090167205E+02  0.10732531207E+02  0.16517689731E+03  0.12509000000E+03 0.  0.
<mgrwt>
<rscale>  2 0.45766688E+03</rscale>
<asrwt>0</asrwt>
<pdfrwt beam="1">  1       21 0.27714262E-01 0.45766688E+03</pdfrwt>
<pdfrwt beam="2">  1       21 0.40861832E-01 0.45766688E+03</pdfrwt>
<totfact> 0.66295889E+04</totfact>
</mgrwt>
</event>
<event>
 7    0  0.4712189E-002  0.3966445E+03  0.7546771E-02  0.1044948E+00
         21   -1    0    0  502  501  0.00000000000E+00  0.00000000000E+00  0.16543185489E+03  0.16543185489E+03  0.00000000000E+00 0.  1.
         21   -1    0    0  501  502 -0.00000000000E+00 -0.00000000000E+00 -0.23775181043E+03  0.23775181043E+03  0.00000000000E+00 0.  1.
      99926    2    1    2    0    0  0.00000000000E+00  0.00000000000E+00 -0.72319955540E+02  0.40318366531E+03  0.39664454113E+03 0.  0.
      99925    2    3    3    0    0  0.28230166836E+02 -0.24916560747E+02 -0.40905910585E+02  0.26882545887E+03  0.26301341505E+03 0.  0.
         25    1    4    4    0    0  0.44370114973E+02 -0.59997178254E+01 -0.47551726806E+02  0.14111477080E+03  0.12509000000E+03 0.  0.
         25    1    4    4    0    0 -0.16139948137E+02 -0.18916842922E+02  0.66458162214E+01  0.12771068806E+03  0.12509000000E+03 0.  0.
         25    1    3    3    0    0 -0.28230166836E+02  0.24916560747E+02 -0.31414044955E+02  0.13435820645E+03  0.12509000000E+03 0.  0.
<mgrwt>
<rscale>  2 0.39664454E+03</rscale>
<asrwt>0</asrwt>
<pdfrwt beam="1">  1       21 0.24328214E-01 0.39664454E+03</pdfrwt>
<pdfrwt beam="2">  1       21 0.34963501E-01 0.39664454E+03</pdfrwt>
<totfact> 0.11897626E+05</totfact>
</mgrwt>
</event>
<event>
 7    0  0.4712189E-002  0.4554414E+03  0.7546771E-02  0.1026112E+00
         21   -1    0    0  502  501  0.00000000000E+00  0.00000000000E+00  0.60353090686E+03  0.60353090686E+03  0.00000000000E+00 0.  1.
         21   -1    0    0  501  502 -0.00000000000E+00 -0.00000000000E+00 -0.85922241462E+02  0.85922241462E+02  0.00000000000E+00 0.  1.
      99926    2    1    2    0    0  0.00000000000E+00  0.00000000000E+00  0.51760866539E+03  0.68945314832E+03  0.45544144875E+03 0.  0.
      99925    2    3    3    0    0  0.10144074377E+03 -0.44303482272E+02  0.28744342653E+03  0.40506508894E+03  0.26306079104E+03 0.  0.
         25    1    3    3    0    0 -0.10144074377E+03  0.44303482272E+02  0.23016523886E+03  0.28438805938E+03  0.12509000000E+03 0.  0.
         25    1    4    4    0    0  0.80739878608E+02  0.20501615652E+01  0.12994013333E+03  0.19762357529E+03  0.12509000000E+03 0.  0.
         25    1    4    4    0    0  0.20700865162E+02 -0.46353643838E+02  0.15750329320E+03  0.20744151365E+03  0.12509000000E+03 0.  0.
<mgrwt>
<rscale>  2 0.45544145E+03</rscale>
<asrwt>0</asrwt>
<pdfrwt beam="1">  1       21 0.88754543E-01 0.45544145E+03</pdfrwt>
<pdfrwt beam="2">  1       21 0.12635624E-01 0.45544145E+03</pdfrwt>
<totfact> 0.53294003E+04</totfact>
</mgrwt>
</event>
<event>
 7    0  0.4712189E-002  0.4561276E+03  0.7546771E-02  0.1025910E+00
         21   -1    0    0  502  501  0.00000000000E+00  0.00000000000E+00  0.20288714768E+03  0.20288714768E+03  0.00000000000E+00 0. -1.
         21   -1    0    0  501  502 -0.00000000000E+00 -0.00000000000E+00 -0.25636465260E+03  0.25636465260E+03  0.00000000000E+00 0. -1.
      99926    2    1    2    0    0  0.71054273576E-14  0.71054273576E-14 -0.53477504916E+02  0.45925180028E+03  0.45612758361E+03 0.  0.
      99925    2    3    3    0    0 -0.57287432794E+02  0.56658400525E+02  0.48194741870E+02  0.27903865378E+03  0.26276950518E+03 0.  0.
         25    1    3    3    0    0  0.57287432794E+02 -0.56658400525E+02 -0.10167224679E+03  0.18021314650E+03  0.12509000000E+03 0.  0.
         25    1    4    4    0    0 -0.18391929836E+02 -0.51077434701E+01  0.44590953972E+02  0.13416487395E+03  0.12509000000E+03 0.  0.
         25    1    4    4    0    0 -0.38895502957E+02  0.61766143995E+02  0.36037878980E+01  0.14487377983E+03  0.12509000000E+03 0.  0.
<mgrwt>
<rscale>  2 0.45612758E+03</rscale>
<asrwt>0</asrwt>
<pdfrwt beam="1">  1       21 0.29836345E-01 0.45612758E+03</pdfrwt>
<pdfrwt beam="2">  1       21 0.37700684E-01 0.45612758E+03</pdfrwt>
<totfact> 0.67624899E+04</totfact>
</mgrwt>
</event>
<event>
 7    0  0.4712189E-002  0.4019641E+03  0.7546771E-02  0.1043102E+00
         21   -1    0    0  502  501  0.00000000000E+00  0.00000000000E+00  0.57136776528E+02  0.57136776528E+02  0.00000000000E+00 0. -1.
         21   -1    0    0  501  502 -0.00000000000E+00 -0.00000000000E+00 -0.70696647574E+03  0.70696647574E+03  0.00000000000E+00 0. -1.
      99926    2    1    2    0    0  0.00000000000E+00  0.00000000000E+00 -0.64982969921E+03  0.76410325227E+03  0.40196410555E+03 0.  0.
      99925    2    3    3    0    0  0.41249590366E+02 -0.23859589792E+02 -0.45634033015E+03  0.52882373176E+03  0.26293960071E+03 0.  0.
         25    1    4    4    0    0 -0.16800711482E+01 -0.87241417322E+01 -0.28870468701E+03  0.31476473387E+03  0.12509000000E+03 0.  0.
         25    1    4    4    0    0  0.42929661515E+02 -0.15135448060E+02 -0.16763564314E+03  0.21405899788E+03  0.12509000000E+03 0.  0.
         25    1    3    3    0    0 -0.41249590366E+02  0.23859589792E+02 -0.19348936906E+03  0.23527952051E+03  0.12509000000E+03 0.  0.
<mgrwt>
<rscale>  2 0.40196411E+03</rscale>
<asrwt>0</asrwt>
<pdfrwt beam="1">  1       21 0.84024675E-02 0.40196411E+03</pdfrwt>
<pdfrwt beam="2">  1       21 0.10396565E+00 0.40196411E+03</pdfrwt>
<totfact> 0.76918015E+04</totfact>
</mgrwt>
</event>
<event>
 7    0  0.4712189E-002  0.4517344E+03  0.7546771E-02  0.1027206E+00
         21   -1    0    0  502  501  0.00000000000E+00  0.00000000000E+00  0.35742108547E+03  0.35742108547E+03  0.00000000000E+00 0. -1.
         21   -1    0    0  501  502 -0.00000000000E+00 -0.00000000000E+00 -0.14273359501E+03  0.14273359501E+03  0.00000000000E+00 0. -1.
      99926    2    1    2    0    0  0.00000000000E+00 -0.99920072216E-15  0.21468749047E+03  0.50015468048E+03  0.45173441959E+03 0.  0.
      99925    2    3    3    0    0 -0.48948750739E+02  0.74360033025E+00  0.26332889530E+02  0.26880754534E+03  0.26299722855E+03 0.  0.
         25    1    3    3    0    0  0.48948750739E+02 -0.74360033025E+00  0.18835460094E+03  0.23134713513E+03  0.12509000000E+03 0.  0.
         25    1    4    4    0    0 -0.49451556689E+02  0.32309477616E+02  0.88896453533E+01  0.13862140057E+03  0.12509000000E+03 0.  0.
         25    1    4    4    0    0  0.50280595011E+00 -0.31565877285E+02  0.17443244177E+02  0.13018614477E+03  0.12509000000E+03 0.  0.
<mgrwt>
<rscale>  2 0.45173442E+03</rscale>
<asrwt>0</asrwt>
<pdfrwt beam="1">  1       21 0.52561924E-01 0.45173442E+03</pdfrwt>
<pdfrwt beam="2">  1       21 0.20990235E-01 0.45173442E+03</pdfrwt>
<totfact> 0.66979228E+04</totfact>
</mgrwt>
</event>
<event>
 7    0  0.4712189E-002  0.4523681E+03  0.7546771E-02  0.1027018E+00
         21   -1    0    0  502  501  0.00000000000E+00  0.00000000000E+00  0.32294856774E+03  0.32294856774E+03  0.00000000000E+00 0. -1.
         21   -1    0    0  501  502 -0.00000000000E+00 -0.00000000000E+00 -0.15841288615E+03  0.15841288615E+03  0.00000000000E+00 0. -1.
      99926    2    1    2    0    0  0.88817841970E-15  0.00000000000E+00  0.16453568159E+03  0.48136145389E+03  0.45236805675E+03 0.  0.
      99925    2    3    3    0    0  0.76184055269E+01 -0.60975352710E+02  0.62243296527E+01  0.27044434696E+03  0.26329711124E+03 0.  0.
         25    1    4    4    0    0  0.29164634003E+02 -0.14189226210E+02  0.31052584092E+02  0.13290478207E+03  0.12509000000E+03 0.  0.
         25    1    3    3    0    0 -0.76184055269E+01  0.60975352710E+02  0.15831135193E+03  0.21091710692E+03  0.12509000000E+03 0.  0.
         25    1    4    4    0    0 -0.21546228476E+02 -0.46786126500E+02 -0.24828254439E+02  0.13753956490E+03  0.12509000000E+03 0.  0.
<mgrwt>
<rscale>  2 0.45236806E+03</rscale>
<asrwt>0</asrwt>
<pdfrwt beam="1">  1       21 0.47492436E-01 0.45236806E+03</pdfrwt>
<pdfrwt beam="2">  1       21 0.23296013E-01 0.45236806E+03</pdfrwt>
<totfact> 0.68010981E+04</totfact>
</mgrwt>
</event>
<event>
 7    0  0.4712189E-002  0.4549454E+03  0.7546771E-02  0.1026257E+00
         21   -1    0    0  502  501  0.00000000000E+00  0.00000000000E+00  0.10366377474E+03  0.10366377474E+03  0.00000000000E+00 0.  1.
         21   -1    0    0  501  502 -0.00000000000E+00 -0.00000000000E+00 -0.49915064919E+03  0.49915064919E+03  0.00000000000E+00 0.  1.
      99926    2    1    2    0    0  0.00000000000E+00  0.35527136788E-14 -0.39548687445E+03  0.60281442392E+03  0.45494544929E+03 0.  0.
      99925    2    3    3    0    0 -0.10385245067E+03 -0.22105848096E+02 -0.30057490400E+03  0.41326287351E+03  0.26299606399E+03 0.  0.
         25    1    4    4    0    0 -0.92151759942E+02 -0.13837410836E+02 -0.14347093412E+03  0.21193121015E+03  0.12509000000E+03 0.  0.
         25    1    3    3    0    0  0.10385245067E+03  0.22105848096E+02 -0.94911970455E+02  0.18955155042E+03  0.12509000000E+03 0.  0.
         25    1    4    4    0    0 -0.11700690725E+02 -0.82684372595E+01 -0.15710396988E+03  0.20133166336E+03  0.12509000000E+03 0.  0.
<mgrwt>
<rscale>  2 0.45494545E+03</rscale>
<asrwt>0</asrwt>
<pdfrwt beam="1">  1       21 0.15244673E-01 0.45494545E+03</pdfrwt>
<pdfrwt beam="2">  1       21 0.73404508E-01 0.45494545E+03</pdfrwt>
<totfact> 0.58530588E+04</totfact>
</mgrwt>
</event>
<event>
 7    0  0.4712189E-002  0.4560874E+03  0.7546771E-02  0.1025922E+00
         21   -1    0    0  502  501  0.00000000000E+00  0.00000000000E+00  0.36713580686E+02  0.36713580686E+02  0.00000000000E+00 0.  1.
         21   -1    0    0  501  502 -0.00000000000E+00 -0.00000000000E+00 -0.14164767679E+04  0.14164767679E+04  0.00000000000E+00 0.  1.
      99926    2    1    2    0    0  0.88817841970E-15  0.00000000000E+00 -0.13797631872E+04  0.14531903486E+04  0.45608742192E+03 0.  0.
      99925    2    3    3    0    0  0.61275803340E+01 -0.60308029976E+02 -0.55838665927E+03  0.62013481953E+03  0.26286294420E+03 0.  0.
         25    1    4    4    0    0 -0.19387353164E+02 -0.53409263735E+02 -0.34538891901E+03  0.37171149079E+03  0.12509000000E+03 0.  0.
         25    1    3    3    0    0 -0.61275803340E+01  0.60308029976E+02 -0.82137652792E+03  0.83305552903E+03  0.12509000000E+03 0.  0.
         25    1    4    4    0    0  0.25514933498E+02 -0.68987662410E+01 -0.21299774026E+03  0.24842332874E+03  0.12509000000E+03 0.  0.
<mgrwt>
<rscale>  2 0.45608742E+03</rscale>
<asrwt>0</asrwt>
<pdfrwt beam="1">  1       21 0.53990567E-02 0.45608742E+03</pdfrwt>
<pdfrwt beam="2">  1       21 0.20830538E+00 0.45608742E+03</pdfrwt>
<totfact> 0.24738694E+04</totfact>
</mgrwt>
</event>
<event>
 7    0  0.4712189E-002  0.4271316E+03  0.7546771E-02  0.1034770E+00
         21   -1    0    0  502  501  0.00000000000E+00  0.00000000000E+00  0.35881311354E+02  0.35881311354E+02  0.00000000000E+00 0. -1.
         21   -1    0    0  501  502 -0.00000000000E+00 -0.00000000000E+00 -0.12711449133E+04  0.12711449133E+04  0.00000000000E+00 0. -1.
      99926    2    1    2    0    0  0.00000000000E+00  0.00000000000E+00 -0.12352636019E+04  0.13070262246E+04  0.42713157883E+03 0.  0.
      99925    2    3    3    0    0 -0.26063841444E+02  0.27611175934E+02 -0.56812826321E+03  0.62720362342E+03  0.26300753011E+03 0.  0.
         25    1    3    3    0    0  0.26063841444E+02 -0.27611175934E+02 -0.66713533872E+03  0.67982260123E+03  0.12509000000E+03 0.  0.
         25    1    4    4    0    0  0.21156779408E+02  0.21887205944E+02 -0.23044189802E+03  0.26396521658E+03  0.12509000000E+03 0.  0.
         25    1    4    4    0    0 -0.47220620852E+02  0.57239699904E+01 -0.33768636519E+03  0.36323840684E+03  0.12509000000E+03 0.  0.
<mgrwt>
<rscale>  2 0.42713158E+03</rscale>
<asrwt>0</asrwt>
<pdfrwt beam="1">  1       21 0.52766636E-02 0.42713158E+03</pdfrwt>
<pdfrwt beam="2">  1       21 0.18693307E+00 0.42713158E+03</pdfrwt>
<totfact> 0.36129912E+04</totfact>
</mgrwt>
</event>
<event>
 7    0  0.4712189E-002  0.4520803E+03  0.7546771E-02  0.1027103E+00
         21   -1    0    0  502  501  0.00000000000E+00  0.00000000000E+00  0.58658851602E+02  0.58658851602E+02  0.00000000000E+00 0. -1.
         21   -1    0    0  501  502 -0.00000000000E+00 -0.00000000000E+00 -0.87103916881E+03  0.87103916881E+03  0.00000000000E+00 0. -1.
      99926    2    1    2    0    0  0.00000000000E+00 -0.71054273576E-14 -0.81238031721E+03  0.92969802041E+03  0.45208033509E+03 0.  0.
      99925    2    3    3    0    0  0.33605386752E+02  0.52729544919E+02 -0.69969539268E+03  0.75010089560E+03  0.26299806864E+03 0.  0.
         25    1    4    4    0    0  0.35047808047E+02  0.52938153326E+02 -0.29779608293E+03  0.32918203480E+03  0.12509000000E+03 0.  0.
         25    1    4    4    0    0 -0.14424212956E+01 -0.20860840682E+00 -0.40189930975E+03  0.42091886079E+03  0.12509000000E+03 0.  0.
         25    1    3    3    0    0 -0.33605386752E+02 -0.52729544919E+02 -0.11268492453E+03  0.17959712481E+03  0.12509000000E+03 0.  0.
<mgrwt>
<rscale>  2 0.45208034E+03</rscale>
<asrwt>0</asrwt>
<pdfrwt beam="1">  1       21 0.86263022E-02 0.45208034E+03</pdfrwt>
<pdfrwt beam="2">  1       21 0.12809399E+00 0.45208034E+03</pdfrwt>
<totfact> 0.42946417E+04</totfact>
</mgrwt>
</event>
<event>
 7    0  0.4712189E-002  0.4466501E+03  0.7546771E-02  0.1028726E+00
         21   -1    0    0  502  501  0.00000000000E+00  0.00000000000E+00  0.66035870830E+03  0.66035870830E+03  0.00000000000E+00 0.  1.
         21   -1    0    0  501  502 -0.00000000000E+00 -0.00000000000E+00 -0.75525752718E+02  0.75525752718E+02  0.00000000000E+00 0.  1.
      99926    2    1    2    0    0 -0.14210854715E-13  0.00000000000E+00  0.58483295558E+03  0.73588446102E+03  0.44665014725E+03 0.  0.
      99925    2    3    3    0    0  0.99909756184E+02  0.22797971083E+02  0.33207400730E+03  0.43582396562E+03  0.26299748252E+03 0.  0.
         25    1    4    4    0    0  0.85214135983E+02 -0.10872395194E+02  0.18538393214E+03  0.23957121768E+03  0.12509000000E+03 0.  0.
         25    1    3    3    0    0 -0.99909756184E+02 -0.22797971083E+02  0.25275894828E+03  0.30006049540E+03  0.12509000000E+03 0.  0.
         25    1    4    4    0    0  0.14695620201E+02  0.33670366277E+02  0.14669007517E+03  0.19625274793E+03  0.12509000000E+03 0.  0.
<mgrwt>
<rscale>  2 0.44665015E+03</rscale>
<asrwt>0</asrwt>
<pdfrwt beam="1">  1       21 0.97111572E-01 0.44665015E+03</pdfrwt>
<pdfrwt beam="2">  1       21 0.11106729E-01 0.44665015E+03</pdfrwt>
<totfact> 0.54487498E+04</totfact>
</mgrwt>
</event>
<event>
 7    0  0.4712189E-002  0.4491564E+03  0.7546771E-02  0.1027974E+00
         21   -1    0    0  502  501  0.00000000000E+00  0.00000000000E+00  0.29995851519E+03  0.29995851519E+03  0.00000000000E+00 0. -1.
         21   -1    0    0  501  502 -0.00000000000E+00 -0.00000000000E+00 -0.16814116309E+03  0.16814116309E+03  0.00000000000E+00 0. -1.
      99926    2    1    2    0    0  0.00000000000E+00  0.13322676296E-14  0.13181735209E+03  0.46809967828E+03  0.44915642541E+03 0.  0.
      99925    2    3    3    0    0 -0.56047786259E+02  0.34873541331E+01 -0.12449392817E+02  0.26906722422E+03  0.26284723278E+03 0.  0.
         25    1    4    4    0    0 -0.92911117357E+01  0.32341979738E+02  0.12660860535E+02  0.13015426962E+03  0.12509000000E+03 0.  0.
         25    1    3    3    0    0  0.56047786259E+02 -0.34873541331E+01  0.14426674491E+03  0.19903245406E+03  0.12509000000E+03 0.  0.
         25    1    4    4    0    0 -0.46756674523E+02 -0.28854625605E+02 -0.25110253352E+02  0.13891295460E+03  0.12509000000E+03 0.  0.
<mgrwt>
<rscale>  2 0.44915643E+03</rscale>
<asrwt>0</asrwt>
<pdfrwt beam="1">  1       21 0.44111546E-01 0.44915643E+03</pdfrwt>
<pdfrwt beam="2">  1       21 0.24726642E-01 0.44915643E+03</pdfrwt>
<totfact> 0.70803432E+04</totfact>
</mgrwt>
</event>
<event>
 7    0  0.4712189E-002  0.4325039E+03  0.7546771E-02  0.1033072E+00
         21   -1    0    0  502  501  0.00000000000E+00  0.00000000000E+00  0.19582682258E+03  0.19582682258E+03  0.00000000000E+00 0.  1.
         21   -1    0    0  501  502 -0.00000000000E+00 -0.00000000000E+00 -0.23880742661E+03  0.23880742661E+03  0.00000000000E+00 0.  1.
      99926    2    1    2    0    0  0.71054273576E-14  0.00000000000E+00 -0.42980604033E+02  0.43463424920E+03  0.43250387079E+03 0.  0.
      99925    2    3    3    0    0  0.55023654440E+02 -0.69039057496E+02 -0.73282512286E+01  0.27743185619E+03  0.26290823029E+03 0.  0.
         25    1    3    3    0    0 -0.55023654440E+02  0.69039057496E+02 -0.35652352805E+02  0.15720239301E+03  0.12509000000E+03 0.  0.
         25    1    4    4    0    0  0.45835313661E+02 -0.35922529876E+02 -0.39987512223E+02  0.14365866965E+03  0.12509000000E+03 0.  0.
         25    1    4    4    0    0  0.91883407788E+01 -0.33116527620E+02  0.32659260994E+02  0.13377318654E+03  0.12509000000E+03 0.  0.
<mgrwt>
<rscale>  2 0.43250387E+03</rscale>
<asrwt>0</asrwt>
<pdfrwt beam="1">  1       21 0.28798062E-01 0.43250387E+03</pdfrwt>
<pdfrwt beam="2">  1       21 0.35118739E-01 0.43250387E+03</pdfrwt>
<totfact> 0.84190628E+04</totfact>
</mgrwt>
</event>
<event>
 7    0  0.4712189E-002  0.4528842E+03  0.7546771E-02  0.1026865E+00
         21   -1    0    0  502  501  0.00000000000E+00  0.00000000000E+00  0.14265798793E+03  0.14265798793E+03  0.00000000000E+00 0. -1.
         21   -1    0    0  501  502 -0.00000000000E+00 -0.00000000000E+00 -0.35943323126E+03  0.35943323126E+03  0.00000000000E+00 0. -1.
      99926    2    1    2    0    0  0.00000000000E+00 -0.14210854715E-13 -0.21677524332E+03  0.50209121919E+03  0.45288418638E+03 0.  0.
      99925    2    3    3    0    0 -0.60728410444E+02 -0.72507763497E+02 -0.20140942437E+03  0.34451922899E+03  0.26302552598E+03 0.  0.
         25    1    3    3    0    0  0.60728410444E+02  0.72507763497E+02 -0.15365818953E+02  0.15757199020E+03  0.12509000000E+03 0.  0.
         25    1    4    4    0    0  0.60093193764E+01 -0.13599830941E+02 -0.92396320423E+02  0.15622309512E+03  0.12509000000E+03 0.  0.
         25    1    4    4    0    0 -0.66737729820E+02 -0.58907932556E+02 -0.10901310395E+03  0.18829613387E+03  0.12509000000E+03 0.  0.
<mgrwt>
<rscale>  2 0.45288419E+03</rscale>
<asrwt>0</asrwt>
<pdfrwt beam="1">  1       21 0.20979116E-01 0.45288419E+03</pdfrwt>
<pdfrwt beam="2">  1       21 0.52857827E-01 0.45288419E+03</pdfrwt>
<totfact> 0.66229311E+04</totfact>
</mgrwt>
</event>
<event>
 7    0  0.4712189E-002  0.4591322E+03  0.7546771E-02  0.1025033E+00
         21   -1    0    0  502  501  0.00000000000E+00  0.00000000000E+00  0.14155098565E+03  0.14155098565E+03  0.00000000000E+00 0. -1.
         21   -1    0    0  501  502 -0.00000000000E+00 -0.00000000000E+00 -0.37230818563E+03  0.37230818563E+03  0.00000000000E+00 0. -1.
      99926    2    1    2    0    0 -0.88817841970E-15 -0.71054273576E-14 -0.23075719997E+03  0.51385917128E+03  0.45913218420E+03 0.  0.
      99925    2    3    3    0    0 -0.77158914330E+01 -0.43049180993E+02 -0.23238210105E+02  0.26763893202E+03  0.26301676099E+03 0.  0.
         25    1    4    4    0    0 -0.21654876267E+02  0.24983062584E+01 -0.39079080301E+02  0.13285276744E+03  0.12509000000E+03 0.  0.
         25    1    3    3    0    0  0.77158914330E+01  0.43049180993E+02 -0.20751898987E+03  0.24622023926E+03  0.12509000000E+03 0.  0.
         25    1    4    4    0    0  0.13938984834E+02 -0.45547487251E+02  0.15840870196E+02  0.13478616458E+03  0.12509000000E+03 0.  0.
<mgrwt>
<rscale>  2 0.45913218E+03</rscale>
<asrwt>0</asrwt>
<pdfrwt beam="1">  1       21 0.20816322E-01 0.45913218E+03</pdfrwt>
<pdfrwt beam="2">  1       21 0.54751203E-01 0.45913218E+03</pdfrwt>
<totfact> 0.62241326E+04</totfact>
</mgrwt>
</event>
<event>
 7    0  0.4712189E-002  0.4580172E+03  0.7546771E-02  0.1025358E+00
         21   -1    0    0  502  501  0.00000000000E+00  0.00000000000E+00  0.30626423434E+03  0.30626423434E+03  0.00000000000E+00 0.  1.
         21   -1    0    0  501  502 -0.00000000000E+00 -0.00000000000E+00 -0.17124083997E+03  0.17124083997E+03  0.00000000000E+00 0.  1.
      99926    2    1    2    0    0  0.00000000000E+00  0.00000000000E+00  0.13502339437E+03  0.47750507432E+03  0.45801722563E+03 0.  0.
      99925    2    3    3    0    0  0.35881560546E+02 -0.10986082897E+03  0.76800431573E+02  0.29752088160E+03  0.26317955956E+03 0.  0.
         25    1    4    4    0    0 -0.70413959134E+01 -0.56260748182E+02  0.41736414959E+01  0.13740371329E+03  0.12509000000E+03 0.  0.
         25    1    3    3    0    0 -0.35881560546E+02  0.10986082897E+03  0.58222962795E+02  0.17998419271E+03  0.12509000000E+03 0.  0.
         25    1    4    4    0    0  0.42922956459E+02 -0.53600080792E+02  0.72626790077E+02  0.16011716831E+03  0.12509000000E+03 0.  0.
<mgrwt>
<rscale>  2 0.45801723E+03</rscale>
<asrwt>0</asrwt>
<pdfrwt beam="1">  1       21 0.45038858E-01 0.45801723E+03</pdfrwt>
<pdfrwt beam="2">  1       21 0.25182477E-01 0.45801723E+03</pdfrwt>
<totfact> 0.65304387E+04</totfact>
</mgrwt>
</event>
<event>
 7    0  0.4712189E-002  0.4487139E+03  0.7546771E-02  0.1028106E+00
         21   -1    0    0  502  501  0.00000000000E+00  0.00000000000E+00  0.77300385072E+03  0.77300385072E+03  0.00000000000E+00 0. -1.
         21   -1    0    0  501  502 -0.00000000000E+00 -0.00000000000E+00 -0.65117442714E+02  0.65117442714E+02  0.00000000000E+00 0. -1.
      99926    2    1    2    0    0  0.14210854715E-13  0.00000000000E+00  0.70788640800E+03  0.83812129343E+03  0.44871386859E+03 0.  0.
      99925    2    3    3    0    0  0.77672963784E+02 -0.98264761952E+01  0.58478029252E+03  0.64594358217E+03  0.26295526594E+03 0.  0.
         25    1    3    3    0    0 -0.77672963784E+02  0.98264761952E+01  0.12310611548E+03  0.19217771126E+03  0.12509000000E+03 0.  0.
         25    1    4    4    0    0  0.69610166931E+02  0.12449171282E+02  0.25936777731E+03  0.29651257851E+03  0.12509000000E+03 0.  0.
         25    1    4    4    0    0  0.80627968536E+01 -0.22275647477E+02  0.32541251521E+03  0.34943100366E+03  0.12509000000E+03 0.  0.
<mgrwt>
<rscale>  2 0.44871387E+03</rscale>
<asrwt>0</asrwt>
<pdfrwt beam="1">  1       21 0.11367703E+00 0.44871387E+03</pdfrwt>
<pdfrwt beam="2">  1       21 0.95760950E-02 0.44871387E+03</pdfrwt>
<totfact> 0.48314559E+04</totfact>
</mgrwt>
</event>
<event>
 7    0  0.4712189E-002  0.4543893E+03  0.7546771E-02  0.1026421E+00
         21   -1    0    0  502  501  0.00000000000E+00  0.00000000000E+00  0.12414874011E+03  0.12414874011E+03  0.00000000000E+00 0. -1.
         21   -1    0    0  501  502 -0.00000000000E+00 -0.00000000000E+00 -0.41577061551E+03  0.41577061551E+03  0.00000000000E+00 0. -1.
      99926    2    1    2    0    0  0.00000000000E+00 -0.35527136788E-14 -0.29162187540E+03  0.53991935561E+03  0.45438925202E+03 0.  0.
      99925    2    3    3    0    0 -0.10453412622E+02 -0.31786675413E+02 -0.31132219427E+03  0.40894120006E+03  0.26304320916E+03 0.  0.
         25    1    4    4    0    0  0.17671706196E+02  0.75382100271E+01 -0.18879013038E+03  0.22728470084E+03  0.12509000000E+03 0.  0.
         25    1    3    3    0    0  0.10453412622E+02  0.31786675413E+02  0.19700318871E+02  0.13097815556E+03  0.12509000000E+03 0.  0.
         25    1    4    4    0    0 -0.28125118818E+02 -0.39324885440E+02 -0.12253206390E+03  0.18165649921E+03  0.12509000000E+03 0.  0.
<mgrwt>
<rscale>  2 0.45438925E+03</rscale>
<asrwt>0</asrwt>
<pdfrwt beam="1">  1       21 0.18257167E-01 0.45438925E+03</pdfrwt>
<pdfrwt beam="2">  1       21 0.61142739E-01 0.45438925E+03</pdfrwt>
<totfact> 0.62840790E+04</totfact>
</mgrwt>
</event>
<event>
 7    0  0.4712189E-002  0.4472132E+03  0.7546771E-02  0.1028556E+00
         21   -1    0    0  502  501  0.00000000000E+00  0.00000000000E+00  0.74328265636E+03  0.74328265636E+03  0.00000000000E+00 0.  1.
         21   -1    0    0  501  502 -0.00000000000E+00 -0.00000000000E+00 -0.67269055594E+02  0.67269055594E+02  0.00000000000E+00 0.  1.
      99926    2    1    2    0    0  0.00000000000E+00  0.00000000000E+00  0.67601360077E+03  0.81055171195E+03  0.44721324816E+03 0.  0.
      99925    2    3    3    0    0  0.36452309263E+02 -0.77086748635E+02  0.54177490853E+03  0.60821863938E+03  0.26294243496E+03 0.  0.
         25    1    4    4    0    0 -0.12434967536E+02 -0.26826265667E+02  0.20207113892E+03  0.23948805864E+03  0.12509000000E+03 0.  0.
         25    1    3    3    0    0 -0.36452309263E+02  0.77086748635E+02  0.13423869223E+03  0.20233307258E+03  0.12509000000E+03 0.  0.
         25    1    4    4    0    0  0.48887276799E+02 -0.50260482968E+02  0.33970376961E+03  0.36873058074E+03  0.12509000000E+03 0.  0.
<mgrwt>
<rscale>  2 0.44721325E+03</rscale>
<asrwt>0</asrwt>
<pdfrwt beam="1">  1       21 0.10930627E+00 0.44721325E+03</pdfrwt>
<pdfrwt beam="2">  1       21 0.98925086E-02 0.44721325E+03</pdfrwt>
<totfact> 0.50260125E+04</totfact>
</mgrwt>
</event>
<event>
 7    0  0.4712189E-002  0.4527813E+03  0.7546771E-02  0.1026896E+00
         21   -1    0    0  502  501  0.00000000000E+00  0.00000000000E+00  0.64899975423E+03  0.64899975423E+03  0.00000000000E+00 0. -1.
         21   -1    0    0  501  502 -0.00000000000E+00 -0.00000000000E+00 -0.78971882914E+02  0.78971882914E+02  0.00000000000E+00 0. -1.
      99926    2    1    2    0    0  0.00000000000E+00  0.00000000000E+00  0.57002787132E+03  0.72797163715E+03  0.45278132737E+03 0.  0.
      99925    2    3    3    0    0  0.26832552573E+02  0.10502291652E+03  0.39756273812E+03  0.48892869301E+03  0.26314508781E+03 0.  0.
         25    1    4    4    0    0  0.23324191324E+02  0.60883298514E+02  0.13760491902E+03  0.19706195924E+03  0.12509000000E+03 0.  0.
         25    1    3    3    0    0 -0.26832552573E+02 -0.10502291652E+03  0.17246513320E+03  0.23904294414E+03  0.12509000000E+03 0.  0.
         25    1    4    4    0    0  0.35083612487E+01  0.44139618001E+02  0.25995781909E+03  0.29186673377E+03  0.12509000000E+03 0.  0.
<mgrwt>
<rscale>  2 0.45278133E+03</rscale>
<asrwt>0</asrwt>
<pdfrwt beam="1">  1       21 0.95441138E-01 0.45278133E+03</pdfrwt>
<pdfrwt beam="2">  1       21 0.11613513E-01 0.45278133E+03</pdfrwt>
<totfact> 0.52317338E+04</totfact>
</mgrwt>
</event>
<event>
 7    0  0.4712189E-002  0.4565027E+03  0.7546771E-02  0.1025800E+00
         21   -1    0    0  502  501  0.00000000000E+00  0.00000000000E+00  0.47636883304E+03  0.47636883304E+03  0.00000000000E+00 0. -1.
         21   -1    0    0  501  502 -0.00000000000E+00 -0.00000000000E+00 -0.10936625463E+03  0.10936625463E+03  0.00000000000E+00 0. -1.
      99926    2    1    2    0    0  0.00000000000E+00  0.00000000000E+00  0.36700257842E+03  0.58573508767E+03  0.45650268386E+03 0.  0.
      99925    2    3    3    0    0 -0.10037052729E+03 -0.49371334452E+02  0.26257115845E+03  0.38808590101E+03  0.26297391866E+03 0.  0.
         25    1    4    4    0    0 -0.68082751426E+02  0.11654833561E+02  0.13210788054E+03  0.19460497524E+03  0.12509000000E+03 0.  0.
         25    1    4    4    0    0 -0.32287775863E+02 -0.61026168013E+02  0.13046327791E+03  0.19348092577E+03  0.12509000000E+03 0.  0.
         25    1    3    3    0    0  0.10037052729E+03  0.49371334452E+02  0.10443141996E+03  0.19764918666E+03  0.12509000000E+03 0.  0.
<mgrwt>
<rscale>  2 0.45650268E+03</rscale>
<asrwt>0</asrwt>
<pdfrwt beam="1">  1       21 0.70054239E-01 0.45650268E+03</pdfrwt>
<pdfrwt beam="2">  1       21 0.16083273E-01 0.45650268E+03</pdfrwt>
<totfact> 0.58862721E+04</totfact>
</mgrwt>
</event>
<event>
 7    0  0.4712189E-002  0.4522085E+03  0.7546771E-02  0.1027065E+00
         21   -1    0    0  502  501  0.00000000000E+00  0.00000000000E+00  0.11599493675E+03  0.11599493675E+03  0.00000000000E+00 0. -1.
         21   -1    0    0  501  502 -0.00000000000E+00 -0.00000000000E+00 -0.44073584156E+03  0.44073584156E+03  0.00000000000E+00 0. -1.
      99926    2    1    2    0    0 -0.71054273576E-14  0.17763568394E-14 -0.32474090482E+03  0.55673077831E+03  0.45220847433E+03 0.  0.
      99925    2    3    3    0    0 -0.39900705012E+02 -0.10451100698E+02 -0.78567196214E+02  0.27753497843E+03  0.26296685754E+03 0.  0.
         25    1    4    4    0    0 -0.41491286258E+02 -0.19052376556E+02 -0.73358845070E+02  0.15203140510E+03  0.12509000000E+03 0.  0.
         25    1    4    4    0    0  0.15905812461E+01  0.86012758580E+01 -0.52083511441E+01  0.12550357332E+03  0.12509000000E+03 0.  0.
         25    1    3    3    0    0  0.39900705012E+02  0.10451100698E+02 -0.24617370860E+03  0.27919579989E+03  0.12509000000E+03 0.  0.
<mgrwt>
<rscale>  2 0.45220847E+03</rscale>
<asrwt>0</asrwt>
<pdfrwt beam="1">  1       21 0.17058079E-01 0.45220847E+03</pdfrwt>
<pdfrwt beam="2">  1       21 0.64814095E-01 0.45220847E+03</pdfrwt>
<totfact> 0.62799225E+04</totfact>
</mgrwt>
</event>
<event>
 7    0  0.4712189E-002  0.4604421E+03  0.7546771E-02  0.1024653E+00
         21   -1    0    0  502  501  0.00000000000E+00  0.00000000000E+00  0.19532962534E+03  0.19532962534E+03  0.00000000000E+00 0.  1.
         21   -1    0    0  501  502 -0.00000000000E+00 -0.00000000000E+00 -0.27134510057E+03  0.27134510057E+03  0.00000000000E+00 0.  1.
      99926    2    1    2    0    0 -0.14210854715E-13  0.00000000000E+00 -0.76015475237E+02  0.46667472591E+03  0.46044212159E+03 0.  0.
      99925    2    3    3    0    0  0.77356482102E+02  0.86908469451E+02 -0.26634464103E+02  0.28884587632E+03  0.26303124948E+03 0.  0.
         25    1    3    3    0    0 -0.77356482102E+02 -0.86908469451E+02 -0.49381011133E+02  0.17782884959E+03  0.12509000000E+03 0.  0.
         25    1    4    4    0    0  0.45963780007E+01  0.36786540722E+02 -0.36213199456E+02  0.13540044381E+03  0.12509000000E+03 0.  0.
         25    1    4    4    0    0  0.72760104102E+02  0.50121928729E+02  0.95787353527E+01  0.15344543251E+03  0.12509000000E+03 0.  0.
<mgrwt>
<rscale>  2 0.46044212E+03</rscale>
<asrwt>0</asrwt>
<pdfrwt beam="1">  1       21 0.28724945E-01 0.46044212E+03</pdfrwt>
<pdfrwt beam="2">  1       21 0.39903691E-01 0.46044212E+03</pdfrwt>
<totfact> 0.64835364E+04</totfact>
</mgrwt>
</event>
<event>
 7    0  0.4712189E-002  0.4484887E+03  0.7546771E-02  0.1028174E+00
         21   -1    0    0  502  501  0.00000000000E+00  0.00000000000E+00  0.34720825252E+03  0.34720825252E+03  0.00000000000E+00 0.  1.
         21   -1    0    0  501  502 -0.00000000000E+00 -0.00000000000E+00 -0.14482813101E+03  0.14482813101E+03  0.00000000000E+00 0.  1.
      99926    2    1    2    0    0  0.00000000000E+00  0.00000000000E+00  0.20238012151E+03  0.49203638353E+03  0.44848867225E+03 0.  0.
      99925    2    3    3    0    0 -0.62092043333E+02  0.76892335482E+02  0.17300632740E+03  0.32993092100E+03  0.26297408658E+03 0.  0.
         25    1    4    4    0    0 -0.12434303750E+02  0.23321887024E+02  0.41867013020E+02  0.13453206756E+03  0.12509000000E+03 0.  0.
         25    1    4    4    0    0 -0.49657739583E+02  0.53570448458E+02  0.13113931438E+03  0.19539885344E+03  0.12509000000E+03 0.  0.
         25    1    3    3    0    0  0.62092043333E+02 -0.76892335482E+02  0.29373794113E+02  0.16210546253E+03  0.12509000000E+03 0.  0.
<mgrwt>
<rscale>  2 0.44848867E+03</rscale>
<asrwt>0</asrwt>
<pdfrwt beam="1">  1       21 0.51060037E-01 0.44848867E+03</pdfrwt>
<pdfrwt beam="2">  1       21 0.21298255E-01 0.44848867E+03</pdfrwt>
<totfact> 0.69349787E+04</totfact>
</mgrwt>
</event>
<event>
 7    0  0.4712189E-002  0.4524136E+03  0.7546771E-02  0.1027005E+00
         21   -1    0    0  502  501  0.00000000000E+00  0.00000000000E+00  0.17755689359E+03  0.17755689359E+03  0.00000000000E+00 0.  1.
         21   -1    0    0  501  502 -0.00000000000E+00 -0.00000000000E+00 -0.28818657640E+03  0.28818657640E+03  0.00000000000E+00 0.  1.
      99926    2    1    2    0    0  0.71054273576E-14 -0.14210854715E-13 -0.11062968281E+03  0.46574346999E+03  0.45241358635E+03 0.  0.
      99925    2    3    3    0    0 -0.52752277992E+02  0.92927938281E+02 -0.99699866644E+02  0.30086359393E+03  0.26298371470E+03 0.  0.
         25    1    4    4    0    0 -0.71260460405E+00  0.59893798734E+02 -0.19670516882E+02  0.14007930706E+03  0.12509000000E+03 0.  0.
         25    1    4    4    0    0 -0.52039673388E+02  0.33034139547E+02 -0.80029349762E+02  0.16078428687E+03  0.12509000000E+03 0.  0.
         25    1    3    3    0    0  0.52752277992E+02 -0.92927938281E+02 -0.10929816167E+02  0.16487987606E+03  0.12509000000E+03 0.  0.
<mgrwt>
<rscale>  2 0.45241359E+03</rscale>
<asrwt>0</asrwt>
<pdfrwt beam="1">  1       21 0.26111308E-01 0.45241359E+03</pdfrwt>
<pdfrwt beam="2">  1       21 0.42380379E-01 0.45241359E+03</pdfrwt>
<totfact> 0.69161825E+04</totfact>
</mgrwt>
</event>
<event>
 7    0  0.4712189E-002  0.4776280E+03  0.7546771E-02  0.1019789E+00
         21   -1    0    0  502  501  0.00000000000E+00  0.00000000000E+00  0.84362138493E+02  0.84362138493E+02  0.00000000000E+00 0. -1.
         21   -1    0    0  501  502 -0.00000000000E+00 -0.00000000000E+00 -0.67603940864E+03  0.67603940864E+03  0.00000000000E+00 0. -1.
      99926    2    1    2    0    0  0.00000000000E+00 -0.14210854715E-13 -0.59167727015E+03  0.76040154713E+03  0.47762801517E+03 0.  0.
      99925    2    3    3    0    0 -0.23802019681E+02 -0.62767617051E+02 -0.54855699458E+03  0.61203316722E+03  0.26298956556E+03 0.  0.
         25    1    3    3    0    0  0.23802019681E+02  0.62767617051E+02 -0.43120275571E+02  0.14836837991E+03  0.12509000000E+03 0.  0.
         25    1    4    4    0    0  0.60322616922E+01  0.59430760595E+01 -0.24077836829E+03  0.27146535519E+03  0.12509000000E+03 0.  0.
         25    1    4    4    0    0 -0.29834281374E+02 -0.68710693110E+02 -0.30777862629E+03  0.34056781203E+03  0.12509000000E+03 0.  0.
<mgrwt>
<rscale>  2 0.47762802E+03</rscale>
<asrwt>0</asrwt>
<pdfrwt beam="1">  1       21 0.12406197E-01 0.47762802E+03</pdfrwt>
<pdfrwt beam="2">  1       21 0.99417559E-01 0.47762802E+03</pdfrwt>
<totfact> 0.41800166E+04</totfact>
</mgrwt>
</event>
<event>
 7    0  0.4712189E-002  0.4487690E+03  0.7546771E-02  0.1028090E+00
         21   -1    0    0  502  501  0.00000000000E+00  0.00000000000E+00  0.31877936971E+04  0.31877936971E+04  0.00000000000E+00 0.  1.
         21   -1    0    0  501  502 -0.00000000000E+00 -0.00000000000E+00 -0.15794124891E+02  0.15794124891E+02  0.00000000000E+00 0.  1.
      99926    2    1    2    0    0  0.17763568394E-14  0.00000000000E+00  0.31719995722E+04  0.32035878220E+04  0.44876903538E+03 0.  0.
      99925    2    3    3    0    0 -0.15138807060E+02 -0.84174859093E+02  0.15452794926E+04  0.15698251967E+04  0.26295978301E+03 0.  0.
         25    1    3    3    0    0  0.15138807060E+02  0.84174859093E+02  0.16267200796E+04  0.16337626253E+04  0.12509000000E+03 0.  0.
         25    1    4    4    0    0 -0.18722707005E+02 -0.43461604454E+02  0.99930357402E+03  0.10082135647E+04  0.12509000000E+03 0.  0.
         25    1    4    4    0    0  0.35838999453E+01 -0.40713254639E+02  0.54597591861E+03  0.56161163204E+03  0.12509000000E+03 0.  0.
<mgrwt>
<rscale>  2 0.44876904E+03</rscale>
<asrwt>0</asrwt>
<pdfrwt beam="1">  1       21 0.46879274E+00 0.44876904E+03</pdfrwt>
<pdfrwt beam="2">  1       21 0.23226676E-02 0.44876904E+03</pdfrwt>
<totfact> 0.23778960E+03</totfact>
</mgrwt>
</event>
<event>
 7    0  0.4712189E-002  0.4546304E+03  0.7546771E-02  0.1026350E+00
         21   -1    0    0  502  501  0.00000000000E+00  0.00000000000E+00  0.19565331545E+03  0.19565331545E+03  0.00000000000E+00 0. -1.
         21   -1    0    0  501  502 -0.00000000000E+00 -0.00000000000E+00 -0.26410078954E+03  0.26410078954E+03  0.00000000000E+00 0. -1.
      99926    2    1    2    0    0  0.00000000000E+00  0.00000000000E+00 -0.68447474090E+02  0.45975410499E+03  0.45463037772E+03 0.  0.
      99925    2    3    3    0    0 -0.15487402631E+02 -0.61172370707E+02  0.51588865510E+02  0.27525979748E+03  0.26291562618E+03 0.  0.
         25    1    4    4    0    0 -0.10631780569E+02 -0.37882345582E+02 -0.14266010763E+02  0.13190577708E+03  0.12509000000E+03 0.  0.
         25    1    4    4    0    0 -0.48556220615E+01 -0.23290025125E+02  0.65854876272E+02  0.14335402040E+03  0.12509000000E+03 0.  0.
         25    1    3    3    0    0  0.15487402631E+02  0.61172370707E+02 -0.12003633960E+03  0.18449430751E+03  0.12509000000E+03 0.  0.
<mgrwt>
<rscale>  2 0.45463038E+03</rscale>
<asrwt>0</asrwt>
<pdfrwt beam="1">  1       21 0.28772546E-01 0.45463038E+03</pdfrwt>
<pdfrwt beam="2">  1       21 0.38838351E-01 0.45463038E+03</pdfrwt>
<totfact> 0.68399885E+04</totfact>
</mgrwt>
</event>
<event>
 7    0  0.4712189E-002  0.4560245E+03  0.7546771E-02  0.1025941E+00
         21   -1    0    0  502  501  0.00000000000E+00  0.00000000000E+00  0.27149095633E+03  0.27149095633E+03  0.00000000000E+00 0. -1.
         21   -1    0    0  501  502 -0.00000000000E+00 -0.00000000000E+00 -0.19149657064E+03  0.19149657064E+03  0.00000000000E+00 0. -1.
      99926    2    1    2    0    0 -0.88817841970E-15  0.00000000000E+00  0.79994385689E+02  0.46298752697E+03  0.45602450415E+03 0.  0.
      99925    2    3    3    0    0 -0.19498551476E+01  0.10473925671E+03  0.97536139565E+02  0.29888592716E+03  0.26238404124E+03 0.  0.
         25    1    4    4    0    0  0.10738859164E+02  0.46100418435E+02  0.84517839345E+01  0.13401310543E+03  0.12509000000E+03 0.  0.
         25    1    3    3    0    0  0.19498551476E+01 -0.10473925671E+03 -0.17541753877E+02  0.16410159981E+03  0.12509000000E+03 0.  0.
         25    1    4    4    0    0 -0.12688714312E+02  0.58638838275E+02  0.89084355631E+02  0.16487282172E+03  0.12509000000E+03 0.  0.
<mgrwt>
<rscale>  2 0.45602450E+03</rscale>
<asrwt>0</asrwt>
<pdfrwt beam="1">  1       21 0.39925141E-01 0.45602450E+03</pdfrwt>
<pdfrwt beam="2">  1       21 0.28161260E-01 0.45602450E+03</pdfrwt>
<totfact> 0.67409092E+04</totfact>
</mgrwt>
</event>
<event>
 7    0  0.4712189E-002  0.4595293E+03  0.7546771E-02  0.1024918E+00
         21   -1    0    0  502  501  0.00000000000E+00  0.00000000000E+00  0.40640673099E+03  0.40640673099E+03  0.00000000000E+00 0. -1.
         21   -1    0    0  501  502 -0.00000000000E+00 -0.00000000000E+00 -0.12989890826E+03  0.12989890826E+03  0.00000000000E+00 0. -1.
      99926    2    1    2    0    0  0.00000000000E+00  0.00000000000E+00  0.27650782272E+03  0.53630563925E+03  0.45952928380E+03 0.  0.
      99925    2    3    3    0    0  0.76379802191E+02 -0.18662464091E+02  0.27390996628E+03  0.38853413081E+03  0.26410213826E+03 0.  0.
         25    1    3    3    0    0 -0.76379802191E+02  0.18662464091E+02  0.25978564474E+01  0.14777150844E+03  0.12509000000E+03 0.  0.
         25    1    4    4    0    0  0.95910613911E+01 -0.90483921121E+00  0.84519641071E+02  0.15127420474E+03  0.12509000000E+03 0.  0.
         25    1    4    4    0    0  0.66788740800E+02 -0.17757624880E+02  0.18939032520E+03  0.23725992607E+03  0.12509000000E+03 0.  0.
<mgrwt>
<rscale>  2 0.45952928E+03</rscale>
<asrwt>0</asrwt>
<pdfrwt beam="1">  1       21 0.59765696E-01 0.45952928E+03</pdfrwt>
<pdfrwt beam="2">  1       21 0.19102781E-01 0.45952928E+03</pdfrwt>
<totfact> 0.60577779E+04</totfact>
</mgrwt>
</event>
<event>
 7    0  0.4712189E-002  0.4541059E+03  0.7546771E-02  0.1026505E+00
         21   -1    0    0  502  501  0.00000000000E+00  0.00000000000E+00  0.10683869969E+03  0.10683869969E+03  0.00000000000E+00 0. -1.
         21   -1    0    0  501  502 -0.00000000000E+00 -0.00000000000E+00 -0.48253155629E+03  0.48253155629E+03  0.00000000000E+00 0. -1.
      99926    2    1    2    0    0  0.00000000000E+00  0.00000000000E+00 -0.37569285660E+03  0.58937025598E+03  0.45410590850E+03 0.  0.
      99925    2    3    3    0    0  0.66988361480E+02  0.89994999095E+02 -0.24031033281E+03  0.37358685466E+03  0.26311887330E+03 0.  0.
         25    1    3    3    0    0 -0.66988361480E+02 -0.89994999095E+02 -0.13538252379E+03  0.21578340132E+03  0.12509000000E+03 0.  0.
         25    1    4    4    0    0  0.25938089384E+02  0.73164298007E+02 -0.87807372152E+02  0.17141599018E+03  0.12509000000E+03 0.  0.
         25    1    4    4    0    0  0.41050272095E+02  0.16830701088E+02 -0.15250296066E+03  0.20217086449E+03  0.12509000000E+03 0.  0.
<mgrwt>
<rscale>  2 0.45410591E+03</rscale>
<asrwt>0</asrwt>
<pdfrwt beam="1">  1       21 0.15711574E-01 0.45410591E+03</pdfrwt>
<pdfrwt beam="2">  1       21 0.70960522E-01 0.45410591E+03</pdfrwt>
<totfact> 0.59758541E+04</totfact>
</mgrwt>
</event>
<event>
 7    0  0.4712189E-002  0.4540771E+03  0.7546771E-02  0.1026513E+00
         21   -1    0    0  502  501  0.00000000000E+00  0.00000000000E+00  0.31431652330E+03  0.31431652330E+03  0.00000000000E+00 0.  1.
         21   -1    0    0  501  502 -0.00000000000E+00 -0.00000000000E+00 -0.16399554766E+03  0.16399554766E+03  0.00000000000E+00 0.  1.
      99926    2    1    2    0    0  0.00000000000E+00 -0.88817841970E-15  0.15032097564E+03  0.47831207095E+03  0.45407713167E+03 0.  0.
      99925    2    3    3    0    0 -0.11149014525E+03  0.78181222309E+01  0.10622231034E+03  0.30486647169E+03  0.26300040080E+03 0.  0.
         25    1    4    4    0    0 -0.35898118204E+02 -0.20596385968E+02  0.21333840945E+02  0.13347481738E+03  0.12509000000E+03 0.  0.
         25    1    3    3    0    0  0.11149014525E+03 -0.78181222309E+01  0.44098665302E+02  0.17344559927E+03  0.12509000000E+03 0.  0.
         25    1    4    4    0    0 -0.75592027048E+02  0.28414508199E+02  0.84888469392E+02  0.17139165430E+03  0.12509000000E+03 0.  0.
<mgrwt>
<rscale>  2 0.45407713E+03</rscale>
<asrwt>0</asrwt>
<pdfrwt beam="1">  1       21 0.46223018E-01 0.45407713E+03</pdfrwt>
<pdfrwt beam="2">  1       21 0.24116992E-01 0.45407713E+03</pdfrwt>
<totfact> 0.67314897E+04</totfact>
</mgrwt>
</event>
<event>
 7    0  0.4712189E-002  0.3907916E+03  0.7546771E-02  0.1047016E+00
         21   -1    0    0  502  501  0.00000000000E+00  0.00000000000E+00  0.11855106805E+03  0.11855106805E+03  0.00000000000E+00 0. -1.
         21   -1    0    0  501  502 -0.00000000000E+00 -0.00000000000E+00 -0.32205125756E+03  0.32205125756E+03  0.00000000000E+00 0. -1.
      99926    2    1    2    0    0  0.00000000000E+00  0.00000000000E+00 -0.20350018951E+03  0.44060232561E+03  0.39079160969E+03 0.  0.
      99925    2    3    3    0    0 -0.47245888951E+01 -0.19780759697E+02 -0.14507834917E+03  0.30105226391E+03  0.26300406463E+03 0.  0.
         25    1    3    3    0    0  0.47245888951E+01  0.19780759697E+02 -0.58421840340E+02  0.13955006171E+03  0.12509000000E+03 0.  0.
         25    1    4    4    0    0 -0.22033164139E+02  0.22223309326E+02 -0.54052715031E+02  0.13981609314E+03  0.12509000000E+03 0.  0.
         25    1    4    4    0    0  0.17308575244E+02 -0.42004069023E+02 -0.91025634142E+02  0.16123617076E+03  0.12509000000E+03 0.  0.
<mgrwt>
<rscale>  2 0.39079161E+03</rscale>
<asrwt>0</asrwt>
<pdfrwt beam="1">  1       21 0.17433981E-01 0.39079161E+03</pdfrwt>
<pdfrwt beam="2">  1       21 0.47360478E-01 0.39079161E+03</pdfrwt>
<totfact> 0.12022514E+05</totfact>
</mgrwt>
</event>
<event>
 7    0  0.4712189E-002  0.4527235E+03  0.7546771E-02  0.1026913E+00
         21   -1    0    0  502  501  0.00000000000E+00  0.00000000000E+00  0.25156708211E+03  0.25156708211E+03  0.00000000000E+00 0.  1.
         21   -1    0    0  501  502 -0.00000000000E+00 -0.00000000000E+00 -0.20368180137E+03  0.20368180137E+03  0.00000000000E+00 0.  1.
      99926    2    1    2    0    0 -0.71054273576E-14  0.00000000000E+00  0.47885280739E+02  0.45524888348E+03  0.45272347608E+03 0.  0.
      99925    2    3    3    0    0 -0.34729884081E+02  0.79848703053E+02 -0.39064369468E+02  0.27977885755E+03  0.26299848658E+03 0.  0.
         25    1    4    4    0    0 -0.52904404369E+02  0.21722620060E+02 -0.12221897686E+02  0.13808559341E+03  0.12509000000E+03 0.  0.
         25    1    3    3    0    0  0.34729884081E+02 -0.79848703053E+02  0.86949650207E+02  0.17547002593E+03  0.12509000000E+03 0.  0.
         25    1    4    4    0    0  0.18174520289E+02  0.58126082994E+02 -0.26842471782E+02  0.14169326414E+03  0.12509000000E+03 0.  0.
<mgrwt>
<rscale>  2 0.45272348E+03</rscale>
<asrwt>0</asrwt>
<pdfrwt beam="1">  1       21 0.36995159E-01 0.45272348E+03</pdfrwt>
<pdfrwt beam="2">  1       21 0.29953206E-01 0.45272348E+03</pdfrwt>
<totfact> 0.69786494E+04</totfact>
</mgrwt>
</event>
<event>
 7    0  0.4712189E-002  0.4620654E+03  0.7546771E-02  0.1024184E+00
         21   -1    0    0  502  501  0.00000000000E+00  0.00000000000E+00  0.34213260661E+03  0.34213260661E+03  0.00000000000E+00 0.  1.
         21   -1    0    0  501  502 -0.00000000000E+00 -0.00000000000E+00 -0.15601000569E+03  0.15601000569E+03  0.00000000000E+00 0.  1.
      99926    2    1    2    0    0  0.00000000000E+00  0.14210854715E-13  0.18612260092E+03  0.49814261231E+03  0.46206540622E+03 0.  0.
      99925    2    3    3    0    0  0.97093045642E+01 -0.10632853520E+03  0.57789206535E+02  0.28953533485E+03  0.26285183991E+03 0.  0.
         25    1    4    4    0    0  0.18036522595E+02 -0.78368050420E+02  0.53549598169E-01  0.14870903954E+03  0.12509000000E+03 0.  0.
         25    1    3    3    0    0 -0.97093045642E+01  0.10632853520E+03  0.12833339438E+03  0.20860727746E+03  0.12509000000E+03 0.  0.
         25    1    4    4    0    0 -0.83272180307E+01 -0.27960484781E+02  0.57735656936E+02  0.14082629531E+03  0.12509000000E+03 0.  0.
<mgrwt>
<rscale>  2 0.46206541E+03</rscale>
<asrwt>0</asrwt>
<pdfrwt beam="1">  1       21 0.50313619E-01 0.46206541E+03</pdfrwt>
<pdfrwt beam="2">  1       21 0.22942648E-01 0.46206541E+03</pdfrwt>
<totfact> 0.61858279E+04</totfact>
</mgrwt>
</event>
<event>
 7    0  0.4712189E-002  0.4538720E+03  0.7546771E-02  0.1026574E+00
         21   -1    0    0  502  501  0.00000000000E+00  0.00000000000E+00  0.57701654401E+03  0.57701654401E+03  0.00000000000E+00 0. -1.
         21   -1    0    0  501  502 -0.00000000000E+00 -0.00000000000E+00 -0.89252114412E+02  0.89252114412E+02  0.00000000000E+00 0. -1.
      99926    2    1    2    0    0 -0.14210854715E-13  0.00000000000E+00  0.48776442960E+03  0.66626865843E+03  0.45387199343E+03 0.  0.
      99925    2    3    3    0    0 -0.91118707592E+02 -0.54291192101E+02  0.25365910602E+03  0.38043135673E+03  0.26293520628E+03 0.  0.
         25    1    3    3    0    0  0.91118707592E+02  0.54291192101E+02  0.23410532358E+03  0.28583730170E+03  0.12509000000E+03 0.  0.
         25    1    4    4    0    0 -0.19091407274E+02 -0.91677300425E+01  0.79264339077E+02  0.14959569731E+03  0.12509000000E+03 0.  0.
         25    1    4    4    0    0 -0.72027300318E+02 -0.45123462058E+02  0.17439476694E+03  0.23083565941E+03  0.12509000000E+03 0.  0.
<mgrwt>
<rscale>  2 0.45387199E+03</rscale>
<asrwt>0</asrwt>
<pdfrwt beam="1">  1       21 0.84855373E-01 0.45387199E+03</pdfrwt>
<pdfrwt beam="2">  1       21 0.13125311E-01 0.45387199E+03</pdfrwt>
<totfact> 0.55262582E+04</totfact>
</mgrwt>
</event>
<event>
 7    0  0.4712189E-002  0.4572904E+03  0.7546771E-02  0.1025570E+00
         21   -1    0    0  502  501  0.00000000000E+00  0.00000000000E+00  0.19213118361E+03  0.19213118361E+03  0.00000000000E+00 0. -1.
         21   -1    0    0  501  502 -0.00000000000E+00 -0.00000000000E+00 -0.27209860385E+03  0.27209860385E+03  0.00000000000E+00 0. -1.
      99926    2    1    2    0    0  0.00000000000E+00  0.00000000000E+00 -0.79967420246E+02  0.46422978746E+03  0.45729039708E+03 0.  0.
      99925    2    3    3    0    0 -0.89735433385E+02  0.27320023246E+02  0.17795725691E+02  0.27982812674E+03  0.26303661529E+03 0.  0.
         25    1    4    4    0    0 -0.26562821305E+02  0.31789026633E+02  0.40365813873E+02  0.13781521222E+03  0.12509000000E+03 0.  0.
         25    1    3    3    0    0  0.89735433385E+02 -0.27320023246E+02 -0.97763145938E+02  0.18440166073E+03  0.12509000000E+03 0.  0.
         25    1    4    4    0    0 -0.63172612080E+02 -0.44690033868E+01 -0.22570088181E+02  0.14201291451E+03  0.12509000000E+03 0.  0.
<mgrwt>
<rscale>  2 0.45729040E+03</rscale>
<asrwt>0</asrwt>
<pdfrwt beam="1">  1       21 0.28254586E-01 0.45729040E+03</pdfrwt>
<pdfrwt beam="2">  1       21 0.40014500E-01 0.45729040E+03</pdfrwt>
<totfact> 0.66645602E+04</totfact>
</mgrwt>
</event>
<event>
 7    0  0.4712189E-002  0.4558581E+03  0.7546771E-02  0.1025989E+00
         21   -1    0    0  502  501  0.00000000000E+00  0.00000000000E+00  0.21554303601E+03  0.21554303601E+03  0.00000000000E+00 0. -1.
         21   -1    0    0  501  502 -0.00000000000E+00 -0.00000000000E+00 -0.24102679568E+03  0.24102679568E+03  0.00000000000E+00 0. -1.
      99926    2    1    2    0    0  0.00000000000E+00  0.00000000000E+00 -0.25483759668E+02  0.45656983169E+03  0.45585808011E+03 0.  0.
      99925    2    3    3    0    0 -0.54115913816E+02 -0.44465301995E+02 -0.10606908746E+03  0.29210950710E+03  0.26300497640E+03 0.  0.
         25    1    3    3    0    0  0.54115913816E+02  0.44465301995E+02  0.80585327792E+02  0.16446032459E+03  0.12509000000E+03 0.  0.
         25    1    4    4    0    0 -0.38578793779E+02  0.16499210589E+02 -0.45700854936E+02  0.13963031018E+03  0.12509000000E+03 0.  0.
         25    1    4    4    0    0 -0.15537120037E+02 -0.60964512584E+02 -0.60368232525E+02  0.15247919692E+03  0.12509000000E+03 0.  0.
<mgrwt>
<rscale>  2 0.45585808E+03</rscale>
<asrwt>0</asrwt>
<pdfrwt beam="1">  1       21 0.31697506E-01 0.45585808E+03</pdfrwt>
<pdfrwt beam="2">  1       21 0.35445117E-01 0.45585808E+03</pdfrwt>
<totfact> 0.67964462E+04</totfact>
</mgrwt>
</event>
<event>
 7    0  0.4712189E-002  0.4588390E+03  0.7546771E-02  0.1025118E+00
         21   -1    0    0  502  501  0.00000000000E+00  0.00000000000E+00  0.13149019812E+04  0.13149019812E+04  0.00000000000E+00 0.  1.
         21   -1    0    0  501  502 -0.00000000000E+00 -0.00000000000E+00 -0.40028308665E+02  0.40028308665E+02  0.00000000000E+00 0.  1.
      99926    2    1    2    0    0  0.00000000000E+00  0.00000000000E+00  0.12748736726E+04  0.13549302899E+04  0.45883897990E+03 0.  0.
      99925    2    3    3    0    0  0.70324721855E+02  0.92134675713E+02  0.84117580944E+03  0.88890914278E+03  0.26296075139E+03 0.  0.
         25    1    3    3    0    0 -0.70324721855E+02 -0.92134675713E+02  0.43369786313E+03  0.46602114711E+03  0.12509000000E+03 0.  0.
         25    1    4    4    0    0  0.72560671962E+02  0.66977539215E+02  0.44403457981E+03  0.47176822492E+03  0.12509000000E+03 0.  0.
         25    1    4    4    0    0 -0.22359501070E+01  0.25157136497E+02  0.39714122963E+03  0.41714091787E+03  0.12509000000E+03 0.  0.
<mgrwt>
<rscale>  2 0.45883898E+03</rscale>
<asrwt>0</asrwt>
<pdfrwt beam="1">  1       21 0.19336791E+00 0.45883898E+03</pdfrwt>
<pdfrwt beam="2">  1       21 0.58865168E-02 0.45883898E+03</pdfrwt>
<totfact> 0.26750963E+04</totfact>
</mgrwt>
</event>
<event>
 6    0  0.4712189E-002  0.5102901E+03  0.7546771E-02  0.1011127E+00
         21   -1    0    0  502  501  0.00000000000E+00  0.00000000000E+00  0.13176639696E+03  0.13176639696E+03  0.00000000000E+00 0.  1.
         21   -1    0    0  501  502 -0.00000000000E+00 -0.00000000000E+00 -0.49404852689E+03  0.49404852689E+03  0.00000000000E+00 0.  1.
      99926    2    1    2    0    0  0.71054273576E-14  0.00000000000E+00 -0.36228212993E+03  0.62581492386E+03  0.51029009127E+03 0.  0.
         25    1    3    3    0    0 -0.56654247752E+02 -0.48446863366E+02  0.27737878354E+02  0.14823528714E+03  0.12509000000E+03 0.  0.
         25    1    3    3    0    0  0.55071775093E+02  0.61021226084E+01 -0.25074290633E+03  0.28563901954E+03  0.12509000000E+03 0.  0.
         25    1    3    3    0    0  0.15824726581E+01  0.42344740757E+02 -0.13927710196E+03  0.19194061717E+03  0.12509000000E+03 0.  0.
<mgrwt>
<rscale>  2 0.51029009E+03</rscale>
<asrwt>0</asrwt>
<pdfrwt beam="1">  1       21 0.19377411E-01 0.51029009E+03</pdfrwt>
<pdfrwt beam="2">  1       21 0.72654195E-01 0.51029009E+03</pdfrwt>
<totfact> 0.37734535E+04</totfact>
</mgrwt>
</event>
<event>
 7    0  0.4712189E-002  0.4733502E+03  0.7546771E-02  0.1020979E+00
         21   -1    0    0  502  501  0.00000000000E+00  0.00000000000E+00  0.81165193306E+03  0.81165193306E+03  0.00000000000E+00 0.  1.
         21   -1    0    0  501  502 -0.00000000000E+00 -0.00000000000E+00 -0.69013713657E+02  0.69013713657E+02  0.00000000000E+00 0.  1.
      99926    2    1    2    0    0 -0.88817841970E-15  0.00000000000E+00  0.74263821940E+03  0.88066564672E+03  0.47335024706E+03 0.  0.
      99925    2    3    3    0    0  0.51635978702E+01  0.66045663823E+02  0.25232243048E+03  0.37032676576E+03  0.26284332227E+03 0.  0.
         25    1    4    4    0    0  0.26458748024E+02  0.25339604283E+02  0.81703519727E+02  0.15383476242E+03  0.12509000000E+03 0.  0.
         25    1    3    3    0    0 -0.51635978702E+01 -0.66045663823E+02  0.49031578892E+03  0.51033888096E+03  0.12509000000E+03 0.  0.
         25    1    4    4    0    0 -0.21295150154E+02  0.40706059540E+02  0.17061891076E+03  0.21649200334E+03  0.12509000000E+03 0.  0.
<mgrwt>
<rscale>  2 0.47335025E+03</rscale>
<asrwt>0</asrwt>
<pdfrwt beam="1">  1       21 0.11936057E+00 0.47335025E+03</pdfrwt>
<pdfrwt beam="2">  1       21 0.10149076E-01 0.47335025E+03</pdfrwt>
<totfact> 0.38275585E+04</totfact>
</mgrwt>
</event>
<event>
 7    0  0.4712189E-002  0.4487394E+03  0.7546771E-02  0.1028099E+00
         21   -1    0    0  502  501  0.00000000000E+00  0.00000000000E+00  0.71517494878E+02  0.71517494878E+02  0.00000000000E+00 0. -1.
         21   -1    0    0  501  502 -0.00000000000E+00 -0.00000000000E+00 -0.70390826845E+03  0.70390826845E+03  0.00000000000E+00 0. -1.
      99926    2    1    2    0    0  0.14210854715E-13 -0.17763568394E-14 -0.63239077358E+03  0.77542576333E+03  0.44873937195E+03 0.  0.
      99925    2    3    3    0    0  0.85590428217E+02 -0.10535357535E+02 -0.50988152305E+03  0.58025214901E+03  0.26320462331E+03 0.  0.
         25    1    4    4    0    0  0.74094117408E+01 -0.11031476058E+02 -0.28211131889E+03  0.30888654421E+03  0.12509000000E+03 0.  0.
         25    1    3    3    0    0 -0.85590428217E+02  0.10535357535E+02 -0.12250925053E+03  0.19517361432E+03  0.12509000000E+03 0.  0.
         25    1    4    4    0    0  0.78181016476E+02  0.49611852302E+00 -0.22777020416E+03  0.27136560481E+03  0.12509000000E+03 0.  0.
<mgrwt>
<rscale>  2 0.44873937E+03</rscale>
<asrwt>0</asrwt>
<pdfrwt beam="1">  1       21 0.10517278E-01 0.44873937E+03</pdfrwt>
<pdfrwt beam="2">  1       21 0.10351592E+00 0.44873937E+03</pdfrwt>
<totfact> 0.51459106E+04</totfact>
</mgrwt>
</event>
<event>
 7    0  0.4712189E-002  0.4573236E+03  0.7546771E-02  0.1025560E+00
         21   -1    0    0  502  501  0.00000000000E+00  0.00000000000E+00  0.41742870600E+03  0.41742870600E+03  0.00000000000E+00 0.  1.
         21   -1    0    0  501  502 -0.00000000000E+00 -0.00000000000E+00 -0.12525782783E+03  0.12525782783E+03  0.00000000000E+00 0.  1.
      99926    2    1    2    0    0  0.00000000000E+00  0.71054273576E-14  0.29217087817E+03  0.54268653384E+03  0.45732357468E+03 0.  0.
      99925    2    3    3    0    0  0.10295425568E+03 -0.37307444072E+02  0.14058463678E+03  0.31770359932E+03  0.26302112610E+03 0.  0.
         25    1    3    3    0    0 -0.10295425568E+03  0.37307444072E+02  0.15158624139E+03  0.22498293452E+03  0.12509000000E+03 0.  0.
         25    1    4    4    0    0  0.47704448820E+02  0.22152589123E+02  0.62944983993E+02  0.14958619840E+03  0.12509000000E+03 0.  0.
         25    1    4    4    0    0  0.55249806863E+02 -0.59460033195E+02  0.77639652792E+02  0.16811740092E+03  0.12509000000E+03 0.  0.
<mgrwt>
<rscale>  2 0.45732357E+03</rscale>
<asrwt>0</asrwt>
<pdfrwt beam="1">  1       21 0.61386574E-01 0.45732357E+03</pdfrwt>
<pdfrwt beam="2">  1       21 0.18420269E-01 0.45732357E+03</pdfrwt>
<totfact> 0.61218946E+04</totfact>
</mgrwt>
</event>
<event>
 7    0  0.4712189E-002  0.4541566E+03  0.7546771E-02  0.1026490E+00
         21   -1    0    0  502  501  0.00000000000E+00  0.00000000000E+00  0.90059974660E+03  0.90059974660E+03  0.00000000000E+00 0.  1.
         21   -1    0    0  501  502 -0.00000000000E+00 -0.00000000000E+00 -0.57255790079E+02  0.57255790079E+02  0.00000000000E+00 0.  1.
      99926    2    1    2    0    0  0.00000000000E+00  0.00000000000E+00  0.84334395652E+03  0.95785553668E+03  0.45415658109E+03 0.  0.
      99925    2    3    3    0    0 -0.70226702374E+02  0.38098813665E+02  0.36443583821E+03  0.45647364310E+03  0.26300455764E+03 0.  0.
         25    1    4    4    0    0 -0.83538286068E+01  0.47847253328E+01  0.21760496243E+03  0.25118142412E+03  0.12509000000E+03 0.  0.
         25    1    4    4    0    0 -0.61872873767E+02  0.33314088332E+02  0.14683087578E+03  0.20529221897E+03  0.12509000000E+03 0.  0.
         25    1    3    3    0    0  0.70226702374E+02 -0.38098813665E+02  0.47890811831E+03  0.50138189358E+03  0.12509000000E+03 0.  0.
<mgrwt>
<rscale>  2 0.45415658E+03</rscale>
<asrwt>0</asrwt>
<pdfrwt beam="1">  1       21 0.13244113E+00 0.45415658E+03</pdfrwt>
<pdfrwt beam="2">  1       21 0.84199697E-02 0.45415658E+03</pdfrwt>
<totfact> 0.41094704E+04</totfact>
</mgrwt>
</event>
<event>
 7    0  0.4712189E-002  0.4524106E+03  0.7546771E-02  0.1027006E+00
         21   -1    0    0  502  501  0.00000000000E+00  0.00000000000E+00  0.63683178722E+03  0.63683178722E+03  0.00000000000E+00 0.  1.
         21   -1    0    0  501  502 -0.00000000000E+00 -0.00000000000E+00 -0.80349071872E+02  0.80349071872E+02  0.00000000000E+00 0.  1.
      99926    2    1    2    0    0 -0.14210854715E-13  0.00000000000E+00  0.55648271535E+03  0.71718085909E+03  0.45241062340E+03 0.  0.
      99925    2    3    3    0    0 -0.82369685986E+02  0.70949678161E+02  0.38417078130E+03  0.47810444303E+03  0.26301719952E+03 0.  0.
         25    1    3    3    0    0  0.82369685986E+02 -0.70949678161E+02  0.17231193405E+03  0.23907641606E+03  0.12509000000E+03 0.  0.
         25    1    4    4    0    0 -0.19240887844E+02  0.12758856208E+02  0.12853734130E+03  0.18083792850E+03  0.12509000000E+03 0.  0.
         25    1    4    4    0    0 -0.63128798142E+02  0.58190821954E+02  0.25563344000E+03  0.29726651453E+03  0.12509000000E+03 0.  0.
<mgrwt>
<rscale>  2 0.45241062E+03</rscale>
<asrwt>0</asrwt>
<pdfrwt beam="1">  1       21 0.93651731E-01 0.45241062E+03</pdfrwt>
<pdfrwt beam="2">  1       21 0.11816040E-01 0.45241062E+03</pdfrwt>
<totfact> 0.53052452E+04</totfact>
</mgrwt>
</event>
<event>
 7    0  0.4712189E-002  0.4650548E+03  0.7546771E-02  0.1023325E+00
         21   -1    0    0  502  501  0.00000000000E+00  0.00000000000E+00  0.39181956195E+03  0.39181956195E+03  0.00000000000E+00 0. -1.
         21   -1    0    0  501  502 -0.00000000000E+00 -0.00000000000E+00 -0.13799464663E+03  0.13799464663E+03  0.00000000000E+00 0. -1.
      99926    2    1    2    0    0  0.00000000000E+00  0.17763568394E-14  0.25382491532E+03  0.52981420857E+03  0.46505484405E+03 0.  0.
      99925    2    3    3    0    0  0.78872125039E+02 -0.10920564030E+02  0.26424678208E+03  0.38116632183E+03  0.26290936125E+03 0.  0.
         25    1    4    4    0    0  0.48657123382E+02  0.31204513950E+02  0.15313033945E+03  0.20600399585E+03  0.12509000000E+03 0.  0.
         25    1    3    3    0    0 -0.78872125039E+02  0.10920564030E+02 -0.10421866758E+02  0.14864788674E+03  0.12509000000E+03 0.  0.
         25    1    4    4    0    0  0.30215001656E+02 -0.42125077980E+02  0.11111644262E+03  0.17516232598E+03  0.12509000000E+03 0.  0.
<mgrwt>
<rscale>  2 0.46505484E+03</rscale>
<asrwt>0</asrwt>
<pdfrwt beam="1">  1       21 0.57620524E-01 0.46505484E+03</pdfrwt>
<pdfrwt beam="2">  1       21 0.20293330E-01 0.46505484E+03</pdfrwt>
<totfact> 0.58421589E+04</totfact>
</mgrwt>
</event>
<event>
 7    0  0.4712189E-002  0.4619627E+03  0.7546771E-02  0.1024214E+00
         21   -1    0    0  502  501  0.00000000000E+00  0.00000000000E+00  0.12065337286E+03  0.12065337286E+03  0.00000000000E+00 0. -1.
         21   -1    0    0  501  502 -0.00000000000E+00 -0.00000000000E+00 -0.44219553732E+03  0.44219553732E+03  0.00000000000E+00 0. -1.
      99926    2    1    2    0    0  0.00000000000E+00  0.00000000000E+00 -0.32154216446E+03  0.56284891017E+03  0.46196269563E+03 0.  0.
      99925    2    3    3    0    0 -0.86815995796E+02  0.72112253132E+02 -0.15356543203E+03  0.32493950532E+03  0.26318462346E+03 0.  0.
         25    1    4    4    0    0 -0.65098322247E+02  0.15649712923E+02 -0.45777247255E+02  0.14908309609E+03  0.12509000000E+03 0.  0.
         25    1    4    4    0    0 -0.21717673549E+02  0.56462540209E+02 -0.10778818477E+03  0.17585640923E+03  0.12509000000E+03 0.  0.
         25    1    3    3    0    0  0.86815995796E+02 -0.72112253132E+02 -0.16797673243E+03  0.23790940485E+03  0.12509000000E+03 0.  0.
<mgrwt>
<rscale>  2 0.46196270E+03</rscale>
<asrwt>0</asrwt>
<pdfrwt beam="1">  1       21 0.17743144E-01 0.46196270E+03</pdfrwt>
<pdfrwt beam="2">  1       21 0.65028753E-01 0.46196270E+03</pdfrwt>
<totfact> 0.57777146E+04</totfact>
</mgrwt>
</event>
<event>
 7    0  0.4712189E-002  0.4591926E+03  0.7546771E-02  0.1025016E+00
         21   -1    0    0  502  501  0.00000000000E+00  0.00000000000E+00  0.59473985983E+02  0.59473985983E+02  0.00000000000E+00 0.  1.
         21   -1    0    0  501  502 -0.00000000000E+00 -0.00000000000E+00 -0.88634501574E+03  0.88634501574E+03  0.00000000000E+00 0.  1.
      99926    2    1    2    0    0 -0.14210854715E-13  0.71054273576E-14 -0.82687102976E+03  0.94581900173E+03  0.45919264386E+03 0.  0.
      99925    2    3    3    0    0 -0.98220145855E+02  0.63950232445E+02 -0.51330037184E+03  0.58845239040E+03  0.26279671755E+03 0.  0.
         25    1    4    4    0    0 -0.22094903910E+02  0.57671111276E+02 -0.28208512858E+03  0.31469615460E+03  0.12509000000E+03 0.  0.
         25    1    4    4    0    0 -0.76125241945E+02  0.62791211690E+01 -0.23121524326E+03  0.27375623580E+03  0.12509000000E+03 0.  0.
         25    1    3    3    0    0  0.98220145855E+02 -0.63950232445E+02 -0.31357065792E+03  0.35736661133E+03  0.12509000000E+03 0.  0.
<mgrwt>
<rscale>  2 0.45919264E+03</rscale>
<asrwt>0</asrwt>
<pdfrwt beam="1">  1       21 0.87461750E-02 0.45919264E+03</pdfrwt>
<pdfrwt beam="2">  1       21 0.13034485E+00 0.45919264E+03</pdfrwt>
<totfact> 0.39983428E+04</totfact>
</mgrwt>
</event>
<event>
 7    0  0.4712189E-002  0.4696481E+03  0.7546771E-02  0.1022020E+00
         21   -1    0    0  502  501  0.00000000000E+00  0.00000000000E+00  0.12245644722E+04  0.12245644722E+04  0.00000000000E+00 0.  1.
         21   -1    0    0  501  502 -0.00000000000E+00 -0.00000000000E+00 -0.45030164434E+02  0.45030164434E+02  0.00000000000E+00 0.  1.
      99926    2    1    2    0    0  0.00000000000E+00  0.00000000000E+00  0.11795343077E+04  0.12695946366E+04  0.46964812165E+03 0.  0.
      99925    2    3    3    0    0  0.40544959420E+02 -0.26843044718E+02  0.41733509365E+03  0.49566983868E+03  0.26297445846E+03 0.  0.
         25    1    4    4    0    0  0.22125482701E+01 -0.12996582766E+02  0.27173777279E+03  0.29943735871E+03  0.12509000000E+03 0.  0.
         25    1    3    3    0    0 -0.40544959420E+02  0.26843044718E+02  0.76219921409E+03  0.77392479793E+03  0.12509000000E+03 0.  0.
         25    1    4    4    0    0  0.38332411150E+02 -0.13846461951E+02  0.14559732086E+03  0.19623247997E+03  0.12509000000E+03 0.  0.
<mgrwt>
<rscale>  2 0.46964812E+03</rscale>
<asrwt>0</asrwt>
<pdfrwt beam="1">  1       21 0.18008299E+00 0.46964812E+03</pdfrwt>
<pdfrwt beam="2">  1       21 0.66220838E-02 0.46964812E+03</pdfrwt>
<totfact> 0.26820022E+04</totfact>
</mgrwt>
</event>
<event>
 7    0  0.4712189E-002  0.4602269E+03  0.7546771E-02  0.1024715E+00
         21   -1    0    0  502  501  0.00000000000E+00  0.00000000000E+00  0.18300050979E+03  0.18300050979E+03  0.00000000000E+00 0. -1.
         21   -1    0    0  501  502 -0.00000000000E+00 -0.00000000000E+00 -0.28935552599E+03  0.28935552599E+03  0.00000000000E+00 0. -1.
      99926    2    1    2    0    0  0.00000000000E+00  0.00000000000E+00 -0.10635501620E+03  0.47235603577E+03  0.46022693865E+03 0.  0.
      99925    2    3    3    0    0  0.11045596671E+03 -0.41277232608E+02 -0.63044293137E+02  0.29507756176E+03  0.26304344517E+03 0.  0.
         25    1    3    3    0    0 -0.11045596671E+03  0.41277232608E+02 -0.43310723061E+02  0.17727847401E+03  0.12509000000E+03 0.  0.
         25    1    4    4    0    0  0.11224358654E+02 -0.18142228528E+02 -0.25612846437E+02  0.12945521498E+03  0.12509000000E+03 0.  0.
         25    1    4    4    0    0  0.99231608060E+02 -0.23135004080E+02 -0.37431446700E+02  0.16562234678E+03  0.12509000000E+03 0.  0.
<mgrwt>
<rscale>  2 0.46022694E+03</rscale>
<asrwt>0</asrwt>
<pdfrwt beam="1">  1       21 0.26911840E-01 0.46022694E+03</pdfrwt>
<pdfrwt beam="2">  1       21 0.42552282E-01 0.46022694E+03</pdfrwt>
<totfact> 0.64543071E+04</totfact>
</mgrwt>
</event>
<event>
 7    0  0.4712189E-002  0.4262890E+03  0.7546771E-02  0.1035039E+00
         21   -1    0    0  502  501  0.00000000000E+00  0.00000000000E+00  0.38988416102E+03  0.38988416102E+03  0.00000000000E+00 0. -1.
         21   -1    0    0  501  502 -0.00000000000E+00 -0.00000000000E+00 -0.11652326214E+03  0.11652326214E+03  0.00000000000E+00 0. -1.
      99926    2    1    2    0    0  0.00000000000E+00  0.71054273576E-14  0.27336089888E+03  0.50640742316E+03  0.42628898319E+03 0.  0.
      99925    2    3    3    0    0  0.16757695488E+02  0.42361423772E+02  0.94080591293E+02  0.28310438384E+03  0.26310002643E+03 0.  0.
         25    1    4    4    0    0  0.10215644518E+02 -0.39459349494E+00  0.91469562012E+01  0.12583993804E+03  0.12509000000E+03 0.  0.
         25    1    4    4    0    0  0.65420509704E+01  0.42756017267E+02  0.84933635091E+02  0.15726444580E+03  0.12509000000E+03 0.  0.
         25    1    3    3    0    0 -0.16757695488E+02 -0.42361423772E+02  0.17928030758E+03  0.22330303932E+03  0.12509000000E+03 0.  0.
<mgrwt>
<rscale>  2 0.42628898E+03</rscale>
<asrwt>0</asrwt>
<pdfrwt beam="1">  1       21 0.57335906E-01 0.42628898E+03</pdfrwt>
<pdfrwt beam="2">  1       21 0.17135774E-01 0.42628898E+03</pdfrwt>
<totfact> 0.81947850E+04</totfact>
</mgrwt>
</event>
<event>
 7    0  0.4712189E-002  0.4435192E+03  0.7546771E-02  0.1029672E+00
         21   -1    0    0  502  501  0.00000000000E+00  0.00000000000E+00  0.13425853887E+03  0.13425853887E+03  0.00000000000E+00 0. -1.
         21   -1    0    0  501  502 -0.00000000000E+00 -0.00000000000E+00 -0.36628817532E+03  0.36628817532E+03  0.00000000000E+00 0. -1.
      99926    2    1    2    0    0  0.00000000000E+00  0.00000000000E+00 -0.23202963646E+03  0.50054671419E+03  0.44351917760E+03 0.  0.
      99925    2    3    3    0    0 -0.15058013052E+02  0.17063354745E+02 -0.25989867071E+03  0.37038491871E+03  0.26290638475E+03 0.  0.
         25    1    4    4    0    0 -0.23140058665E+02  0.44867187845E+02 -0.14561248823E+03  0.19849189326E+03  0.12509000000E+03 0.  0.
         25    1    3    3    0    0  0.15058013052E+02 -0.17063354745E+02  0.27869034249E+02  0.13016179548E+03  0.12509000000E+03 0.  0.
         25    1    4    4    0    0  0.80820456130E+01 -0.27803833099E+02 -0.11428618247E+03  0.17189302545E+03  0.12509000000E+03 0.  0.
<mgrwt>
<rscale>  2 0.44351918E+03</rscale>
<asrwt>0</asrwt>
<pdfrwt beam="1">  1       21 0.19743903E-01 0.44351918E+03</pdfrwt>
<pdfrwt beam="2">  1       21 0.53865907E-01 0.44351918E+03</pdfrwt>
<totfact> 0.71531452E+04</totfact>
</mgrwt>
</event>
<event>
 7    0  0.4712189E-002  0.4364559E+03  0.7546771E-02  0.1031840E+00
         21   -1    0    0  502  501  0.00000000000E+00  0.00000000000E+00  0.34362560260E+03  0.34362560260E+03  0.00000000000E+00 0.  1.
         21   -1    0    0  501  502 -0.00000000000E+00 -0.00000000000E+00 -0.13859104319E+03  0.13859104319E+03  0.00000000000E+00 0.  1.
      99926    2    1    2    0    0  0.00000000000E+00  0.00000000000E+00  0.20503455941E+03  0.48221664579E+03  0.43645586595E+03 0.  0.
      99925    2    3    3    0    0  0.10564384749E+02  0.75671668047E+02  0.19391307057E+03  0.33521663496E+03  0.26254543577E+03 0.  0.
         25    1    4    4    0    0 -0.22925600140E+02  0.59670012443E+02  0.77959040053E+02  0.16065868652E+03  0.12509000000E+03 0.  0.
         25    1    3    3    0    0 -0.10564384749E+02 -0.75671668047E+02  0.11121488841E+02  0.14700001083E+03  0.12509000000E+03 0.  0.
         25    1    4    4    0    0  0.33489984889E+02  0.16001655604E+02  0.11595403052E+03  0.17455794844E+03  0.12509000000E+03 0.  0.
<mgrwt>
<rscale>  2 0.43645587E+03</rscale>
<asrwt>0</asrwt>
<pdfrwt beam="1">  1       21 0.50533177E-01 0.43645587E+03</pdfrwt>
<pdfrwt beam="2">  1       21 0.20381036E-01 0.43645587E+03</pdfrwt>
<totfact> 0.77308234E+04</totfact>
</mgrwt>
</event>
<event>
 7    0  0.4712189E-002  0.4549483E+03  0.7546771E-02  0.1026257E+00
         21   -1    0    0  502  501  0.00000000000E+00  0.00000000000E+00  0.50039647655E+03  0.50039647655E+03  0.00000000000E+00 0.  1.
         21   -1    0    0  501  502 -0.00000000000E+00 -0.00000000000E+00 -0.10340697306E+03  0.10340697306E+03  0.00000000000E+00 0.  1.
      99926    2    1    2    0    0  0.00000000000E+00  0.00000000000E+00  0.39698950348E+03  0.60380344961E+03  0.45494828265E+03 0.  0.
      99925    2    3    3    0    0 -0.10526013531E+03  0.41739818336E+02  0.24518285475E+03  0.37683500418E+03  0.26280806607E+03 0.  0.
         25    1    4    4    0    0 -0.34908405221E+02  0.52287884857E+02  0.97298553411E+02  0.17049086853E+03  0.12509000000E+03 0.  0.
         25    1    3    3    0    0  0.10526013531E+03 -0.41739818336E+02  0.15180664873E+03  0.22696844543E+03  0.12509000000E+03 0.  0.
         25    1    4    4    0    0 -0.70351730089E+02 -0.10548066520E+02  0.14788430134E+03  0.20634413565E+03  0.12509000000E+03 0.  0.
<mgrwt>
<rscale>  2 0.45494828E+03</rscale>
<asrwt>0</asrwt>
<pdfrwt beam="1">  1       21 0.73587716E-01 0.45494828E+03</pdfrwt>
<pdfrwt beam="2">  1       21 0.15206908E-01 0.45494828E+03</pdfrwt>
<totfact> 0.58468651E+04</totfact>
</mgrwt>
</event>
<event>
 7    0  0.4712189E-002  0.4368004E+03  0.7546771E-02  0.1031733E+00
         21   -1    0    0  502  501  0.00000000000E+00  0.00000000000E+00  0.61211590748E+03  0.61211590748E+03  0.00000000000E+00 0. -1.
         21   -1    0    0  501  502 -0.00000000000E+00 -0.00000000000E+00 -0.77924223059E+02  0.77924223059E+02  0.00000000000E+00 0. -1.
      99926    2    1    2    0    0  0.26645352591E-14  0.00000000000E+00  0.53419168442E+03  0.69004013053E+03  0.43680044190E+03 0.  0.
      99925    2    3    3    0    0  0.71643775869E+01  0.89684339674E+02  0.39079283316E+03  0.47955177520E+03  0.26297577372E+03 0.  0.
         25    1    3    3    0    0 -0.71643775869E+01 -0.89684339674E+02  0.14339885126E+03  0.21048835534E+03  0.12509000000E+03 0.  0.
         25    1    4    4    0    0 -0.26593192297E+02  0.66661368088E+02  0.23379335087E+03  0.27469578606E+03  0.12509000000E+03 0.  0.
         25    1    4    4    0    0  0.33757569884E+02  0.23022971585E+02  0.15699948229E+03  0.20485598913E+03  0.12509000000E+03 0.  0.
<mgrwt>
<rscale>  2 0.43680044E+03</rscale>
<asrwt>0</asrwt>
<pdfrwt beam="1">  1       21 0.90017043E-01 0.43680044E+03</pdfrwt>
<pdfrwt beam="2">  1       21 0.11459445E-01 0.43680044E+03</pdfrwt>
<totfact> 0.61841844E+04</totfact>
</mgrwt>
</event>
<event>
 7    0  0.4712189E-002  0.4724167E+03  0.7546771E-02  0.1021240E+00
         21   -1    0    0  502  501  0.00000000000E+00  0.00000000000E+00  0.53373686139E+03  0.53373686139E+03  0.00000000000E+00 0. -1.
         21   -1    0    0  501  502 -0.00000000000E+00 -0.00000000000E+00 -0.10453539860E+03  0.10453539860E+03  0.00000000000E+00 0. -1.
      99926    2    1    2    0    0  0.00000000000E+00  0.14210854715E-13  0.42920146279E+03  0.63827225999E+03  0.47241674633E+03 0.  0.
      99925    2    3    3    0    0  0.35450419029E+02  0.94729883299E+02  0.15840233721E+03  0.32329582037E+03  0.26305589527E+03 0.  0.
         25    1    4    4    0    0 -0.12040362090E+02  0.64606507233E+02  0.55404665832E+02  0.15177666551E+03  0.12509000000E+03 0.  0.
         25    1    4    4    0    0  0.47490781119E+02  0.30123376066E+02  0.10299767138E+03  0.17151915487E+03  0.12509000000E+03 0.  0.
         25    1    3    3    0    0 -0.35450419029E+02 -0.94729883299E+02  0.27079912558E+03  0.31497643962E+03  0.12509000000E+03 0.  0.
<mgrwt>
<rscale>  2 0.47241675E+03</rscale>
<asrwt>0</asrwt>
<pdfrwt beam="1">  1       21 0.78490714E-01 0.47241675E+03</pdfrwt>
<pdfrwt beam="2">  1       21 0.15372853E-01 0.47241675E+03</pdfrwt>
<totfact> 0.49253897E+04</totfact>
</mgrwt>
</event>
<event>
 7    0  0.4712189E-002  0.4645540E+03  0.7546771E-02  0.1023469E+00
         21   -1    0    0  502  501  0.00000000000E+00  0.00000000000E+00  0.16957405731E+04  0.16957405731E+04  0.00000000000E+00 0.  1.
         21   -1    0    0  501  502 -0.00000000000E+00 -0.00000000000E+00 -0.31816540391E+02  0.31816540391E+02  0.00000000000E+00 0.  1.
      99926    2    1    2    0    0  0.00000000000E+00  0.00000000000E+00  0.16639240328E+04  0.17275571135E+04  0.46455397291E+03 0.  0.
      99925    2    3    3    0    0  0.72834731796E+02 -0.78505465050E+01  0.67658815500E+03  0.72963618839E+03  0.26311766700E+03 0.  0.
         25    1    4    4    0    0 -0.30977749572E+00 -0.21446596287E+02  0.34071467294E+03  0.36358499545E+03  0.12509000000E+03 0.  0.
         25    1    3    3    0    0 -0.72834731796E+02  0.78505465050E+01  0.98733587776E+03  0.99792092514E+03  0.12509000000E+03 0.  0.
         25    1    4    4    0    0  0.73144509292E+02  0.13596049782E+02  0.33587348206E+03  0.36605119295E+03  0.12509000000E+03 0.  0.
<mgrwt>
<rscale>  2 0.46455397E+03</rscale>
<asrwt>0</asrwt>
<pdfrwt beam="1">  1       21 0.24937355E+00 0.46455397E+03</pdfrwt>
<pdfrwt beam="2">  1       21 0.46789042E-02 0.46455397E+03</pdfrwt>
<totfact> 0.17369413E+04</totfact>
</mgrwt>
</event>
<event>
 7    0  0.4712189E-002  0.4564095E+03  0.7546771E-02  0.1025828E+00
         21   -1    0    0  502  501  0.00000000000E+00  0.00000000000E+00  0.59791636652E+03  0.59791636652E+03  0.00000000000E+00 0. -1.
         21   -1    0    0  501  502 -0.00000000000E+00 -0.00000000000E+00 -0.87098161288E+02  0.87098161288E+02  0.00000000000E+00 0. -1.
      99926    2    1    2    0    0  0.00000000000E+00  0.00000000000E+00  0.51081820523E+03  0.68501452781E+03  0.45640953596E+03 0.  0.
      99925    2    3    3    0    0  0.66142247598E+02  0.80274118416E+02  0.24927360942E+03  0.37700184186E+03  0.26301012416E+03 0.  0.
         25    1    3    3    0    0 -0.66142247598E+02 -0.80274118416E+02  0.26154459581E+03  0.30801268595E+03  0.12509000000E+03 0.  0.
         25    1    4    4    0    0  0.16713773274E+01  0.99526393019E+01  0.10865385274E+03  0.16599703716E+03  0.12509000000E+03 0.  0.
         25    1    4    4    0    0  0.64470870271E+02  0.70321479114E+02  0.14061975667E+03  0.21100480470E+03  0.12509000000E+03 0.  0.
<mgrwt>
<rscale>  2 0.45640954E+03</rscale>
<asrwt>0</asrwt>
<pdfrwt beam="1">  1       21 0.87928876E-01 0.45640954E+03</pdfrwt>
<pdfrwt beam="2">  1       21 0.12808553E-01 0.45640954E+03</pdfrwt>
<totfact> 0.53132287E+04</totfact>
</mgrwt>
</event>
<event>
 7    0  0.4712189E-002  0.4523871E+03  0.7546771E-02  0.1027013E+00
         21   -1    0    0  502  501  0.00000000000E+00  0.00000000000E+00  0.43381833266E+02  0.43381833266E+02  0.00000000000E+00 0.  1.
         21   -1    0    0  501  502 -0.00000000000E+00 -0.00000000000E+00 -0.11793767848E+04  0.11793767848E+04  0.00000000000E+00 0.  1.
      99926    2    1    2    0    0  0.00000000000E+00 -0.17763568394E-14 -0.11359949516E+04  0.12227586181E+04  0.45238712200E+03 0.  0.
      99925    2    3    3    0    0  0.36213308166E+02 -0.88158695934E+01 -0.43487971481E+03  0.50959720119E+03  0.26302056549E+03 0.  0.
         25    1    4    4    0    0  0.32843460136E+02  0.36233972231E+01 -0.14931956434E+03  0.19757444743E+03  0.12509000000E+03 0.  0.
         25    1    3    3    0    0 -0.36213308166E+02  0.88158695934E+01 -0.70111523677E+03  0.71316141692E+03  0.12509000000E+03 0.  0.
         25    1    4    4    0    0  0.33698480305E+01 -0.12439266816E+02 -0.28556015047E+03  0.31202275377E+03  0.12509000000E+03 0.  0.
<mgrwt>
<rscale>  2 0.45238712E+03</rscale>
<asrwt>0</asrwt>
<pdfrwt beam="1">  1       21 0.63796818E-02 0.45238712E+03</pdfrwt>
<pdfrwt beam="2">  1       21 0.17343775E+00 0.45238712E+03</pdfrwt>
<totfact> 0.32090879E+04</totfact>
</mgrwt>
</event>
<event>
 7    0  0.4712189E-002  0.4551463E+03  0.7546771E-02  0.1026198E+00
         21   -1    0    0  502  501  0.00000000000E+00  0.00000000000E+00  0.90793636498E+03  0.90793636498E+03  0.00000000000E+00 0.  1.
         21   -1    0    0  501  502 -0.00000000000E+00 -0.00000000000E+00 -0.57040930292E+02  0.57040930292E+02  0.00000000000E+00 0.  1.
      99926    2    1    2    0    0  0.00000000000E+00  0.00000000000E+00  0.85089543469E+03  0.96497729527E+03  0.45514628376E+03 0.  0.
      99925    2    3    3    0    0  0.82018633292E+02 -0.76469484403E+02  0.49967826876E+03  0.57565012695E+03  0.26290693816E+03 0.  0.
         25    1    4    4    0    0  0.37712751244E+02 -0.51709165787E+01  0.28304302970E+03  0.31178494952E+03  0.12509000000E+03 0.  0.
         25    1    3    3    0    0 -0.82018633292E+02  0.76469484403E+02  0.35121716593E+03  0.38932716833E+03  0.12509000000E+03 0.  0.
         25    1    4    4    0    0  0.44305882048E+02 -0.71298567824E+02  0.21663523906E+03  0.26386517743E+03  0.12509000000E+03 0.  0.
<mgrwt>
<rscale>  2 0.45514628E+03</rscale>
<asrwt>0</asrwt>
<pdfrwt beam="1">  1       21 0.13352005E+00 0.45514628E+03</pdfrwt>
<pdfrwt beam="2">  1       21 0.83883726E-02 0.45514628E+03</pdfrwt>
<totfact> 0.40493908E+04</totfact>
</mgrwt>
</event>
<event>
 7    0  0.4712189E-002  0.4512592E+03  0.7546771E-02  0.1027347E+00
         21   -1    0    0  502  501  0.00000000000E+00  0.00000000000E+00  0.12740908390E+03  0.12740908390E+03  0.00000000000E+00 0. -1.
         21   -1    0    0  501  502 -0.00000000000E+00 -0.00000000000E+00 -0.39956905176E+03  0.39956905176E+03  0.00000000000E+00 0. -1.
      99926    2    1    2    0    0 -0.22204460493E-15  0.00000000000E+00 -0.27215996786E+03  0.52697813566E+03  0.45125924629E+03 0.  0.
      99925    2    3    3    0    0 -0.15329723650E+01  0.10651986239E+03 -0.14168858795E+03  0.31717079507E+03  0.26300727405E+03 0.  0.
         25    1    3    3    0    0  0.15329723650E+01 -0.10651986239E+03 -0.13047137991E+03  0.20980734059E+03  0.12509000000E+03 0.  0.
         25    1    4    4    0    0 -0.20702087112E+02  0.17481963544E+02 -0.77683807274E+02  0.14972133272E+03  0.12509000000E+03 0.  0.
         25    1    4    4    0    0  0.19169114747E+02  0.89037898850E+02 -0.64004780678E+02  0.16744946235E+03  0.12509000000E+03 0.  0.
<mgrwt>
<rscale>  2 0.45125925E+03</rscale>
<asrwt>0</asrwt>
<pdfrwt beam="1">  1       21 0.18736630E-01 0.45125925E+03</pdfrwt>
<pdfrwt beam="2">  1       21 0.58760155E-01 0.45125925E+03</pdfrwt>
<totfact> 0.65327112E+04</totfact>
</mgrwt>
</event>
<event>
 7    0  0.4712189E-002  0.4474799E+03  0.7546771E-02  0.1028476E+00
         21   -1    0    0  502  501  0.00000000000E+00  0.00000000000E+00  0.61333209261E+02  0.61333209261E+02  0.00000000000E+00 0.  1.
         21   -1    0    0  501  502 -0.00000000000E+00 -0.00000000000E+00 -0.81619012828E+03  0.81619012828E+03  0.00000000000E+00 0.  1.
      99926    2    1    2    0    0 -0.17763568394E-14 -0.71054273576E-14 -0.75485691902E+03  0.87752333754E+03  0.44747987635E+03 0.  0.
      99925    2    3    3    0    0  0.10898743024E+02  0.38318189654E+02 -0.28592998197E+03  0.39056641270E+03  0.26305722169E+03 0.  0.
         25    1    4    4    0    0  0.41235749725E+02  0.80375301058E-01 -0.14605164373E+03  0.19666973395E+03  0.12509000000E+03 0.  0.
         25    1    3    3    0    0 -0.10898743024E+02 -0.38318189654E+02 -0.46892693706E+03  0.48695692485E+03  0.12509000000E+03 0.  0.
         25    1    4    4    0    0 -0.30337006701E+02  0.38237814353E+02 -0.13987833824E+03  0.19389667875E+03  0.12509000000E+03 0.  0.
<mgrwt>
<rscale>  2 0.44747988E+03</rscale>
<asrwt>0</asrwt>
<pdfrwt beam="1">  1       21 0.90195904E-02 0.44747988E+03</pdfrwt>
<pdfrwt beam="2">  1       21 0.12002795E+00 0.44747988E+03</pdfrwt>
<totfact> 0.46923077E+04</totfact>
</mgrwt>
</event>
<event>
 7    0  0.4712189E-002  0.4738445E+03  0.7546771E-02  0.1020841E+00
         21   -1    0    0  502  501  0.00000000000E+00  0.00000000000E+00  0.52966689584E+03  0.52966689584E+03  0.00000000000E+00 0.  1.
         21   -1    0    0  501  502 -0.00000000000E+00 -0.00000000000E+00 -0.10597633992E+03  0.10597633992E+03  0.00000000000E+00 0.  1.
      99926    2    1    2    0    0  0.00000000000E+00  0.00000000000E+00  0.42369055592E+03  0.63564323576E+03  0.47384452724E+03 0.  0.
      99925    2    3    3    0    0  0.48425164085E+02  0.10768287959E+03  0.33550170409E+03  0.44234196634E+03  0.26299129770E+03 0.  0.
         25    1    3    3    0    0 -0.48425164085E+02 -0.10768287959E+03  0.88188851833E+02  0.19330126943E+03  0.12509000000E+03 0.  0.
         25    1    4    4    0    0 -0.88016637684E+01  0.61684456937E+02  0.19898219841E+03  0.24315399420E+03  0.12509000000E+03 0.  0.
         25    1    4    4    0    0  0.57226827854E+02  0.45998422656E+02  0.13651950568E+03  0.19918797213E+03  0.12509000000E+03 0.  0.
<mgrwt>
<rscale>  2 0.47384453E+03</rscale>
<asrwt>0</asrwt>
<pdfrwt beam="1">  1       21 0.77892189E-01 0.47384453E+03</pdfrwt>
<pdfrwt beam="2">  1       21 0.15584756E-01 0.47384453E+03</pdfrwt>
<totfact> 0.48853321E+04</totfact>
</mgrwt>
</event>
<event>
 7    0  0.4712189E-002  0.4513402E+03  0.7546771E-02  0.1027323E+00
         21   -1    0    0  502  501  0.00000000000E+00  0.00000000000E+00  0.41897274061E+03  0.41897274061E+03  0.00000000000E+00 0. -1.
         21   -1    0    0  501  502 -0.00000000000E+00 -0.00000000000E+00 -0.12155206697E+03  0.12155206697E+03  0.00000000000E+00 0. -1.
      99926    2    1    2    0    0  0.00000000000E+00  0.00000000000E+00  0.29742067364E+03  0.54052480759E+03  0.45134023808E+03 0.  0.
      99925    2    3    3    0    0  0.10268262012E+03  0.38418142269E+02  0.18966903581E+03  0.34233904199E+03  0.26306273472E+03 0.  0.
         25    1    4    4    0    0  0.74152909683E+02  0.53932662764E+02  0.11502239010E+03  0.19309335683E+03  0.12509000000E+03 0.  0.
         25    1    3    3    0    0 -0.10268262012E+03 -0.38418142269E+02  0.10775163782E+03  0.19818576559E+03  0.12509000000E+03 0.  0.
         25    1    4    4    0    0  0.28529710436E+02 -0.15514520495E+02  0.74646645711E+02  0.14924568516E+03  0.12509000000E+03 0.  0.
<mgrwt>
<rscale>  2 0.45134024E+03</rscale>
<asrwt>0</asrwt>
<pdfrwt beam="1">  1       21 0.61613638E-01 0.45134024E+03</pdfrwt>
<pdfrwt beam="2">  1       21 0.17875304E-01 0.45134024E+03</pdfrwt>
<totfact> 0.64340321E+04</totfact>
</mgrwt>
</event>
<event>
 7    0  0.4712189E-002  0.4551113E+03  0.7546771E-02  0.1026209E+00
         21   -1    0    0  502  501  0.00000000000E+00  0.00000000000E+00  0.17627056702E+03  0.17627056702E+03  0.00000000000E+00 0.  1.
         21   -1    0    0  501  502 -0.00000000000E+00 -0.00000000000E+00 -0.29376193080E+03  0.29376193080E+03  0.00000000000E+00 0.  1.
      99926    2    1    2    0    0  0.00000000000E+00  0.66613381478E-15 -0.11749136378E+03  0.47003249782E+03  0.45511133632E+03 0.  0.
      99925    2    3    3    0    0 -0.92647523110E+02 -0.18249527841E+01 -0.63048117245E+01  0.27872946217E+03  0.26279929307E+03 0.  0.
         25    1    4    4    0    0 -0.38022414825E+02  0.28751608830E+02 -0.29134818194E+02  0.13699892252E+03  0.12509000000E+03 0.  0.
         25    1    3    3    0    0  0.92647523110E+02  0.18249527841E+01 -0.11118655206E+03  0.19130303565E+03  0.12509000000E+03 0.  0.
         25    1    4    4    0    0 -0.54625108284E+02 -0.30576561614E+02  0.22830006470E+02  0.14173053965E+03  0.12509000000E+03 0.  0.
<mgrwt>
<rscale>  2 0.45511134E+03</rscale>
<asrwt>0</asrwt>
<pdfrwt beam="1">  1       21 0.25922143E-01 0.45511134E+03</pdfrwt>
<pdfrwt beam="2">  1       21 0.43200283E-01 0.45511134E+03</pdfrwt>
<totfact> 0.67373773E+04</totfact>
</mgrwt>
</event>
<event>
 7    0  0.4712189E-002  0.4564430E+03  0.7546771E-02  0.1025818E+00
         21   -1    0    0  502  501  0.00000000000E+00  0.00000000000E+00  0.68179488009E+02  0.68179488009E+02  0.00000000000E+00 0. -1.
         21   -1    0    0  501  502 -0.00000000000E+00 -0.00000000000E+00 -0.76394007627E+03  0.76394007627E+03  0.00000000000E+00 0. -1.
      99926    2    1    2    0    0  0.00000000000E+00  0.00000000000E+00 -0.69576058826E+03  0.83211956428E+03  0.45644295709E+03 0.  0.
      99925    2    3    3    0    0  0.48204849430E+02 -0.69864542571E+02 -0.29746438789E+03  0.40610062908E+03  0.26311194777E+03 0.  0.
         25    1    4    4    0    0  0.21219051988E+02 -0.34046639612E+02 -0.20763391422E+03  0.24570057442E+03  0.12509000000E+03 0.  0.
         25    1    3    3    0    0 -0.48204849430E+02  0.69864542571E+02 -0.39829620037E+03  0.42601893519E+03  0.12509000000E+03 0.  0.
         25    1    4    4    0    0  0.26985797442E+02 -0.35817902959E+02 -0.89830473673E+02  0.16040005466E+03  0.12509000000E+03 0.  0.
<mgrwt>
<rscale>  2 0.45644296E+03</rscale>
<asrwt>0</asrwt>
<pdfrwt beam="1">  1       21 0.10026396E-01 0.45644296E+03</pdfrwt>
<pdfrwt beam="2">  1       21 0.11234413E+00 0.45644296E+03</pdfrwt>
<totfact> 0.45730202E+04</totfact>
</mgrwt>
</event>
<event>
 7    0  0.4712189E-002  0.4574658E+03  0.7546771E-02  0.1025519E+00
         21   -1    0    0  502  501  0.00000000000E+00  0.00000000000E+00  0.12745084013E+03  0.12745084013E+03  0.00000000000E+00 0. -1.
         21   -1    0    0  501  502 -0.00000000000E+00 -0.00000000000E+00 -0.41050136607E+03  0.41050136607E+03  0.00000000000E+00 0. -1.
      99926    2    1    2    0    0  0.00000000000E+00  0.35527136788E-14 -0.28305052594E+03  0.53795220620E+03  0.45746581940E+03 0.  0.
      99925    2    3    3    0    0 -0.79085110885E+02  0.27236979824E+02 -0.84354806410E+02  0.28870573201E+03  0.26313296733E+03 0.  0.
         25    1    3    3    0    0  0.79085110885E+02 -0.27236979824E+02 -0.19869571953E+03  0.24924647419E+03  0.12509000000E+03 0.  0.
         25    1    4    4    0    0 -0.64949266082E+02  0.96468554293E+01 -0.78136863096E+02  0.16144456156E+03  0.12509000000E+03 0.  0.
         25    1    4    4    0    0 -0.14135844803E+02  0.17590124395E+02 -0.62179433147E+01  0.12726117045E+03  0.12509000000E+03 0.  0.
<mgrwt>
<rscale>  2 0.45746582E+03</rscale>
<asrwt>0</asrwt>
<pdfrwt beam="1">  1       21 0.18742771E-01 0.45746582E+03</pdfrwt>
<pdfrwt beam="2">  1       21 0.60367848E-01 0.45746582E+03</pdfrwt>
<totfact> 0.61461445E+04</totfact>
</mgrwt>
</event>
<event>
 7    0  0.4712189E-002  0.4604915E+03  0.7546771E-02  0.1024639E+00
         21   -1    0    0  502  501  0.00000000000E+00  0.00000000000E+00  0.73091517219E+02  0.73091517219E+02  0.00000000000E+00 0.  1.
         21   -1    0    0  501  502 -0.00000000000E+00 -0.00000000000E+00 -0.72529758194E+03  0.72529758194E+03  0.00000000000E+00 0.  1.
      99926    2    1    2    0    0  0.00000000000E+00  0.00000000000E+00 -0.65220606472E+03  0.79838909916E+03  0.46049147961E+03 0.  0.
      99925    2    3    3    0    0  0.23364673389E+02 -0.87840710137E+02 -0.28153759522E+03  0.39676175858E+03  0.26437582573E+03 0.  0.
         25    1    4    4    0    0 -0.13522208856E+02 -0.71452308017E+02 -0.17831250374E+03  0.22963261864E+03  0.12509000000E+03 0.  0.
         25    1    4    4    0    0  0.36886882245E+02 -0.16388402121E+02 -0.10322509148E+03  0.16712913994E+03  0.12509000000E+03 0.  0.
         25    1    3    3    0    0 -0.23364673389E+02  0.87840710137E+02 -0.37066846950E+03  0.40162734058E+03  0.12509000000E+03 0.  0.
<mgrwt>
<rscale>  2 0.46049148E+03</rscale>
<asrwt>0</asrwt>
<pdfrwt beam="1">  1       21 0.10748753E-01 0.46049148E+03</pdfrwt>
<pdfrwt beam="2">  1       21 0.10666141E+00 0.46049148E+03</pdfrwt>
<totfact> 0.45835334E+04</totfact>
</mgrwt>
</event>
<event>
 7    0  0.4712189E-002  0.4559367E+03  0.7546771E-02  0.1025966E+00
         21   -1    0    0  502  501  0.00000000000E+00  0.00000000000E+00  0.98281214436E+02  0.98281214436E+02  0.00000000000E+00 0.  1.
         21   -1    0    0  501  502 -0.00000000000E+00 -0.00000000000E+00 -0.52878433934E+03  0.52878433934E+03  0.00000000000E+00 0.  1.
      99926    2    1    2    0    0  0.00000000000E+00  0.00000000000E+00 -0.43050312490E+03  0.62706555377E+03  0.45593669317E+03 0.  0.
      99925    2    3    3    0    0 -0.76477651331E+02  0.83572535773E+02 -0.28308141792E+03  0.40298104365E+03  0.26348706321E+03 0.  0.
         25    1    4    4    0    0 -0.12558075923E+02  0.30000067830E+02 -0.86602806975E+02  0.15558040885E+03  0.12509000000E+03 0.  0.
         25    1    4    4    0    0 -0.63919575407E+02  0.53572467943E+02 -0.19647861095E+03  0.24740063481E+03  0.12509000000E+03 0.  0.
         25    1    3    3    0    0  0.76477651331E+02 -0.83572535773E+02 -0.14742170698E+03  0.22408451012E+03  0.12509000000E+03 0.  0.
<mgrwt>
<rscale>  2 0.45593669E+03</rscale>
<asrwt>0</asrwt>
<pdfrwt beam="1">  1       21 0.14453120E-01 0.45593669E+03</pdfrwt>
<pdfrwt beam="2">  1       21 0.77762401E-01 0.45593669E+03</pdfrwt>
<totfact> 0.56622598E+04</totfact>
</mgrwt>
</event>
<event>
 7    0  0.4712189E-002  0.4294617E+03  0.7546771E-02  0.1034030E+00
         21   -1    0    0  502  501  0.00000000000E+00  0.00000000000E+00  0.61525350151E+03  0.61525350151E+03  0.00000000000E+00 0.  1.
         21   -1    0    0  501  502 -0.00000000000E+00 -0.00000000000E+00 -0.74943635448E+02  0.74943635448E+02  0.00000000000E+00 0.  1.
      99926    2    1    2    0    0  0.88817841970E-15  0.00000000000E+00  0.54030986606E+03  0.69019713696E+03  0.42946168223E+03 0.  0.
      99925    2    3    3    0    0  0.31065252524E+01  0.27314558599E+02  0.21550552360E+03  0.34105375010E+03  0.26290548518E+03 0.  0.
         25    1    3    3    0    0 -0.31065252524E+01 -0.27314558599E+02  0.32480434246E+03  0.34914338686E+03  0.12509000000E+03 0.  0.
         25    1    4    4    0    0  0.40373235759E+02  0.28173121196E+01  0.11091983780E+03  0.17201352834E+03  0.12509000000E+03 0.  0.
         25    1    4    4    0    0 -0.37266710507E+02  0.24497246479E+02  0.10458568580E+03  0.16904022176E+03  0.12509000000E+03 0.  0.
<mgrwt>
<rscale>  2 0.42946168E+03</rscale>
<asrwt>0</asrwt>
<pdfrwt beam="1">  1       21 0.90478454E-01 0.42946168E+03</pdfrwt>
<pdfrwt beam="2">  1       21 0.11021123E-01 0.42946168E+03</pdfrwt>
<totfact> 0.65679284E+04</totfact>
</mgrwt>
</event>
<event>
 7    0  0.4712189E-002  0.4737730E+03  0.7546771E-02  0.1020861E+00
         21   -1    0    0  502  501  0.00000000000E+00  0.00000000000E+00  0.94730698090E+03  0.94730698090E+03  0.00000000000E+00 0.  1.
         21   -1    0    0  501  502 -0.00000000000E+00 -0.00000000000E+00 -0.59236568981E+02  0.59236568981E+02  0.00000000000E+00 0.  1.
      99926    2    1    2    0    0  0.00000000000E+00 -0.71054273576E-14  0.88807041192E+03  0.10065435499E+04  0.47377300607E+03 0.  0.
      99925    2    3    3    0    0 -0.11285409494E+03  0.55831965267E+02  0.61903532785E+03  0.68423835344E+03  0.26291468600E+03 0.  0.
         25    1    3    3    0    0  0.11285409494E+03 -0.55831965267E+02  0.26903508408E+03  0.32230519644E+03  0.12509000000E+03 0.  0.
         25    1    4    4    0    0 -0.39322503192E+02  0.78257421251E+01  0.36323337745E+03  0.38625573924E+03  0.12509000000E+03 0.  0.
         25    1    4    4    0    0 -0.73531591744E+02  0.48006223142E+02  0.25580195039E+03  0.29798261421E+03  0.12509000000E+03 0.  0.
<mgrwt>
<rscale>  2 0.47377301E+03</rscale>
<asrwt>0</asrwt>
<pdfrwt beam="1">  1       21 0.13930984E+00 0.47377301E+03</pdfrwt>
<pdfrwt beam="2">  1       21 0.87112607E-02 0.47377301E+03</pdfrwt>
<totfact> 0.33695466E+04</totfact>
</mgrwt>
</event>
<event>
 7    0  0.4712189E-002  0.4542046E+03  0.7546771E-02  0.1026476E+00
         21   -1    0    0  502  501  0.00000000000E+00  0.00000000000E+00  0.80120721867E+03  0.80120721867E+03  0.00000000000E+00 0. -1.
         21   -1    0    0  501  502 -0.00000000000E+00 -0.00000000000E+00 -0.64372174240E+02  0.64372174240E+02  0.00000000000E+00 0. -1.
      99926    2    1    2    0    0  0.00000000000E+00  0.00000000000E+00  0.73683504443E+03  0.86557939291E+03  0.45420458246E+03 0.  0.
      99925    2    3    3    0    0  0.11166543903E+03 -0.21321974149E+01  0.44403508038E+03  0.52815822643E+03  0.26326838587E+03 0.  0.
         25    1    4    4    0    0  0.50898790347E+02  0.11252038527E+02  0.14716412148E+03  0.20005519734E+03  0.12509000000E+03 0.  0.
         25    1    3    3    0    0 -0.11166543903E+03  0.21321974149E+01  0.29279996405E+03  0.33742116648E+03  0.12509000000E+03 0.  0.
         25    1    4    4    0    0  0.60766648684E+02 -0.13384235942E+02  0.29687095889E+03  0.32810302909E+03  0.12509000000E+03 0.  0.
<mgrwt>
<rscale>  2 0.45420458E+03</rscale>
<asrwt>0</asrwt>
<pdfrwt beam="1">  1       21 0.11782459E+00 0.45420458E+03</pdfrwt>
<pdfrwt beam="2">  1       21 0.94664967E-02 0.45420458E+03</pdfrwt>
<totfact> 0.45030466E+04</totfact>
</mgrwt>
</event>
<event>
 7    0  0.4712189E-002  0.4553559E+03  0.7546771E-02  0.1026137E+00
         21   -1    0    0  502  501  0.00000000000E+00  0.00000000000E+00  0.17450741048E+03  0.17450741048E+03  0.00000000000E+00 0.  1.
         21   -1    0    0  501  502 -0.00000000000E+00 -0.00000000000E+00 -0.29704900904E+03  0.29704900904E+03  0.00000000000E+00 0.  1.
      99926    2    1    2    0    0  0.00000000000E+00  0.00000000000E+00 -0.12254159857E+03  0.47155641952E+03  0.45535591948E+03 0.  0.
      99925    2    3    3    0    0  0.11117666604E+03  0.39625062510E+01 -0.99842244843E+02  0.30262234573E+03  0.26312707529E+03 0.  0.
         25    1    4    4    0    0  0.31204994153E+02  0.17252720200E+02 -0.78805145154E+02  0.15208276371E+03  0.12509000000E+03 0.  0.
         25    1    3    3    0    0 -0.11117666604E+03 -0.39625062510E+01 -0.22699353722E+02  0.16893407379E+03  0.12509000000E+03 0.  0.
         25    1    4    4    0    0  0.79971671888E+02 -0.13290213949E+02 -0.21037099689E+02  0.15053958202E+03  0.12509000000E+03 0.  0.
<mgrwt>
<rscale>  2 0.45535592E+03</rscale>
<asrwt>0</asrwt>
<pdfrwt beam="1">  1       21 0.25662855E-01 0.45535592E+03</pdfrwt>
<pdfrwt beam="2">  1       21 0.43683677E-01 0.45535592E+03</pdfrwt>
<totfact> 0.67130382E+04</totfact>
</mgrwt>
</event>
<event>
 7    0  0.4712189E-002  0.4510292E+03  0.7546771E-02  0.1027416E+00
         21   -1    0    0  502  501  0.00000000000E+00  0.00000000000E+00  0.37176368194E+03  0.37176368194E+03  0.00000000000E+00 0. -1.
         21   -1    0    0  501  502 -0.00000000000E+00 -0.00000000000E+00 -0.13679880873E+03  0.13679880873E+03  0.00000000000E+00 0. -1.
      99926    2    1    2    0    0  0.00000000000E+00  0.00000000000E+00  0.23496487321E+03  0.50856249067E+03  0.45102917342E+03 0.  0.
      99925    2    3    3    0    0  0.68661582757E+02  0.34588884219E+02  0.60905199901E+02  0.28084538145E+03  0.26316132134E+03 0.  0.
         25    1    4    4    0    0  0.11519592553E+02 -0.17910102736E+02  0.31331220001E+02  0.13070052119E+03  0.12509000000E+03 0.  0.
         25    1    4    4    0    0  0.57141990204E+02  0.52498986954E+02  0.29573979900E+02  0.15014486026E+03  0.12509000000E+03 0.  0.
         25    1    3    3    0    0 -0.68661582757E+02 -0.34588884219E+02  0.17405967331E+03  0.22771710922E+03  0.12509000000E+03 0.  0.
<mgrwt>
<rscale>  2 0.45102917E+03</rscale>
<asrwt>0</asrwt>
<pdfrwt beam="1">  1       21 0.54671130E-01 0.45102917E+03</pdfrwt>
<pdfrwt beam="2">  1       21 0.20117472E-01 0.45102917E+03</pdfrwt>
<totfact> 0.66752085E+04</totfact>
</mgrwt>
</event>
<event>
 7    0  0.4712189E-002  0.4635615E+03  0.7546771E-02  0.1023753E+00
         21   -1    0    0  502  501  0.00000000000E+00  0.00000000000E+00  0.18103202815E+03  0.18103202815E+03  0.00000000000E+00 0. -1.
         21   -1    0    0  501  502 -0.00000000000E+00 -0.00000000000E+00 -0.29675589449E+03  0.29675589449E+03  0.00000000000E+00 0. -1.
      99926    2    1    2    0    0  0.14210854715E-13  0.53290705182E-14 -0.11572386633E+03  0.47778792264E+03  0.46356152319E+03 0.  0.
      99925    2    3    3    0    0  0.83707904901E+02  0.14303937211E+02 -0.16096520750E+03  0.31997188096E+03  0.26317406904E+03 0.  0.
         25    1    4    4    0    0  0.30119636604E+02 -0.28836197021E+02 -0.96135388203E+02  0.16318161579E+03  0.12509000000E+03 0.  0.
         25    1    3    3    0    0 -0.83707904901E+02 -0.14303937211E+02  0.45241341162E+02  0.15781604168E+03  0.12509000000E+03 0.  0.
         25    1    4    4    0    0  0.53588268297E+02  0.43140134232E+02 -0.64829819293E+02  0.15679026516E+03  0.12509000000E+03 0.  0.
<mgrwt>
<rscale>  2 0.46356152E+03</rscale>
<asrwt>0</asrwt>
<pdfrwt beam="1">  1       21 0.26622357E-01 0.46356152E+03</pdfrwt>
<pdfrwt beam="2">  1       21 0.43640572E-01 0.46356152E+03</pdfrwt>
<totfact> 0.62506136E+04</totfact>
</mgrwt>
</event>
<event>
 7    0  0.4712189E-002  0.4556085E+03  0.7546771E-02  0.1026063E+00
         21   -1    0    0  502  501  0.00000000000E+00  0.00000000000E+00  0.20420268490E+04  0.20420268490E+04  0.00000000000E+00 0. -1.
         21   -1    0    0  501  502 -0.00000000000E+00 -0.00000000000E+00 -0.25413371675E+02  0.25413371675E+02  0.00000000000E+00 0. -1.
      99926    2    1    2    0    0  0.00000000000E+00  0.00000000000E+00  0.20166134773E+04  0.20674402207E+04  0.45560854813E+03 0.  0.
      99925    2    3    3    0    0  0.11130566557E+03  0.14717638230E+02  0.13505280182E+04  0.13804737681E+04  0.26301394695E+03 0.  0.
         25    1    3    3    0    0 -0.11130566557E+03 -0.14717638230E+02  0.66608545912E+03  0.68696645261E+03  0.12509000000E+03 0.  0.
         25    1    4    4    0    0  0.41400008736E+02  0.21337685094E+02  0.48034448542E+03  0.49854547466E+03  0.12509000000E+03 0.  0.
         25    1    4    4    0    0  0.69905656831E+02 -0.66200468640E+01  0.87018353278E+03  0.88192829340E+03  0.12509000000E+03 0.  0.
<mgrwt>
<rscale>  2 0.45560855E+03</rscale>
<asrwt>0</asrwt>
<pdfrwt beam="1">  1       21 0.30029795E+00 0.45560855E+03</pdfrwt>
<pdfrwt beam="2">  1       21 0.37372619E-02 0.45560855E+03</pdfrwt>
<totfact> 0.12580324E+04</totfact>
</mgrwt>
</event>
<event>
 7    0  0.4712189E-002  0.4531643E+03  0.7546771E-02  0.1026783E+00
         21   -1    0    0  502  501  0.00000000000E+00  0.00000000000E+00  0.30029744213E+02  0.30029744213E+02  0.00000000000E+00 0. -1.
         21   -1    0    0  501  502 -0.00000000000E+00 -0.00000000000E+00 -0.17096206929E+04  0.17096206929E+04  0.00000000000E+00 0. -1.
      99926    2    1    2    0    0  0.00000000000E+00  0.00000000000E+00 -0.16795909487E+04  0.17396504371E+04  0.45316430622E+03 0.  0.
      99925    2    3    3    0    0 -0.90388260521E+02 -0.64462169039E+02 -0.11013129924E+04  0.11376717733E+04  0.26283330767E+03 0.  0.
         25    1    4    4    0    0 -0.84530534957E+02 -0.47670011037E+02 -0.65036566317E+03  0.66935853264E+03  0.12509000000E+03 0.  0.
         25    1    4    4    0    0 -0.58577255637E+01 -0.16792158002E+02 -0.45094732924E+03  0.46831324065E+03  0.12509000000E+03 0.  0.
         25    1    3    3    0    0  0.90388260521E+02  0.64462169039E+02 -0.57827795627E+03  0.60197866382E+03  0.12509000000E+03 0.  0.
<mgrwt>
<rscale>  2 0.45316431E+03</rscale>
<asrwt>0</asrwt>
<pdfrwt beam="1">  1       21 0.44161373E-02 0.45316431E+03</pdfrwt>
<pdfrwt beam="2">  1       21 0.25141489E+00 0.45316431E+03</pdfrwt>
<totfact> 0.18713691E+04</totfact>
</mgrwt>
</event>
<event>
 7    0  0.4712189E-002  0.4524669E+03  0.7546771E-02  0.1026989E+00
         21   -1    0    0  502  501  0.00000000000E+00  0.00000000000E+00  0.26174824193E+03  0.26174824193E+03  0.00000000000E+00 0.  1.
         21   -1    0    0  501  502 -0.00000000000E+00 -0.00000000000E+00 -0.19553745066E+03  0.19553745066E+03  0.00000000000E+00 0.  1.
      99926    2    1    2    0    0  0.00000000000E+00 -0.17763568394E-14  0.66210791275E+02  0.45728569259E+03  0.45246694439E+03 0.  0.
      99925    2    3    3    0    0  0.59887407804E+02 -0.35472347197E+01  0.13583645256E+03  0.30206222369E+03  0.26304174697E+03 0.  0.
         25    1    4    4    0    0  0.33901880477E+02  0.22216602489E+02  0.31761604191E+02  0.13527461893E+03  0.12509000000E+03 0.  0.
         25    1    4    4    0    0  0.25985527327E+02 -0.25763837209E+02  0.10407484837E+03  0.16678760476E+03  0.12509000000E+03 0.  0.
         25    1    3    3    0    0 -0.59887407804E+02  0.35472347197E+01 -0.69625661283E+02  0.15522346890E+03  0.12509000000E+03 0.  0.
<mgrwt>
<rscale>  2 0.45246694E+03</rscale>
<asrwt>0</asrwt>
<pdfrwt beam="1">  1       21 0.38492389E-01 0.45246694E+03</pdfrwt>
<pdfrwt beam="2">  1       21 0.28755507E-01 0.45246694E+03</pdfrwt>
<totfact> 0.69777755E+04</totfact>
</mgrwt>
</event>
<event>
 7    0  0.4712189E-002  0.4557778E+03  0.7546771E-02  0.1026013E+00
         21   -1    0    0  502  501  0.00000000000E+00  0.00000000000E+00  0.86104135368E+02  0.86104135368E+02  0.00000000000E+00 0.  1.
         21   -1    0    0  501  502 -0.00000000000E+00 -0.00000000000E+00 -0.60314595744E+03  0.60314595744E+03  0.00000000000E+00 0.  1.
      99926    2    1    2    0    0 -0.35527136788E-14  0.00000000000E+00 -0.51704182208E+03  0.68925009281E+03  0.45577784574E+03 0.  0.
      99925    2    3    3    0    0  0.14284082932E+02  0.80604912398E+02 -0.44488305798E+03  0.52325135106E+03  0.26300162391E+03 0.  0.
         25    1    4    4    0    0 -0.11659291183E+02  0.28794026603E+01 -0.21412725875E+03  0.24827851512E+03  0.12509000000E+03 0.  0.
         25    1    4    4    0    0  0.25943374115E+02  0.77725509738E+02 -0.23075579923E+03  0.27497283594E+03  0.12509000000E+03 0.  0.
         25    1    3    3    0    0 -0.14284082932E+02 -0.80604912398E+02 -0.72158764091E+02  0.16599874175E+03  0.12509000000E+03 0.  0.
<mgrwt>
<rscale>  2 0.45577785E+03</rscale>
<asrwt>0</asrwt>
<pdfrwt beam="1">  1       21 0.12662373E-01 0.45577785E+03</pdfrwt>
<pdfrwt beam="2">  1       21 0.88697936E-01 0.45577785E+03</pdfrwt>
<totfact> 0.53164331E+04</totfact>
</mgrwt>
</event>
<event>
 7    0  0.4712189E-002  0.4524609E+03  0.7546771E-02  0.1026991E+00
         21   -1    0    0  502  501  0.00000000000E+00  0.00000000000E+00  0.76945749933E+03  0.76945749933E+03  0.00000000000E+00 0.  1.
         21   -1    0    0  501  502 -0.00000000000E+00 -0.00000000000E+00 -0.66514685595E+02  0.66514685595E+02  0.00000000000E+00 0.  1.
      99926    2    1    2    0    0 -0.35527136788E-14  0.00000000000E+00  0.70294281374E+03  0.83597218493E+03  0.45246093156E+03 0.  0.
      99925    2    3    3    0    0  0.30816941072E+02 -0.98155034956E+02  0.51919007952E+03  0.59103000772E+03  0.26300957512E+03 0.  0.
         25    1    4    4    0    0  0.37829885682E+02 -0.71995856531E+02  0.33514206109E+03  0.36685448453E+03  0.12509000000E+03 0.  0.
         25    1    4    4    0    0 -0.70129446096E+01 -0.26159178424E+02  0.18404801843E+03  0.22417552319E+03  0.12509000000E+03 0.  0.
         25    1    3    3    0    0 -0.30816941072E+02  0.98155034956E+02  0.18375273421E+03  0.24494217721E+03  0.12509000000E+03 0.  0.
<mgrwt>
<rscale>  2 0.45246093E+03</rscale>
<asrwt>0</asrwt>
<pdfrwt beam="1">  1       21 0.11315551E+00 0.45246093E+03</pdfrwt>
<pdfrwt beam="2">  1       21 0.97815719E-02 0.45246093E+03</pdfrwt>
<totfact> 0.47002914E+04</totfact>
</mgrwt>
</event>
<event>
 7    0  0.4712189E-002  0.4553393E+03  0.7546771E-02  0.1026142E+00
         21   -1    0    0  502  501  0.00000000000E+00  0.00000000000E+00  0.85168078333E+03  0.85168078333E+03  0.00000000000E+00 0. -1.
         21   -1    0    0  501  502 -0.00000000000E+00 -0.00000000000E+00 -0.60860199960E+02  0.60860199960E+02  0.00000000000E+00 0. -1.
      99926    2    1    2    0    0  0.00000000000E+00  0.17763568394E-14  0.79082058337E+03  0.91254098329E+03  0.45533927033E+03 0.  0.
      99925    2    3    3    0    0 -0.92257646423E+02 -0.89291929582E+01  0.36606132490E+03  0.46014830037E+03  0.26295315349E+03 0.  0.
         25    1    3    3    0    0  0.92257646423E+02  0.89291929582E+01  0.42475925847E+03  0.45239268293E+03  0.12509000000E+03 0.  0.
         25    1    4    4    0    0 -0.76499124655E+02 -0.16397194355E+02  0.15360560963E+03  0.21298632694E+03  0.12509000000E+03 0.  0.
         25    1    4    4    0    0 -0.15758521767E+02  0.74680013972E+01  0.21245571528E+03  0.24716197342E+03  0.12509000000E+03 0.  0.
<mgrwt>
<rscale>  2 0.45533927E+03</rscale>
<asrwt>0</asrwt>
<pdfrwt beam="1">  1       21 0.12524717E+00 0.45533927E+03</pdfrwt>
<pdfrwt beam="2">  1       21 0.89500299E-02 0.45533927E+03</pdfrwt>
<totfact> 0.42582772E+04</totfact>
</mgrwt>
</event>
<event>
 7    0  0.4712189E-002  0.4541066E+03  0.7546771E-02  0.1026504E+00
         21   -1    0    0  502  501  0.00000000000E+00  0.00000000000E+00  0.32311398255E+03  0.32311398255E+03  0.00000000000E+00 0. -1.
         21   -1    0    0  501  502 -0.00000000000E+00 -0.00000000000E+00 -0.15955114115E+03  0.15955114115E+03  0.00000000000E+00 0. -1.
      99926    2    1    2    0    0 -0.14210854715E-13  0.00000000000E+00  0.16356284140E+03  0.48266512369E+03  0.45410661583E+03 0.  0.
      99925    2    3    3    0    0 -0.79208910891E+02 -0.21817717244E+02  0.18463896406E+03  0.33153016613E+03  0.26281293662E+03 0.  0.
         25    1    3    3    0    0  0.79208910891E+02  0.21817717244E+02 -0.21076122661E+02  0.15113495756E+03  0.12509000000E+03 0.  0.
         25    1    4    4    0    0 -0.65282143156E+02 -0.39630144584E+02  0.80568407112E+02  0.16724557662E+03  0.12509000000E+03 0.  0.
         25    1    4    4    0    0 -0.13926767734E+02  0.17812427339E+02  0.10407055695E+03  0.16428458951E+03  0.12509000000E+03 0.  0.
<mgrwt>
<rscale>  2 0.45410662E+03</rscale>
<asrwt>0</asrwt>
<pdfrwt beam="1">  1       21 0.47516762E-01 0.45410662E+03</pdfrwt>
<pdfrwt beam="2">  1       21 0.23463403E-01 0.45410662E+03</pdfrwt>
<totfact> 0.66980358E+04</totfact>
</mgrwt>
</event>
<event>
 7    0  0.4712189E-002  0.4497399E+03  0.7546771E-02  0.1027800E+00
         21   -1    0    0  502  501  0.00000000000E+00  0.00000000000E+00  0.16224891837E+03  0.16224891837E+03  0.00000000000E+00 0.  1.
         21   -1    0    0  501  502 -0.00000000000E+00 -0.00000000000E+00 -0.31166001233E+03  0.31166001233E+03  0.00000000000E+00 0.  1.
      99926    2    1    2    0    0  0.00000000000E+00  0.00000000000E+00 -0.14941109396E+03  0.47390893070E+03  0.44973992440E+03 0.  0.
      99925    2    3    3    0    0  0.56326398546E+02  0.91686020902E+02 -0.10557649793E+03  0.30318116638E+03  0.26304644671E+03 0.  0.
         25    1    4    4    0    0 -0.17789682700E+01  0.48911706267E+02 -0.21362488075E+02  0.13601243963E+03  0.12509000000E+03 0.  0.
         25    1    4    4    0    0  0.58105366816E+02  0.42774314634E+02 -0.84214009857E+02  0.16716872674E+03  0.12509000000E+03 0.  0.
         25    1    3    3    0    0 -0.56326398546E+02 -0.91686020902E+02 -0.43834596032E+02  0.17072776432E+03  0.12509000000E+03 0.  0.
<mgrwt>
<rscale>  2 0.44973992E+03</rscale>
<asrwt>0</asrwt>
<pdfrwt beam="1">  1       21 0.23860135E-01 0.44973992E+03</pdfrwt>
<pdfrwt beam="2">  1       21 0.45832354E-01 0.44973992E+03</pdfrwt>
<totfact> 0.70024167E+04</totfact>
</mgrwt>
</event>
<event>
 7    0  0.4712189E-002  0.4510476E+03  0.7546771E-02  0.1027410E+00
         21   -1    0    0  502  501  0.00000000000E+00  0.00000000000E+00  0.13313548181E+03  0.13313548181E+03  0.00000000000E+00 0.  1.
         21   -1    0    0  501  502 -0.00000000000E+00 -0.00000000000E+00 -0.38202419564E+03  0.38202419564E+03  0.00000000000E+00 0.  1.
      99926    2    1    2    0    0  0.00000000000E+00  0.00000000000E+00 -0.24888871383E+03  0.51515967745E+03  0.45104756002E+03 0.  0.
      99925    2    3    3    0    0  0.10178997108E+03  0.28465097323E+02 -0.12462534468E+03  0.30958644722E+03  0.26294644281E+03 0.  0.
         25    1    4    4    0    0  0.53493818355E+02 -0.22316275349E+02 -0.42104873971E+02  0.14415246533E+03  0.12509000000E+03 0.  0.
         25    1    4    4    0    0  0.48296152723E+02  0.50781372672E+02 -0.82520470705E+02  0.16543398189E+03  0.12509000000E+03 0.  0.
         25    1    3    3    0    0 -0.10178997108E+03 -0.28465097323E+02 -0.12426336915E+03  0.20557323024E+03  0.12509000000E+03 0.  0.
<mgrwt>
<rscale>  2 0.45104756E+03</rscale>
<asrwt>0</asrwt>
<pdfrwt beam="1">  1       21 0.19578748E-01 0.45104756E+03</pdfrwt>
<pdfrwt beam="2">  1       21 0.56180027E-01 0.45104756E+03</pdfrwt>
<totfact> 0.66272310E+04</totfact>
</mgrwt>
</event>
<event>
 7    0  0.4712189E-002  0.4511368E+03  0.7546771E-02  0.1027384E+00
         21   -1    0    0  502  501  0.00000000000E+00  0.00000000000E+00  0.31156863002E+03  0.31156863002E+03  0.00000000000E+00 0.  1.
         21   -1    0    0  501  502 -0.00000000000E+00 -0.00000000000E+00 -0.16330628108E+03  0.16330628108E+03  0.00000000000E+00 0.  1.
      99926    2    1    2    0    0 -0.35527136788E-14  0.17763568394E-14  0.14826234895E+03  0.47487491110E+03  0.45113684961E+03 0.  0.
      99925    2    3    3    0    0  0.21943336685E+02 -0.10680551947E+01 -0.19490133097E+02  0.26446803360E+03  0.26283231297E+03 0.  0.
         25    1    4    4    0    0 -0.77188915502E+01 -0.34599423873E+02  0.11088562285E+01  0.13002091786E+03  0.12509000000E+03 0.  0.
         25    1    4    4    0    0  0.29662228235E+02  0.33531368679E+02 -0.20598989326E+02  0.13444711574E+03  0.12509000000E+03 0.  0.
         25    1    3    3    0    0 -0.21943336685E+02  0.10680551947E+01  0.16775248204E+03  0.21040687750E+03  0.12509000000E+03 0.  0.
<mgrwt>
<rscale>  2 0.45113685E+03</rscale>
<asrwt>0</asrwt>
<pdfrwt beam="1">  1       21 0.45818916E-01 0.45113685E+03</pdfrwt>
<pdfrwt beam="2">  1       21 0.24015630E-01 0.45113685E+03</pdfrwt>
<totfact> 0.69171717E+04</totfact>
</mgrwt>
</event>
<event>
 7    0  0.4712189E-002  0.4511426E+03  0.7546771E-02  0.1027382E+00
         21   -1    0    0  502  501  0.00000000000E+00  0.00000000000E+00  0.10750893347E+03  0.10750893347E+03  0.00000000000E+00 0. -1.
         21   -1    0    0  501  502 -0.00000000000E+00 -0.00000000000E+00 -0.47328535794E+03  0.47328535794E+03  0.00000000000E+00 0. -1.
      99926    2    1    2    0    0  0.00000000000E+00  0.44408920985E-15 -0.36577642447E+03  0.58079429141E+03  0.45114256753E+03 0.  0.
      99925    2    3    3    0    0 -0.81970223518E+02  0.32762672903E+01 -0.13755541635E+03  0.30791668493E+03  0.26298543841E+03 0.  0.
         25    1    3    3    0    0  0.81970223518E+02 -0.32762672903E+01 -0.22822100812E+03  0.27287760648E+03  0.12509000000E+03 0.  0.
         25    1    4    4    0    0 -0.38187804946E+02 -0.41675769092E+01 -0.23588912484E+02  0.13296473982E+03  0.12509000000E+03 0.  0.
         25    1    4    4    0    0 -0.43782418572E+02  0.74438441995E+01 -0.11396650386E+03  0.17495194510E+03  0.12509000000E+03 0.  0.
<mgrwt>
<rscale>  2 0.45114257E+03</rscale>
<asrwt>0</asrwt>
<pdfrwt beam="1">  1       21 0.15810137E-01 0.45114257E+03</pdfrwt>
<pdfrwt beam="2">  1       21 0.69600788E-01 0.45114257E+03</pdfrwt>
<totfact> 0.61737515E+04</totfact>
</mgrwt>
</event>
<event>
 7    0  0.4712189E-002  0.4530190E+03  0.7546771E-02  0.1026826E+00
         21   -1    0    0  502  501  0.00000000000E+00  0.00000000000E+00  0.10679598819E+04  0.10679598819E+04  0.00000000000E+00 0. -1.
         21   -1    0    0  501  502 -0.00000000000E+00 -0.00000000000E+00 -0.48041643969E+02  0.48041643969E+02  0.00000000000E+00 0. -1.
      99926    2    1    2    0    0  0.00000000000E+00  0.00000000000E+00  0.10199182379E+04  0.11160015258E+04  0.45301897717E+03 0.  0.
      99925    2    3    3    0    0  0.45184475624E+02 -0.94673869879E+02  0.73555655491E+03  0.78810847418E+03  0.26280552339E+03 0.  0.
         25    1    4    4    0    0  0.11552634373E+02 -0.52039429454E+02  0.47425930778E+03  0.49336696758E+03  0.12509000000E+03 0.  0.
         25    1    3    3    0    0 -0.45184475624E+02  0.94673869879E+02  0.28436168300E+03  0.32789305167E+03  0.12509000000E+03 0.  0.
         25    1    4    4    0    0  0.33631841251E+02 -0.42634440425E+02  0.26129724713E+03  0.29474150661E+03  0.12509000000E+03 0.  0.
<mgrwt>
<rscale>  2 0.45301898E+03</rscale>
<asrwt>0</asrwt>
<pdfrwt beam="1">  1       21 0.15705291E+00 0.45301898E+03</pdfrwt>
<pdfrwt beam="2">  1       21 0.70649483E-02 0.45301898E+03</pdfrwt>
<totfact> 0.35482831E+04</totfact>
</mgrwt>
</event>
<event>
 7    0  0.4712189E-002  0.4582497E+03  0.7546771E-02  0.1025290E+00
         21   -1    0    0  502  501  0.00000000000E+00  0.00000000000E+00  0.73823738142E+02  0.73823738142E+02  0.00000000000E+00 0.  1.
         21   -1    0    0  501  502 -0.00000000000E+00 -0.00000000000E+00 -0.71112889620E+03  0.71112889620E+03  0.00000000000E+00 0.  1.
      99926    2    1    2    0    0  0.00000000000E+00  0.00000000000E+00 -0.63730515805E+03  0.78495263434E+03  0.45824968486E+03 0.  0.
      99925    2    3    3    0    0 -0.38947518178E+02  0.98337624258E+02 -0.31749825711E+03  0.42563222091E+03  0.26300275035E+03 0.  0.
         25    1    3    3    0    0  0.38947518178E+02 -0.98337624258E+02 -0.31980690094E+03  0.35932041343E+03  0.12509000000E+03 0.  0.
         25    1    4    4    0    0 -0.26731140687E+02  0.36033873602E+02 -0.97932210045E+02  0.16507943480E+03  0.12509000000E+03 0.  0.
         25    1    4    4    0    0 -0.12216377490E+02  0.62303750656E+02 -0.21956604707E+03  0.26055278611E+03  0.12509000000E+03 0.  0.
<mgrwt>
<rscale>  2 0.45824968E+03</rscale>
<asrwt>0</asrwt>
<pdfrwt beam="1">  1       21 0.10856432E-01 0.45824968E+03</pdfrwt>
<pdfrwt beam="2">  1       21 0.10457778E+00 0.45824968E+03</pdfrwt>
<totfact> 0.47283677E+04</totfact>
</mgrwt>
</event>
<event>
 7    0  0.4712189E-002  0.4306577E+03  0.7546771E-02  0.1033652E+00
         21   -1    0    0  502  501  0.00000000000E+00  0.00000000000E+00  0.12004211680E+03  0.12004211680E+03  0.00000000000E+00 0. -1.
         21   -1    0    0  501  502 -0.00000000000E+00 -0.00000000000E+00 -0.38625206177E+03  0.38625206177E+03  0.00000000000E+00 0. -1.
      99926    2    1    2    0    0  0.14210854715E-13  0.00000000000E+00 -0.26620994497E+03  0.50629417857E+03  0.43065770683E+03 0.  0.
      99925    2    3    3    0    0 -0.68961600516E+02  0.45520368008E+02 -0.20873596631E+03  0.34573710905E+03  0.26293656782E+03 0.  0.
         25    1    3    3    0    0  0.68961600516E+02 -0.45520368008E+02 -0.57473978657E+02  0.16055706952E+03  0.12509000000E+03 0.  0.
         25    1    4    4    0    0  0.64424949438E+01  0.28809090306E+02 -0.10143092271E+03  0.16372907380E+03  0.12509000000E+03 0.  0.
         25    1    4    4    0    0 -0.75404095459E+02  0.16711277702E+02 -0.10730504360E+03  0.18200803525E+03  0.12509000000E+03 0.  0.
<mgrwt>
<rscale>  2 0.43065771E+03</rscale>
<asrwt>0</asrwt>
<pdfrwt beam="1">  1       21 0.17653253E-01 0.43065771E+03</pdfrwt>
<pdfrwt beam="2">  1       21 0.56801773E-01 0.43065771E+03</pdfrwt>
<totfact> 0.79017479E+04</totfact>
</mgrwt>
</event>
<event>
 7    0  0.4712189E-002  0.4532495E+03  0.7546771E-02  0.1026757E+00
         21   -1    0    0  502  501  0.00000000000E+00  0.00000000000E+00  0.27788994285E+03  0.27788994285E+03  0.00000000000E+00 0. -1.
         21   -1    0    0  501  502 -0.00000000000E+00 -0.00000000000E+00 -0.18481694428E+03  0.18481694428E+03  0.00000000000E+00 0. -1.
      99926    2    1    2    0    0  0.14210854715E-13  0.00000000000E+00  0.93072998569E+02  0.46270688714E+03  0.45324946811E+03 0.  0.
      99925    2    3    3    0    0 -0.95061576144E+02 -0.58290382779E+02  0.59108304829E+02  0.29172273435E+03  0.26300929651E+03 0.  0.
         25    1    4    4    0    0 -0.31249980258E+02  0.10272713499E+02  0.23823270162E+02  0.13151861545E+03  0.12509000000E+03 0.  0.
         25    1    3    3    0    0  0.95061576144E+02  0.58290382779E+02  0.33964693740E+02  0.17098415279E+03  0.12509000000E+03 0.  0.
         25    1    4    4    0    0 -0.63811595886E+02 -0.68563096278E+02  0.35285034667E+02  0.16020411890E+03  0.12509000000E+03 0.  0.
<mgrwt>
<rscale>  2 0.45324947E+03</rscale>
<asrwt>0</asrwt>
<pdfrwt beam="1">  1       21 0.40866168E-01 0.45324947E+03</pdfrwt>
<pdfrwt beam="2">  1       21 0.27178962E-01 0.45324947E+03</pdfrwt>
<totfact> 0.68935072E+04</totfact>
</mgrwt>
</event>
<event>
 7    0  0.4712189E-002  0.4540360E+03  0.7546771E-02  0.1026525E+00
         21   -1    0    0  502  501  0.00000000000E+00  0.00000000000E+00  0.21939823251E+03  0.21939823251E+03  0.00000000000E+00 0.  1.
         21   -1    0    0  501  502 -0.00000000000E+00 -0.00000000000E+00 -0.23490243971E+03  0.23490243971E+03  0.00000000000E+00 0.  1.
      99926    2    1    2    0    0  0.17763568394E-14 -0.14210854715E-13 -0.15504207202E+02  0.45430067222E+03  0.45403603418E+03 0.  0.
      99925    2    3    3    0    0 -0.14092484650E+02  0.84290632957E+02  0.62999119051E+02  0.28367303887E+03  0.26305511790E+03 0.  0.
         25    1    3    3    0    0  0.14092484650E+02 -0.84290632957E+02 -0.78503326254E+02  0.17062763334E+03  0.12509000000E+03 0.  0.
         25    1    4    4    0    0  0.46872896729E+01  0.68581928563E+02  0.63467957655E+02  0.15620864688E+03  0.12509000000E+03 0.  0.
         25    1    4    4    0    0 -0.18779774323E+02  0.15708704394E+02 -0.46883860381E+00  0.12746439200E+03  0.12509000000E+03 0.  0.
<mgrwt>
<rscale>  2 0.45403603E+03</rscale>
<asrwt>0</asrwt>
<pdfrwt beam="1">  1       21 0.32264446E-01 0.45403603E+03</pdfrwt>
<pdfrwt beam="2">  1       21 0.34544477E-01 0.45403603E+03</pdfrwt>
<totfact> 0.69127226E+04</totfact>
</mgrwt>
</event>
<event>
 7    0  0.4712189E-002  0.4629066E+03  0.7546771E-02  0.1023942E+00
         21   -1    0    0  502  501  0.00000000000E+00  0.00000000000E+00  0.26810703920E+03  0.26810703920E+03  0.00000000000E+00 0.  1.
         21   -1    0    0  501  502 -0.00000000000E+00 -0.00000000000E+00 -0.19981060818E+03  0.19981060818E+03  0.00000000000E+00 0.  1.
      99926    2    1    2    0    0 -0.71054273576E-14  0.00000000000E+00  0.68296431024E+02  0.46791764738E+03  0.46290660207E+03 0.  0.
      99925    2    3    3    0    0 -0.49314366452E+02 -0.46994286699E+02 -0.57715019033E+02  0.27774203546E+03  0.26300046601E+03 0.  0.
         25    1    3    3    0    0  0.49314366452E+02  0.46994286699E+02  0.12601145006E+03  0.19017561191E+03  0.12509000000E+03 0.  0.
         25    1    4    4    0    0 -0.37506562608E+01 -0.20900807347E+02  0.77372664793E+01  0.12711524127E+03  0.12509000000E+03 0.  0.
         25    1    4    4    0    0 -0.45563710191E+02 -0.26093479352E+02 -0.65452285512E+02  0.15062679420E+03  0.12509000000E+03 0.  0.
<mgrwt>
<rscale>  2 0.46290660E+03</rscale>
<asrwt>0</asrwt>
<pdfrwt beam="1">  1       21 0.39427506E-01 0.46290660E+03</pdfrwt>
<pdfrwt beam="2">  1       21 0.29383913E-01 0.46290660E+03</pdfrwt>
<totfact> 0.63507571E+04</totfact>
</mgrwt>
</event>
<event>
 7    0  0.4712189E-002  0.4539477E+03  0.7546771E-02  0.1026551E+00
         21   -1    0    0  502  501  0.00000000000E+00  0.00000000000E+00  0.23081352300E+03  0.23081352300E+03  0.00000000000E+00 0.  1.
         21   -1    0    0  501  502 -0.00000000000E+00 -0.00000000000E+00 -0.22319807280E+03  0.22319807280E+03  0.00000000000E+00 0.  1.
      99926    2    1    2    0    0  0.35527136788E-14  0.00000000000E+00  0.76154502076E+01  0.45401159580E+03  0.45394772170E+03 0.  0.
      99925    2    3    3    0    0  0.21649463104E+02  0.34582156949E+02  0.10916885537E+03  0.28780321143E+03  0.26315057419E+03 0.  0.
         25    1    3    3    0    0 -0.21649463104E+02 -0.34582156949E+02 -0.10155340517E+03  0.16620838436E+03  0.12509000000E+03 0.  0.
         25    1    4    4    0    0  0.18051117685E+02 -0.45269307874E+00  0.14906422776E+02  0.12726255270E+03  0.12509000000E+03 0.  0.
         25    1    4    4    0    0  0.35983454184E+01  0.35034850028E+02  0.94262432598E+02  0.16054065873E+03  0.12509000000E+03 0.  0.
<mgrwt>
<rscale>  2 0.45394772E+03</rscale>
<asrwt>0</asrwt>
<pdfrwt beam="1">  1       21 0.33943165E-01 0.45394772E+03</pdfrwt>
<pdfrwt beam="2">  1       21 0.32823246E-01 0.45394772E+03</pdfrwt>
<totfact> 0.69197428E+04</totfact>
</mgrwt>
</event>
<event>
 7    0  0.4712189E-002  0.4427960E+03  0.7546771E-02  0.1029892E+00
         21   -1    0    0  502  501  0.00000000000E+00  0.00000000000E+00  0.23628936430E+03  0.23628936430E+03  0.00000000000E+00 0.  1.
         21   -1    0    0  501  502 -0.00000000000E+00 -0.00000000000E+00 -0.20744510783E+03  0.20744510783E+03  0.00000000000E+00 0.  1.
      99926    2    1    2    0    0  0.17763568394E-14  0.00000000000E+00  0.28844256475E+02  0.44373447213E+03  0.44279599210E+03 0.  0.
      99925    2    3    3    0    0  0.56771009421E+01  0.96369071133E+02  0.49115308025E+02  0.28443082817E+03  0.26300067526E+03 0.  0.
         25    1    4    4    0    0 -0.31264468186E+02  0.26108749674E+02  0.31170634512E+02  0.13519707962E+03  0.12509000000E+03 0.  0.
         25    1    4    4    0    0  0.36941569129E+02  0.70260321459E+02  0.17944673513E+02  0.14923374856E+03  0.12509000000E+03 0.  0.
         25    1    3    3    0    0 -0.56771009421E+01 -0.96369071133E+02 -0.20271051550E+02  0.15930364395E+03  0.12509000000E+03 0.  0.
<mgrwt>
<rscale>  2 0.44279599E+03</rscale>
<asrwt>0</asrwt>
<pdfrwt beam="1">  1       21 0.34748436E-01 0.44279599E+03</pdfrwt>
<pdfrwt beam="2">  1       21 0.30506634E-01 0.44279599E+03</pdfrwt>
<totfact> 0.76567531E+04</totfact>
</mgrwt>
</event>
<event>
 7    0  0.4712189E-002  0.4605440E+03  0.7546771E-02  0.1024624E+00
         21   -1    0    0  502  501  0.00000000000E+00  0.00000000000E+00  0.57475591230E+02  0.57475591230E+02  0.00000000000E+00 0. -1.
         21   -1    0    0  501  502 -0.00000000000E+00 -0.00000000000E+00 -0.92256909284E+03  0.92256909284E+03  0.00000000000E+00 0. -1.
      99926    2    1    2    0    0  0.14210854715E-13  0.88817841970E-15 -0.86509350161E+03  0.98004468407E+03  0.46054404376E+03 0.  0.
      99925    2    3    3    0    0 -0.84656038451E+02  0.59236222831E+01 -0.71691733944E+03  0.76837178244E+03  0.26310262317E+03 0.  0.
         25    1    4    4    0    0 -0.17937474119E+02  0.24935841477E+02 -0.41004324402E+03  0.42979823084E+03  0.12509000000E+03 0.  0.
         25    1    4    4    0    0 -0.66718564332E+02 -0.19012219194E+02 -0.30687409542E+03  0.33857355160E+03  0.12509000000E+03 0.  0.
         25    1    3    3    0    0  0.84656038451E+02 -0.59236222831E+01 -0.14817616217E+03  0.21167290163E+03  0.12509000000E+03 0.  0.
<mgrwt>
<rscale>  2 0.46054404E+03</rscale>
<asrwt>0</asrwt>
<pdfrwt beam="1">  1       21 0.84522931E-02 0.46054404E+03</pdfrwt>
<pdfrwt beam="2">  1       21 0.13567192E+00 0.46054404E+03</pdfrwt>
<totfact> 0.38262119E+04</totfact>
</mgrwt>
</event>
<event>
 7    0  0.4712189E-002  0.4533284E+03  0.7546771E-02  0.1026734E+00
         21   -1    0    0  502  501  0.00000000000E+00  0.00000000000E+00  0.63359955447E+02  0.63359955447E+02  0.00000000000E+00 0. -1.
         21   -1    0    0  501  502 -0.00000000000E+00 -0.00000000000E+00 -0.81086950566E+03  0.81086950566E+03  0.00000000000E+00 0. -1.
      99926    2    1    2    0    0  0.00000000000E+00  0.17763568394E-14 -0.74750955021E+03  0.87422946111E+03  0.45332838319E+03 0.  0.
      99925    2    3    3    0    0 -0.67731159573E+02 -0.14366515831E+02 -0.30050113689E+03  0.40491300451E+03  0.26241132063E+03 0.  0.
         25    1    4    4    0    0 -0.29509320928E+02 -0.40377267583E+02 -0.18253818772E+03  0.22686741025E+03  0.12509000000E+03 0.  0.
         25    1    3    3    0    0  0.67731159573E+02  0.14366515831E+02 -0.44700841333E+03  0.46931645660E+03  0.12509000000E+03 0.  0.
         25    1    4    4    0    0 -0.38221838644E+02  0.26010751752E+02 -0.11796294917E+03  0.17804559425E+03  0.12509000000E+03 0.  0.
<mgrwt>
<rscale>  2 0.45332838E+03</rscale>
<asrwt>0</asrwt>
<pdfrwt beam="1">  1       21 0.93176403E-02 0.45332838E+03</pdfrwt>
<pdfrwt beam="2">  1       21 0.11924552E+00 0.45332838E+03</pdfrwt>
<totfact> 0.44952390E+04</totfact>
</mgrwt>
</event>
<event>
 7    0  0.4712189E-002  0.4610175E+03  0.7546771E-02  0.1024487E+00
         21   -1    0    0  502  501  0.00000000000E+00  0.00000000000E+00  0.24129698829E+03  0.24129698829E+03  0.00000000000E+00 0. -1.
         21   -1    0    0  501  502 -0.00000000000E+00 -0.00000000000E+00 -0.22020288982E+03  0.22020288982E+03  0.00000000000E+00 0. -1.
      99926    2    1    2    0    0  0.14210854715E-13  0.00000000000E+00  0.21094098467E+02  0.46149987811E+03  0.46101754468E+03 0.  0.
      99925    2    3    3    0    0 -0.88305468583E+02 -0.43133101870E+02 -0.53782044342E+02  0.28568103634E+03  0.26279807071E+03 0.  0.
         25    1    4    4    0    0 -0.82079923739E+01 -0.28544766051E+02 -0.50185931172E+01  0.12866572653E+03  0.12509000000E+03 0.  0.
         25    1    4    4    0    0 -0.80097476210E+02 -0.14588335819E+02 -0.48763451225E+02  0.15701530980E+03  0.12509000000E+03 0.  0.
         25    1    3    3    0    0  0.88305468583E+02  0.43133101870E+02  0.74876142809E+02  0.17581884177E+03  0.12509000000E+03 0.  0.
<mgrwt>
<rscale>  2 0.46101754E+03</rscale>
<asrwt>0</asrwt>
<pdfrwt beam="1">  1       21 0.35484851E-01 0.46101754E+03</pdfrwt>
<pdfrwt beam="2">  1       21 0.32382778E-01 0.46101754E+03</pdfrwt>
<totfact> 0.64899768E+04</totfact>
</mgrwt>
</event>
<event>
 7    0  0.4712189E-002  0.4602756E+03  0.7546771E-02  0.1024701E+00
         21   -1    0    0  502  501  0.00000000000E+00  0.00000000000E+00  0.18390689716E+03  0.18390689716E+03  0.00000000000E+00 0. -1.
         21   -1    0    0  501  502 -0.00000000000E+00 -0.00000000000E+00 -0.28799035081E+03  0.28799035081E+03  0.00000000000E+00 0. -1.
      99926    2    1    2    0    0  0.14210854715E-13  0.17763568394E-14 -0.10408345365E+03  0.47189724797E+03  0.46027562103E+03 0.  0.
      99925    2    3    3    0    0  0.11271774617E+03  0.65637412803E+01 -0.10065676953E+03  0.30335163614E+03  0.26294877238E+03 0.  0.
         25    1    3    3    0    0 -0.11271774617E+03 -0.65637412803E+01 -0.34266841240E+01  0.16854561182E+03  0.12509000000E+03 0.  0.
         25    1    4    4    0    0  0.25912342418E+02 -0.14096974653E+02 -0.71112078430E+02  0.14688298058E+03  0.12509000000E+03 0.  0.
         25    1    4    4    0    0  0.86805403751E+02  0.20660715933E+02 -0.29544691097E+02  0.15646865557E+03  0.12509000000E+03 0.  0.
<mgrwt>
<rscale>  2 0.46027562E+03</rscale>
<asrwt>0</asrwt>
<pdfrwt beam="1">  1       21 0.27045132E-01 0.46027562E+03</pdfrwt>
<pdfrwt beam="2">  1       21 0.42351522E-01 0.46027562E+03</pdfrwt>
<totfact> 0.64551120E+04</totfact>
</mgrwt>
</event>
<event>
 7    0  0.4712189E-002  0.4539367E+03  0.7546771E-02  0.1026555E+00
         21   -1    0    0  502  501  0.00000000000E+00  0.00000000000E+00  0.73923219767E+03  0.73923219767E+03  0.00000000000E+00 0.  1.
         21   -1    0    0  501  502 -0.00000000000E+00 -0.00000000000E+00 -0.69686663771E+02  0.69686663771E+02  0.00000000000E+00 0.  1.
      99926    2    1    2    0    0  0.53290705182E-14  0.00000000000E+00  0.66954553390E+03  0.80891886144E+03  0.45393667227E+03 0.  0.
      99925    2    3    3    0    0  0.15844720766E+02  0.20228196669E+02  0.61621772689E+03  0.67052956193E+03  0.26310714810E+03 0.  0.
         25    1    4    4    0    0 -0.23768090460E+02  0.17454904128E+02  0.36724726825E+03  0.38908567172E+03  0.12509000000E+03 0.  0.
         25    1    3    3    0    0 -0.15844720766E+02 -0.20228196669E+02  0.53327807009E+02  0.13838929950E+03  0.12509000000E+03 0.  0.
         25    1    4    4    0    0  0.39612811226E+02  0.27732925406E+01  0.24897045864E+03  0.28144389021E+03  0.12509000000E+03 0.  0.
<mgrwt>
<rscale>  2 0.45393667E+03</rscale>
<asrwt>0</asrwt>
<pdfrwt beam="1">  1       21 0.10871061E+00 0.45393667E+03</pdfrwt>
<pdfrwt beam="2">  1       21 0.10248039E-01 0.45393667E+03</pdfrwt>
<totfact> 0.47733494E+04</totfact>
</mgrwt>
</event>
<event>
 7    0  0.4712189E-002  0.4568862E+03  0.7546771E-02  0.1025688E+00
         21   -1    0    0  502  501  0.00000000000E+00  0.00000000000E+00  0.42611109813E+03  0.42611109813E+03  0.00000000000E+00 0. -1.
         21   -1    0    0  501  502 -0.00000000000E+00 -0.00000000000E+00 -0.12247098804E+03  0.12247098804E+03  0.00000000000E+00 0. -1.
      99926    2    1    2    0    0 -0.71054273576E-14 -0.14210854715E-13  0.30364011009E+03  0.54858208617E+03  0.45688618803E+03 0.  0.
      99925    2    3    3    0    0 -0.41587090227E+02 -0.10322655901E+03  0.15588095666E+03  0.32527627773E+03  0.26290792238E+03 0.  0.
         25    1    3    3    0    0  0.41587090227E+02  0.10322655901E+03  0.14775915343E+03  0.22330580844E+03  0.12509000000E+03 0.  0.
         25    1    4    4    0    0 -0.61038499360E+02 -0.46815622659E+02  0.77179824531E+02  0.16589645669E+03  0.12509000000E+03 0.  0.
         25    1    4    4    0    0  0.19451409133E+02 -0.56410936348E+02  0.78701132124E+02  0.15937982104E+03  0.12509000000E+03 0.  0.
<mgrwt>
<rscale>  2 0.45688619E+03</rscale>
<asrwt>0</asrwt>
<pdfrwt beam="1">  1       21 0.62663396E-01 0.45688619E+03</pdfrwt>
<pdfrwt beam="2">  1       21 0.18010440E-01 0.45688619E+03</pdfrwt>
<totfact> 0.61044173E+04</totfact>
</mgrwt>
</event>
<event>
 7    0  0.4712189E-002  0.4561130E+03  0.7546771E-02  0.1025915E+00
         21   -1    0    0  502  501  0.00000000000E+00  0.00000000000E+00  0.66120476999E+02  0.66120476999E+02  0.00000000000E+00 0.  1.
         21   -1    0    0  501  502 -0.00000000000E+00 -0.00000000000E+00 -0.78659088139E+03  0.78659088139E+03  0.00000000000E+00 0.  1.
      99926    2    1    2    0    0  0.00000000000E+00  0.00000000000E+00 -0.72047040440E+03  0.85271135839E+03  0.45611298723E+03 0.  0.
      99925    2    3    3    0    0 -0.22500372993E+02 -0.10798537502E+03 -0.39748156900E+03  0.48920564469E+03  0.26298946195E+03 0.  0.
         25    1    3    3    0    0  0.22500372993E+02  0.10798537502E+03 -0.32298883540E+03  0.36350571371E+03  0.12509000000E+03 0.  0.
         25    1    4    4    0    0 -0.43823105808E+01 -0.13834710073E+02 -0.20289299473E+03  0.23879631333E+03  0.12509000000E+03 0.  0.
         25    1    4    4    0    0 -0.18118062412E+02 -0.94150664952E+02 -0.19458857426E+03  0.25040933136E+03  0.12509000000E+03 0.  0.
<mgrwt>
<rscale>  2 0.45611299E+03</rscale>
<asrwt>0</asrwt>
<pdfrwt beam="1">  1       21 0.97235996E-02 0.45611299E+03</pdfrwt>
<pdfrwt beam="2">  1       21 0.11567513E+00 0.45611299E+03</pdfrwt>
<totfact> 0.44924821E+04</totfact>
</mgrwt>
</event>
<event>
 7    0  0.4712189E-002  0.4828203E+03  0.7546771E-02  0.1018363E+00
         21   -1    0    0  502  501  0.00000000000E+00  0.00000000000E+00  0.35460678624E+03  0.35460678624E+03  0.00000000000E+00 0. -1.
         21   -1    0    0  501  502 -0.00000000000E+00 -0.00000000000E+00 -0.16434786843E+03  0.16434786843E+03  0.00000000000E+00 0. -1.
      99926    2    1    2    0    0  0.00000000000E+00  0.00000000000E+00  0.19025891781E+03  0.51895465467E+03  0.48282033697E+03 0.  0.
      99925    2    3    3    0    0 -0.69637709228E+02 -0.11862624611E+03  0.11133537257E+03  0.31696943019E+03  0.26296854884E+03 0.  0.
         25    1    4    4    0    0 -0.23734557501E+02 -0.39297876864E+02  0.14239631467E+02  0.13400719216E+03  0.12509000000E+03 0.  0.
         25    1    3    3    0    0  0.69637709228E+02  0.11862624611E+03  0.78923545243E+02  0.20198522448E+03  0.12509000000E+03 0.  0.
         25    1    4    4    0    0 -0.45903151726E+02 -0.79328369247E+02  0.97095741105E+02  0.18296223803E+03  0.12509000000E+03 0.  0.
<mgrwt>
<rscale>  2 0.48282034E+03</rscale>
<asrwt>0</asrwt>
<pdfrwt beam="1">  1       21 0.52148057E-01 0.48282034E+03</pdfrwt>
<pdfrwt beam="2">  1       21 0.24168804E-01 0.48282034E+03</pdfrwt>
<totfact> 0.51590111E+04</totfact>
</mgrwt>
</event>
<event>
 7    0  0.4712189E-002  0.4571303E+03  0.7546771E-02  0.1025617E+00
         21   -1    0    0  502  501  0.00000000000E+00  0.00000000000E+00  0.11828341986E+04  0.11828341986E+04  0.00000000000E+00 0.  1.
         21   -1    0    0  501  502 -0.00000000000E+00 -0.00000000000E+00 -0.44166814157E+02  0.44166814157E+02  0.00000000000E+00 0.  1.
      99926    2    1    2    0    0  0.35527136788E-14  0.14210854715E-13  0.11386673845E+04  0.12270010128E+04  0.45713025816E+03 0.  0.
      99925    2    3    3    0    0 -0.30562807328E+02 -0.61783541828E+02  0.96283627253E+03  0.10004720317E+04  0.26294354403E+03 0.  0.
         25    1    3    3    0    0  0.30562807328E+02  0.61783541828E+02  0.17583111196E+03  0.22652898107E+03  0.12509000000E+03 0.  0.
         25    1    4    4    0    0 -0.25225224258E+02  0.23180029570E+01  0.37826658639E+03  0.39921773953E+03  0.12509000000E+03 0.  0.
         25    1    4    4    0    0 -0.53375830702E+01 -0.64101544785E+02  0.58456968614E+03  0.60125429220E+03  0.12509000000E+03 0.  0.
<mgrwt>
<rscale>  2 0.45713026E+03</rscale>
<asrwt>0</asrwt>
<pdfrwt beam="1">  1       21 0.17394618E+00 0.45713026E+03</pdfrwt>
<pdfrwt beam="2">  1       21 0.64951205E-02 0.45713026E+03</pdfrwt>
<totfact> 0.30796618E+04</totfact>
</mgrwt>
</event>
<event>
 7    0  0.4712189E-002  0.4532138E+03  0.7546771E-02  0.1026768E+00
         21   -1    0    0  502  501  0.00000000000E+00  0.00000000000E+00  0.51466176051E+03  0.51466176051E+03  0.00000000000E+00 0. -1.
         21   -1    0    0  501  502 -0.00000000000E+00 -0.00000000000E+00 -0.99775592529E+02  0.99775592529E+02  0.00000000000E+00 0. -1.
      99926    2    1    2    0    0  0.00000000000E+00 -0.14210854715E-13  0.41488616798E+03  0.61443735304E+03  0.45321377784E+03 0.  0.
      99925    2    3    3    0    0 -0.88160790147E+02 -0.67635863622E+02  0.27523174514E+03  0.39649745104E+03  0.26288929262E+03 0.  0.
         25    1    4    4    0    0 -0.47742035665E+02  0.56834781121E+01  0.11420015317E+03  0.17607040346E+03  0.12509000000E+03 0.  0.
         25    1    4    4    0    0 -0.40418754481E+02 -0.73319341734E+02  0.16103159198E+03  0.22042704757E+03  0.12509000000E+03 0.  0.
         25    1    3    3    0    0  0.88160790147E+02  0.67635863622E+02  0.13965442284E+03  0.21793990200E+03  0.12509000000E+03 0.  0.
<mgrwt>
<rscale>  2 0.45321378E+03</rscale>
<asrwt>0</asrwt>
<pdfrwt beam="1">  1       21 0.75685552E-01 0.45321378E+03</pdfrwt>
<pdfrwt beam="2">  1       21 0.14672881E-01 0.45321378E+03</pdfrwt>
<totfact> 0.58620909E+04</totfact>
</mgrwt>
</event>
<event>
 7    0  0.4712189E-002  0.4511409E+03  0.7546771E-02  0.1027382E+00
         21   -1    0    0  502  501  0.00000000000E+00  0.00000000000E+00  0.10416817121E+04  0.10416817121E+04  0.00000000000E+00 0.  1.
         21   -1    0    0  501  502 -0.00000000000E+00 -0.00000000000E+00 -0.48846046675E+02  0.48846046675E+02  0.00000000000E+00 0.  1.
      99926    2    1    2    0    0  0.00000000000E+00 -0.71054273576E-14  0.99283566547E+03  0.10905277588E+04  0.45114092491E+03 0.  0.
      99925    2    3    3    0    0 -0.91269286610E+02 -0.10589927845E+02  0.77105793912E+03  0.81983402550E+03  0.26297386686E+03 0.  0.
         25    1    4    4    0    0 -0.44304029857E+02  0.32986288405E+02  0.41952176767E+03  0.44124478913E+03  0.12509000000E+03 0.  0.
         25    1    3    3    0    0  0.91269286610E+02  0.10589927845E+02  0.22177772635E+03  0.27069373332E+03  0.12509000000E+03 0.  0.
         25    1    4    4    0    0 -0.46965256753E+02 -0.43576216250E+02  0.35153617144E+03  0.37858923637E+03  0.12509000000E+03 0.  0.
<mgrwt>
<rscale>  2 0.45114092E+03</rscale>
<asrwt>0</asrwt>
<pdfrwt beam="1">  1       21 0.15318847E+00 0.45114092E+03</pdfrwt>
<pdfrwt beam="2">  1       21 0.71832428E-02 0.45114092E+03</pdfrwt>
<totfact> 0.36923675E+04</totfact>
</mgrwt>
</event>
<event>
 7    0  0.4712189E-002  0.4343073E+03  0.7546771E-02  0.1032508E+00
         21   -1    0    0  502  501  0.00000000000E+00  0.00000000000E+00  0.81235311280E+03  0.81235311280E+03  0.00000000000E+00 0.  1.
         21   -1    0    0  501  502 -0.00000000000E+00 -0.00000000000E+00 -0.58048283147E+02  0.58048283147E+02  0.00000000000E+00 0.  1.
      99926    2    1    2    0    0  0.00000000000E+00  0.00000000000E+00  0.75430482966E+03  0.87040139595E+03  0.43430728065E+03 0.  0.
      99925    2    3    3    0    0 -0.90659106214E+02 -0.16455784789E+02  0.46825241335E+03  0.54488125930E+03  0.26295512494E+03 0.  0.
         25    1    3    3    0    0  0.90659106214E+02  0.16455784789E+02  0.28605241631E+03  0.32552013665E+03  0.12509000000E+03 0.  0.
         25    1    4    4    0    0 -0.75331704002E+02 -0.28064878745E+02  0.21034233925E+03  0.25759252867E+03  0.12509000000E+03 0.  0.
         25    1    4    4    0    0 -0.15327402212E+02  0.11609093956E+02  0.25791007410E+03  0.28728873063E+03  0.12509000000E+03 0.  0.
<mgrwt>
<rscale>  2 0.43430728E+03</rscale>
<asrwt>0</asrwt>
<pdfrwt beam="1">  1       21 0.11946369E+00 0.43430728E+03</pdfrwt>
<pdfrwt beam="2">  1       21 0.85365127E-02 0.43430728E+03</pdfrwt>
<totfact> 0.52550256E+04</totfact>
</mgrwt>
</event>
<event>
 7    0  0.4712189E-002  0.4573636E+03  0.7546771E-02  0.1025549E+00
         21   -1    0    0  502  501  0.00000000000E+00  0.00000000000E+00  0.11181092599E+04  0.11181092599E+04  0.00000000000E+00 0.  1.
         21   -1    0    0  501  502 -0.00000000000E+00 -0.00000000000E+00 -0.46771255558E+02  0.46771255558E+02  0.00000000000E+00 0.  1.
      99926    2    1    2    0    0  0.11102230246E-15  0.00000000000E+00  0.10713380043E+04  0.11648805154E+04  0.45736363623E+03 0.  0.
      99925    2    3    3    0    0  0.30687350333E+00  0.43153176872E+02  0.94522102470E+03  0.98208201574E+03  0.26302092930E+03 0.  0.
         25    1    3    3    0    0 -0.30687350333E+00 -0.43153176872E+02  0.12611697963E+03  0.18279849971E+03  0.12509000000E+03 0.  0.
         25    1    4    4    0    0  0.76969907736E+01  0.16318262003E+02  0.32392243786E+03  0.34770502325E+03  0.12509000000E+03 0.  0.
         25    1    4    4    0    0 -0.73901172703E+01  0.26834914868E+02  0.62129858684E+03  0.63437699249E+03  0.12509000000E+03 0.  0.
<mgrwt>
<rscale>  2 0.45736364E+03</rscale>
<asrwt>0</asrwt>
<pdfrwt beam="1">  1       21 0.16442782E+00 0.45736364E+03</pdfrwt>
<pdfrwt beam="2">  1       21 0.68781265E-02 0.45736364E+03</pdfrwt>
<totfact> 0.32683262E+04</totfact>
</mgrwt>
</event>
<event>
 7    0  0.4712189E-002  0.4324199E+03  0.7546771E-02  0.1033098E+00
         21   -1    0    0  502  501  0.00000000000E+00  0.00000000000E+00  0.14899637843E+03  0.14899637843E+03  0.00000000000E+00 0. -1.
         21   -1    0    0  501  502 -0.00000000000E+00 -0.00000000000E+00 -0.31374412764E+03  0.31374412764E+03  0.00000000000E+00 0. -1.
      99926    2    1    2    0    0  0.00000000000E+00  0.00000000000E+00 -0.16474774922E+03  0.46274050607E+03  0.43241988285E+03 0.  0.
      99925    2    3    3    0    0  0.31286459982E+02  0.80877197190E+02 -0.13261132584E+03  0.30717630257E+03  0.26315689904E+03 0.  0.
         25    1    4    4    0    0  0.34867054835E+01  0.95440452322E+01 -0.32613028281E+02  0.12967021103E+03  0.12509000000E+03 0.  0.
         25    1    4    4    0    0  0.27799754499E+02  0.71333151958E+02 -0.99998297563E+02  0.17750609154E+03  0.12509000000E+03 0.  0.
         25    1    3    3    0    0 -0.31286459982E+02 -0.80877197190E+02 -0.32136423376E+02  0.15556420350E+03  0.12509000000E+03 0.  0.
<mgrwt>
<rscale>  2 0.43241988E+03</rscale>
<asrwt>0</asrwt>
<pdfrwt beam="1">  1       21 0.21911232E-01 0.43241988E+03</pdfrwt>
<pdfrwt beam="2">  1       21 0.46138842E-01 0.43241988E+03</pdfrwt>
<totfact> 0.81660388E+04</totfact>
</mgrwt>
</event>
<event>
 6    0  0.4712189E-002  0.4562420E+03  0.7546771E-02  0.1025877E+00
         21   -1    0    0  502  501  0.00000000000E+00  0.00000000000E+00  0.65430546805E+02  0.65430546805E+02  0.00000000000E+00 0. -1.
         21   -1    0    0  501  502 -0.00000000000E+00 -0.00000000000E+00 -0.79533464595E+03  0.79533464595E+03  0.00000000000E+00 0. -1.
      99926    2    1    2    0    0  0.00000000000E+00  0.00000000000E+00 -0.72990409914E+03  0.86076519275E+03  0.45624195676E+03 0.  0.
         25    1    3    3    0    0 -0.47064080575E+02  0.18641251394E+02 -0.33445233300E+03  0.36064996199E+03  0.12509000000E+03 0.  0.
         25    1    3    3    0    0  0.10784240521E+03 -0.12725198220E+02 -0.23776107373E+03  0.28977534628E+03  0.12509000000E+03 0.  0.
         25    1    3    3    0    0 -0.60778324633E+02 -0.59160531741E+01 -0.15769069241E+03  0.21033988448E+03  0.12509000000E+03 0.  0.
<mgrwt>
<rscale>  2 0.45624196E+03</rscale>
<asrwt>0</asrwt>
<pdfrwt beam="1">  1       21 0.96221392E-02 0.45624196E+03</pdfrwt>
<pdfrwt beam="2">  1       21 0.11696098E+00 0.45624196E+03</pdfrwt>
<totfact> 0.44526221E+04</totfact>
</mgrwt>
</event>
<event>
 7    0  0.4712189E-002  0.4379876E+03  0.7546771E-02  0.1031366E+00
         21   -1    0    0  502  501  0.00000000000E+00  0.00000000000E+00  0.23314073475E+03  0.23314073475E+03  0.00000000000E+00 0. -1.
         21   -1    0    0  501  502 -0.00000000000E+00 -0.00000000000E+00 -0.20570532398E+03  0.20570532398E+03  0.00000000000E+00 0. -1.
      99926    2    1    2    0    0  0.00000000000E+00  0.00000000000E+00  0.27435410771E+02  0.43884605873E+03  0.43798762711E+03 0.  0.
      99925    2    3    3    0    0 -0.20819763712E+02  0.41635686849E+02 -0.66936381727E+02  0.27538188437E+03  0.26303556805E+03 0.  0.
         25    1    4    4    0    0 -0.19029727358E+02  0.11075478076E+02  0.64165102375E+01  0.12717498355E+03  0.12509000000E+03 0.  0.
         25    1    3    3    0    0  0.20819763712E+02 -0.41635686849E+02  0.94371792498E+02  0.16346417436E+03  0.12509000000E+03 0.  0.
         25    1    4    4    0    0 -0.17900363544E+01  0.30560208773E+02 -0.73352891964E+02  0.14820690082E+03  0.12509000000E+03 0.  0.
<mgrwt>
<rscale>  2 0.43798763E+03</rscale>
<asrwt>0</asrwt>
<pdfrwt beam="1">  1       21 0.34285402E-01 0.43798763E+03</pdfrwt>
<pdfrwt beam="2">  1       21 0.30250783E-01 0.43798763E+03</pdfrwt>
<totfact> 0.80075547E+04</totfact>
</mgrwt>
</event>
<event>
 7    0  0.4712189E-002  0.4538349E+03  0.7546771E-02  0.1026585E+00
         21   -1    0    0  502  501  0.00000000000E+00  0.00000000000E+00  0.42788950485E+02  0.42788950485E+02  0.00000000000E+00 0. -1.
         21   -1    0    0  501  502 -0.00000000000E+00 -0.00000000000E+00 -0.12033839618E+04  0.12033839618E+04  0.00000000000E+00 0. -1.
      99926    2    1    2    0    0  0.00000000000E+00  0.00000000000E+00 -0.11605950113E+04  0.12461729123E+04  0.45383493367E+03 0.  0.
      99925    2    3    3    0    0  0.64167264199E+02 -0.84121779424E+02 -0.63298035216E+03  0.69370694209E+03  0.26338428904E+03 0.  0.
         25    1    4    4    0    0  0.36063824103E+02 -0.35121468538E+02 -0.41266312838E+03  0.43413417579E+03  0.12509000000E+03 0.  0.
         25    1    3    3    0    0 -0.64167264199E+02  0.84121779424E+02 -0.52761465915E+03  0.55246597019E+03  0.12509000000E+03 0.  0.
         25    1    4    4    0    0  0.28103440096E+02 -0.49000310885E+02 -0.22031722378E+03  0.25957276630E+03  0.12509000000E+03 0.  0.
<mgrwt>
<rscale>  2 0.45383493E+03</rscale>
<asrwt>0</asrwt>
<pdfrwt beam="1">  1       21 0.62924929E-02 0.45383493E+03</pdfrwt>
<pdfrwt beam="2">  1       21 0.17696823E+00 0.45383493E+03</pdfrwt>
<totfact> 0.30999076E+04</totfact>
</mgrwt>
</event>
<event>
 7    0  0.4712189E-002  0.4550789E+03  0.7546771E-02  0.1026218E+00
         21   -1    0    0  502  501  0.00000000000E+00  0.00000000000E+00  0.58581731224E+02  0.58581731224E+02  0.00000000000E+00 0.  1.
         21   -1    0    0  501  502 -0.00000000000E+00 -0.00000000000E+00 -0.88379416766E+03  0.88379416766E+03  0.00000000000E+00 0.  1.
      99926    2    1    2    0    0 -0.14210854715E-13  0.00000000000E+00 -0.82521243643E+03  0.94237589888E+03  0.45507886080E+03 0.  0.
      99925    2    3    3    0    0 -0.82679962090E+02  0.67646966957E+02 -0.59672462950E+03  0.66083323020E+03  0.26307448835E+03 0.  0.
         25    1    4    4    0    0 -0.68104524328E+02  0.65774854377E+02 -0.35968247399E+03  0.39240737493E+03  0.12509000000E+03 0.  0.
         25    1    3    3    0    0  0.82679962090E+02 -0.67646966957E+02 -0.22848780694E+03  0.28154266868E+03  0.12509000000E+03 0.  0.
         25    1    4    4    0    0 -0.14575437763E+02  0.18721125797E+01 -0.23704215551E+03  0.26842585527E+03  0.12509000000E+03 0.  0.
<mgrwt>
<rscale>  2 0.45507886E+03</rscale>
<asrwt>0</asrwt>
<pdfrwt beam="1">  1       21 0.86149612E-02 0.45507886E+03</pdfrwt>
<pdfrwt beam="2">  1       21 0.12996972E+00 0.45507886E+03</pdfrwt>
<totfact> 0.41425520E+04</totfact>
</mgrwt>
</event>
<event>
 7    0  0.4712189E-002  0.4566474E+03  0.7546771E-02  0.1025758E+00
         21   -1    0    0  502  501  0.00000000000E+00  0.00000000000E+00  0.21173249545E+03  0.21173249545E+03  0.00000000000E+00 0. -1.
         21   -1    0    0  501  502 -0.00000000000E+00 -0.00000000000E+00 -0.24621502680E+03  0.24621502680E+03  0.00000000000E+00 0. -1.
      99926    2    1    2    0    0  0.00000000000E+00  0.00000000000E+00 -0.34482531345E+02  0.45794752225E+03  0.45664744406E+03 0.  0.
      99925    2    3    3    0    0 -0.45630733194E+02  0.63169583626E+02 -0.10613549430E+03  0.29407496412E+03  0.26295014978E+03 0.  0.
         25    1    3    3    0    0  0.45630733194E+02 -0.63169583626E+02  0.71652962957E+02  0.16387255813E+03  0.12509000000E+03 0.  0.
         25    1    4    4    0    0 -0.21308073526E+01  0.39562205824E+02 -0.88797939607E+02  0.15843702423E+03  0.12509000000E+03 0.  0.
         25    1    4    4    0    0 -0.43499925841E+02  0.23607377801E+02 -0.17337554694E+02  0.13563793989E+03  0.12509000000E+03 0.  0.
<mgrwt>
<rscale>  2 0.45664744E+03</rscale>
<asrwt>0</asrwt>
<pdfrwt beam="1">  1       21 0.31137132E-01 0.45664744E+03</pdfrwt>
<pdfrwt beam="2">  1       21 0.36208092E-01 0.45664744E+03</pdfrwt>
<totfact> 0.67439602E+04</totfact>
</mgrwt>
</event>
<event>
 7    0  0.4712189E-002  0.4372025E+03  0.7546771E-02  0.1031609E+00
         21   -1    0    0  502  501  0.00000000000E+00  0.00000000000E+00  0.46274591194E+03  0.46274591194E+03  0.00000000000E+00 0. -1.
         21   -1    0    0  501  502 -0.00000000000E+00 -0.00000000000E+00 -0.10326727255E+03  0.10326727255E+03  0.00000000000E+00 0. -1.
      99926    2    1    2    0    0  0.00000000000E+00  0.00000000000E+00  0.35947863939E+03  0.56601318449E+03  0.43720250782E+03 0.  0.
      99925    2    3    3    0    0 -0.25002476578E+02 -0.52737039085E+02  0.13212019757E+03  0.30003256811E+03  0.26297809071E+03 0.  0.
         25    1    4    4    0    0  0.83160949544E+01 -0.22616885298E+02  0.26144240623E+02  0.13004503202E+03  0.12509000000E+03 0.  0.
         25    1    3    3    0    0  0.25002476578E+02  0.52737039085E+02  0.22735844182E+03  0.26598061638E+03  0.12509000000E+03 0.  0.
         25    1    4    4    0    0 -0.33318571533E+02 -0.30120153787E+02  0.10597595695E+03  0.16998753608E+03  0.12509000000E+03 0.  0.
<mgrwt>
<rscale>  2 0.43720251E+03</rscale>
<asrwt>0</asrwt>
<pdfrwt beam="1">  1       21 0.68050868E-01 0.43720251E+03</pdfrwt>
<pdfrwt beam="2">  1       21 0.15186364E-01 0.43720251E+03</pdfrwt>
<totfact> 0.70190330E+04</totfact>
</mgrwt>
</event>
<event>
 7    0  0.4712189E-002  0.4549738E+03  0.7546771E-02  0.1026249E+00
         21   -1    0    0  502  501  0.00000000000E+00  0.00000000000E+00  0.18375274241E+03  0.18375274241E+03  0.00000000000E+00 0.  1.
         21   -1    0    0  501  502 -0.00000000000E+00 -0.00000000000E+00 -0.28162996952E+03  0.28162996952E+03  0.00000000000E+00 0.  1.
      99926    2    1    2    0    0  0.00000000000E+00  0.13322676296E-14 -0.97877227112E+02  0.46538271193E+03  0.45497375416E+03 0.  0.
      99925    2    3    3    0    0 -0.10981391670E+03  0.14685836271E+01 -0.33505592570E+02  0.28691011327E+03  0.26293256802E+03 0.  0.
         25    1    4    4    0    0 -0.33354546877E+02 -0.10373610623E+02  0.17896356924E+02  0.13110272799E+03  0.12509000000E+03 0.  0.
         25    1    3    3    0    0  0.10981391670E+03 -0.14685836271E+01 -0.64371634542E+02  0.17847259866E+03  0.12509000000E+03 0.  0.
         25    1    4    4    0    0 -0.76459369819E+02  0.11842194250E+02 -0.51401949494E+02  0.15580738529E+03  0.12509000000E+03 0.  0.
<mgrwt>
<rscale>  2 0.45497375E+03</rscale>
<asrwt>0</asrwt>
<pdfrwt beam="1">  1       21 0.27022462E-01 0.45497375E+03</pdfrwt>
<pdfrwt beam="2">  1       21 0.41416172E-01 0.45497375E+03</pdfrwt>
<totfact> 0.67795372E+04</totfact>
</mgrwt>
</event>
<event>
 7    0  0.4712189E-002  0.4502599E+03  0.7546771E-02  0.1027645E+00
         21   -1    0    0  502  501  0.00000000000E+00  0.00000000000E+00  0.16876331524E+03  0.16876331524E+03  0.00000000000E+00 0.  1.
         21   -1    0    0  501  502 -0.00000000000E+00 -0.00000000000E+00 -0.30032299013E+03  0.30032299013E+03  0.00000000000E+00 0.  1.
      99926    2    1    2    0    0  0.00000000000E+00  0.00000000000E+00 -0.13155967489E+03  0.46908630538E+03  0.45025994030E+03 0.  0.
      99925    2    3    3    0    0 -0.40731171981E+02 -0.99589225694E+02 -0.98862884154E+02  0.30087919949E+03  0.26301593218E+03 0.  0.
         25    1    4    4    0    0  0.13881301608E+02 -0.35741075441E+02 -0.66464077808E+02  0.14674841310E+03  0.12509000000E+03 0.  0.
         25    1    4    4    0    0 -0.54612473588E+02 -0.63848150253E+02 -0.32398806347E+02  0.15413078640E+03  0.12509000000E+03 0.  0.
         25    1    3    3    0    0  0.40731171981E+02  0.99589225694E+02 -0.32696790736E+02  0.16820710588E+03  0.12509000000E+03 0.  0.
<mgrwt>
<rscale>  2 0.45025994E+03</rscale>
<asrwt>0</asrwt>
<pdfrwt beam="1">  1       21 0.24818135E-01 0.45025994E+03</pdfrwt>
<pdfrwt beam="2">  1       21 0.44165146E-01 0.45025994E+03</pdfrwt>
<totfact> 0.70103295E+04</totfact>
</mgrwt>
</event>
<event>
 7    0  0.4712189E-002  0.4531307E+03  0.7546771E-02  0.1026793E+00
         21   -1    0    0  502  501  0.00000000000E+00  0.00000000000E+00  0.86611514423E+02  0.86611514423E+02  0.00000000000E+00 0. -1.
         21   -1    0    0  501  502 -0.00000000000E+00 -0.00000000000E+00 -0.59266785414E+03  0.59266785414E+03  0.00000000000E+00 0. -1.
      99926    2    1    2    0    0  0.00000000000E+00  0.00000000000E+00 -0.50605633972E+03  0.67927936856E+03  0.45313071137E+03 0.  0.
      99925    2    3    3    0    0 -0.10657627856E+03  0.28519781595E+02 -0.29553071208E+03  0.41068966458E+03  0.26297474730E+03 0.  0.
         25    1    4    4    0    0 -0.16718385504E+02  0.52787873085E+01 -0.10261706988E+03  0.16274256093E+03  0.12509000000E+03 0.  0.
         25    1    3    3    0    0  0.10657627856E+03 -0.28519781595E+02 -0.21052562764E+03  0.26858970399E+03  0.12509000000E+03 0.  0.
         25    1    4    4    0    0 -0.89857893051E+02  0.23240994286E+02 -0.19291364220E+03  0.24794710364E+03  0.12509000000E+03 0.  0.
<mgrwt>
<rscale>  2 0.45313071E+03</rscale>
<asrwt>0</asrwt>
<pdfrwt beam="1">  1       21 0.12736988E-01 0.45313071E+03</pdfrwt>
<pdfrwt beam="2">  1       21 0.87157036E-01 0.45313071E+03</pdfrwt>
<totfact> 0.54845759E+04</totfact>
</mgrwt>
</event>
<event>
 7    0  0.4712189E-002  0.4571292E+03  0.7546771E-02  0.1025617E+00
         21   -1    0    0  502  501  0.00000000000E+00  0.00000000000E+00  0.16913360031E+03  0.16913360031E+03  0.00000000000E+00 0.  1.
         21   -1    0    0  501  502 -0.00000000000E+00 -0.00000000000E+00 -0.30887874306E+03  0.30887874306E+03  0.00000000000E+00 0.  1.
      99926    2    1    2    0    0  0.00000000000E+00  0.00000000000E+00 -0.13974514276E+03  0.47801234337E+03  0.45712918906E+03 0.  0.
      99925    2    3    3    0    0  0.58634696335E+02 -0.98714661353E+02 -0.78994569611E+02  0.29767723249E+03  0.26303798344E+03 0.  0.
         25    1    4    4    0    0  0.44742865727E+02 -0.76263388466E+02 -0.73003733988E+02  0.16969113627E+03  0.12509000000E+03 0.  0.
         25    1    4    4    0    0  0.13891830608E+02 -0.22451272888E+02 -0.59908356229E+01  0.12798609621E+03  0.12509000000E+03 0.  0.
         25    1    3    3    0    0 -0.58634696335E+02  0.98714661353E+02 -0.60750573145E+02  0.18033511088E+03  0.12509000000E+03 0.  0.
<mgrwt>
<rscale>  2 0.45712919E+03</rscale>
<asrwt>0</asrwt>
<pdfrwt beam="1">  1       21 0.24872589E-01 0.45712919E+03</pdfrwt>
<pdfrwt beam="2">  1       21 0.45423344E-01 0.45712919E+03</pdfrwt>
<totfact> 0.65727350E+04</totfact>
</mgrwt>
</event>
<event>
 7    0  0.4712189E-002  0.4635603E+03  0.7546771E-02  0.1023754E+00
         21   -1    0    0  502  501  0.00000000000E+00  0.00000000000E+00  0.46733329712E+03  0.46733329712E+03  0.00000000000E+00 0.  1.
         21   -1    0    0  501  502 -0.00000000000E+00 -0.00000000000E+00 -0.11495445911E+03  0.11495445911E+03  0.00000000000E+00 0.  1.
      99926    2    1    2    0    0  0.00000000000E+00  0.00000000000E+00  0.35237883800E+03  0.58228775623E+03  0.46356033650E+03 0.  0.
      99925    2    3    3    0    0  0.49086345092E+02 -0.88494869149E+02  0.30386007613E+03  0.41423303450E+03  0.26271134324E+03 0.  0.
         25    1    3    3    0    0 -0.49086345092E+02  0.88494869149E+02  0.48518761876E+02  0.16805472173E+03  0.12509000000E+03 0.  0.
         25    1    4    4    0    0  0.26736270092E+02 -0.25412641229E+01  0.13089854019E+03  0.18303885403E+03  0.12509000000E+03 0.  0.
         25    1    4    4    0    0  0.22350075001E+02 -0.85953605026E+02  0.17296153594E+03  0.23119418047E+03  0.12509000000E+03 0.  0.
<mgrwt>
<rscale>  2 0.46356034E+03</rscale>
<asrwt>0</asrwt>
<pdfrwt beam="1">  1       21 0.68725484E-01 0.46356034E+03</pdfrwt>
<pdfrwt beam="2">  1       21 0.16905068E-01 0.46356034E+03</pdfrwt>
<totfact> 0.55901758E+04</totfact>
</mgrwt>
</event>
<event>
 7    0  0.4712189E-002  0.4587411E+03  0.7546771E-02  0.1025147E+00
         21   -1    0    0  502  501  0.00000000000E+00  0.00000000000E+00  0.28946205482E+03  0.28946205482E+03  0.00000000000E+00 0.  1.
         21   -1    0    0  501  502 -0.00000000000E+00 -0.00000000000E+00 -0.18175384914E+03  0.18175384914E+03  0.00000000000E+00 0.  1.
      99926    2    1    2    0    0  0.00000000000E+00  0.00000000000E+00  0.10770820569E+03  0.47121590396E+03  0.45874107138E+03 0.  0.
      99925    2    3    3    0    0 -0.21150016931E+02  0.89568194196E+02  0.14124301691E+03  0.31233898213E+03  0.26293775937E+03 0.  0.
         25    1    3    3    0    0  0.21150016931E+02 -0.89568194196E+02 -0.33534811227E+02  0.15887692184E+03  0.12509000000E+03 0.  0.
         25    1    4    4    0    0  0.14465897085E+02  0.77485716632E+02  0.70748645899E+02  0.16390905239E+03  0.12509000000E+03 0.  0.
         25    1    4    4    0    0 -0.35615914016E+02  0.12082477564E+02  0.70494371016E+02  0.14842992973E+03  0.12509000000E+03 0.  0.
<mgrwt>
<rscale>  2 0.45874107E+03</rscale>
<asrwt>0</asrwt>
<pdfrwt beam="1">  1       21 0.42567949E-01 0.45874107E+03</pdfrwt>
<pdfrwt beam="2">  1       21 0.26728507E-01 0.45874107E+03</pdfrwt>
<totfact> 0.65383523E+04</totfact>
</mgrwt>
</event>
<event>
 7    0  0.4712189E-002  0.4632580E+03  0.7546771E-02  0.1023841E+00
         21   -1    0    0  502  501  0.00000000000E+00  0.00000000000E+00  0.46680236078E+02  0.46680236078E+02  0.00000000000E+00 0. -1.
         21   -1    0    0  501  502 -0.00000000000E+00 -0.00000000000E+00 -0.11493513548E+04  0.11493513548E+04  0.00000000000E+00 0. -1.
      99926    2    1    2    0    0 -0.71054273576E-14  0.14210854715E-13 -0.11026711187E+04  0.11960315909E+04  0.46325799542E+03 0.  0.
      99925    2    3    3    0    0 -0.45043085790E+02  0.10987732466E+03 -0.63270353700E+03  0.69541303147E+03  0.26302777906E+03 0.  0.
         25    1    4    4    0    0  0.43357435721E+01  0.24630410537E+02 -0.32041492157E+03  0.34487488436E+03  0.12509000000E+03 0.  0.
         25    1    4    4    0    0 -0.49378829362E+02  0.85246914122E+02 -0.31228861543E+03  0.35053814712E+03  0.12509000000E+03 0.  0.
         25    1    3    3    0    0  0.45043085790E+02 -0.10987732466E+03 -0.46996758173E+03  0.50061855941E+03  0.12509000000E+03 0.  0.
<mgrwt>
<rscale>  2 0.46325800E+03</rscale>
<asrwt>0</asrwt>
<pdfrwt beam="1">  1       21 0.68647412E-02 0.46325800E+03</pdfrwt>
<pdfrwt beam="2">  1       21 0.16902224E+00 0.46325800E+03</pdfrwt>
<totfact> 0.30286181E+04</totfact>
</mgrwt>
</event>
<event>
 7    0  0.4712189E-002  0.4580087E+03  0.7546771E-02  0.1025360E+00
         21   -1    0    0  502  501  0.00000000000E+00  0.00000000000E+00  0.83120406894E+02  0.83120406894E+02  0.00000000000E+00 0. -1.
         21   -1    0    0  501  502 -0.00000000000E+00 -0.00000000000E+00 -0.63092800991E+03  0.63092800991E+03  0.00000000000E+00 0. -1.
      99926    2    1    2    0    0  0.14210854715E-13  0.17763568394E-14 -0.54780760302E+03  0.71404841681E+03  0.45800870256E+03 0.  0.
      99925    2    3    3    0    0  0.10099326537E+03  0.11649974377E+02 -0.25655672477E+03  0.38116714107E+03  0.26292903007E+03 0.  0.
         25    1    3    3    0    0 -0.10099326537E+03 -0.11649974377E+02 -0.29125087825E+03  0.33288127574E+03  0.12509000000E+03 0.  0.
         25    1    4    4    0    0  0.30246909096E+02  0.34699331802E+02 -0.94776416829E+02  0.16355120429E+03  0.12509000000E+03 0.  0.
         25    1    4    4    0    0  0.70746356277E+02 -0.23049357425E+02 -0.16178030794E+03  0.21761593678E+03  0.12509000000E+03 0.  0.
<mgrwt>
<rscale>  2 0.45800870E+03</rscale>
<asrwt>0</asrwt>
<pdfrwt beam="1">  1       21 0.12223589E-01 0.45800870E+03</pdfrwt>
<pdfrwt beam="2">  1       21 0.92783533E-01 0.45800870E+03</pdfrwt>
<totfact> 0.50930642E+04</totfact>
</mgrwt>
</event>
<event>
 7    0  0.4712189E-002  0.4538534E+03  0.7546771E-02  0.1026579E+00
         21   -1    0    0  502  501  0.00000000000E+00  0.00000000000E+00  0.42981399260E+03  0.42981399260E+03  0.00000000000E+00 0. -1.
         21   -1    0    0  501  502 -0.00000000000E+00 -0.00000000000E+00 -0.11980932209E+03  0.11980932209E+03  0.00000000000E+00 0. -1.
      99926    2    1    2    0    0  0.44408920985E-15 -0.14210854715E-13  0.31000467051E+03  0.54962331469E+03  0.45385338196E+03 0.  0.
      99925    2    3    3    0    0 -0.35906770281E+01 -0.10268374149E+03  0.24944677570E+03  0.37678926003E+03  0.26303917738E+03 0.  0.
         25    1    4    4    0    0 -0.30739476848E+02 -0.82090750681E+02  0.13508397788E+03  0.20390928366E+03  0.12509000000E+03 0.  0.
         25    1    4    4    0    0  0.27148799820E+02 -0.20592990812E+02  0.11436279782E+03  0.17287997637E+03  0.12509000000E+03 0.  0.
         25    1    3    3    0    0  0.35906770281E+01  0.10268374149E+03  0.60557894814E+02  0.17283405467E+03  0.12509000000E+03 0.  0.
<mgrwt>
<rscale>  2 0.45385338E+03</rscale>
<asrwt>0</asrwt>
<pdfrwt beam="1">  1       21 0.63207940E-01 0.45385338E+03</pdfrwt>
<pdfrwt beam="2">  1       21 0.17619018E-01 0.45385338E+03</pdfrwt>
<totfact> 0.62456086E+04</totfact>
</mgrwt>
</event>
<event>
 7    0  0.4712189E-002  0.4518590E+03  0.7546771E-02  0.1027169E+00
         21   -1    0    0  502  501  0.00000000000E+00  0.00000000000E+00  0.70260994045E+03  0.70260994045E+03  0.00000000000E+00 0. -1.
         21   -1    0    0  501  502 -0.00000000000E+00 -0.00000000000E+00 -0.72649328007E+02  0.72649328007E+02  0.00000000000E+00 0. -1.
      99926    2    1    2    0    0  0.00000000000E+00 -0.35527136788E-14  0.62996061244E+03  0.77525926845E+03  0.45185900467E+03 0.  0.
      99925    2    3    3    0    0 -0.35838136161E+02 -0.30133296066E+02  0.22753638204E+03  0.35124847042E+03  0.26345833691E+03 0.  0.
         25    1    4    4    0    0 -0.29164318024E+02 -0.53502771642E+02  0.10345993598E+03  0.17339137946E+03  0.12509000000E+03 0.  0.
         25    1    4    4    0    0 -0.66738181377E+01  0.23369475576E+02  0.12407644606E+03  0.17785709096E+03  0.12509000000E+03 0.  0.
         25    1    3    3    0    0  0.35838136161E+02  0.30133296066E+02  0.40242423040E+03  0.42401079803E+03  0.12509000000E+03 0.  0.
<mgrwt>
<rscale>  2 0.45185900E+03</rscale>
<asrwt>0</asrwt>
<pdfrwt beam="1">  1       21 0.10332499E+00 0.45185900E+03</pdfrwt>
<pdfrwt beam="2">  1       21 0.10683725E-01 0.45185900E+03</pdfrwt>
<totfact> 0.50211389E+04</totfact>
</mgrwt>
</event>
<event>
 7    0  0.4712189E-002  0.4551582E+03  0.7546771E-02  0.1026195E+00
         21   -1    0    0  502  501  0.00000000000E+00  0.00000000000E+00  0.63081378637E+03  0.63081378637E+03  0.00000000000E+00 0. -1.
         21   -1    0    0  501  502 -0.00000000000E+00 -0.00000000000E+00 -0.82103877239E+02  0.82103877239E+02  0.00000000000E+00 0. -1.
      99926    2    1    2    0    0  0.00000000000E+00  0.00000000000E+00  0.54870990913E+03  0.71291766361E+03  0.45515824798E+03 0.  0.
      99925    2    3    3    0    0  0.42272651289E+02  0.10477195885E+03  0.33090974322E+03  0.43751148943E+03  0.26296559626E+03 0.  0.
         25    1    4    4    0    0  0.31423664331E+02  0.50777365056E+02  0.22637628416E+03  0.26544211726E+03  0.12509000000E+03 0.  0.
         25    1    4    4    0    0  0.10848986958E+02  0.53994593790E+02  0.10453345906E+03  0.17206937217E+03  0.12509000000E+03 0.  0.
         25    1    3    3    0    0 -0.42272651289E+02 -0.10477195885E+03  0.21780016591E+03  0.27540617418E+03  0.12509000000E+03 0.  0.
<mgrwt>
<rscale>  2 0.45515825E+03</rscale>
<asrwt>0</asrwt>
<pdfrwt beam="1">  1       21 0.92766731E-01 0.45515825E+03</pdfrwt>
<pdfrwt beam="2">  1       21 0.12074100E-01 0.45515825E+03</pdfrwt>
<totfact> 0.52142294E+04</totfact>
</mgrwt>
</event>
<event>
 7    0  0.4712189E-002  0.4413097E+03  0.7546771E-02  0.1030346E+00
         21   -1    0    0  502  501  0.00000000000E+00  0.00000000000E+00  0.10125840449E+03  0.10125840449E+03  0.00000000000E+00 0.  1.
         21   -1    0    0  501  502 -0.00000000000E+00 -0.00000000000E+00 -0.48083481768E+03  0.48083481768E+03  0.00000000000E+00 0.  1.
      99926    2    1    2    0    0  0.00000000000E+00  0.00000000000E+00 -0.37957641319E+03  0.58209322216E+03  0.44130971645E+03 0.  0.
      99925    2    3    3    0    0  0.53272141722E+02 -0.33526611847E+02 -0.13995021775E+03  0.30455011483E+03  0.26306416368E+03 0.  0.
         25    1    4    4    0    0 -0.99182630816E+01  0.35130462181E+01 -0.64495569317E+02  0.14113079040E+03  0.12509000000E+03 0.  0.
         25    1    3    3    0    0 -0.53272141722E+02  0.33526611847E+02 -0.23962619544E+03  0.27754310733E+03  0.12509000000E+03 0.  0.
         25    1    4    4    0    0  0.63190404804E+02 -0.37039658065E+02 -0.75454648433E+02  0.16341932444E+03  0.12509000000E+03 0.  0.
<mgrwt>
<rscale>  2 0.44130972E+03</rscale>
<asrwt>0</asrwt>
<pdfrwt beam="1">  1       21 0.14890942E-01 0.44130972E+03</pdfrwt>
<pdfrwt beam="2">  1       21 0.70711004E-01 0.44130972E+03</pdfrwt>
<totfact> 0.66727600E+04</totfact>
</mgrwt>
</event>
<event>
 7    0  0.4712189E-002  0.4572078E+03  0.7546771E-02  0.1025594E+00
         21   -1    0    0  502  501  0.00000000000E+00  0.00000000000E+00  0.52644378685E+03  0.52644378685E+03  0.00000000000E+00 0.  1.
         21   -1    0    0  501  502 -0.00000000000E+00 -0.00000000000E+00 -0.99269386162E+02  0.99269386162E+02  0.00000000000E+00 0.  1.
      99926    2    1    2    0    0  0.00000000000E+00  0.00000000000E+00  0.42717440069E+03  0.62571317301E+03  0.45720783707E+03 0.  0.
      99925    2    3    3    0    0  0.89021668595E+02 -0.26138303431E+02  0.36177795011E+03  0.45679818779E+03  0.26300804321E+03 0.  0.
         25    1    4    4    0    0  0.68929669967E+02  0.19221083713E+02  0.17816366265E+03  0.22915180176E+03  0.12509000000E+03 0.  0.
         25    1    3    3    0    0 -0.89021668595E+02  0.26138303431E+02  0.65396450575E+02  0.16891498522E+03  0.12509000000E+03 0.  0.
         25    1    4    4    0    0  0.20091998627E+02 -0.45359387145E+02  0.18361428746E+03  0.22764638603E+03  0.12509000000E+03 0.  0.
<mgrwt>
<rscale>  2 0.45720784E+03</rscale>
<asrwt>0</asrwt>
<pdfrwt beam="1">  1       21 0.77418203E-01 0.45720784E+03</pdfrwt>
<pdfrwt beam="2">  1       21 0.14598439E-01 0.45720784E+03</pdfrwt>
<totfact> 0.56137843E+04</totfact>
</mgrwt>
</event>
<event>
 7    0  0.4712189E-002  0.4595494E+03  0.7546771E-02  0.1024912E+00
         21   -1    0    0  502  501  0.00000000000E+00  0.00000000000E+00  0.35358722499E+03  0.35358722499E+03  0.00000000000E+00 0.  1.
         21   -1    0    0  501  502 -0.00000000000E+00 -0.00000000000E+00 -0.14931654822E+03  0.14931654822E+03  0.00000000000E+00 0.  1.
      99926    2    1    2    0    0 -0.71054273576E-14  0.00000000000E+00  0.20427067677E+03  0.50290377321E+03  0.45954944861E+03 0.  0.
      99925    2    3    3    0    0 -0.51229851540E+02 -0.18172877799E+02  0.14471717208E+02  0.26918192073E+03  0.26323891177E+03 0.  0.
         25    1    4    4    0    0  0.88072039907E+01  0.30535410944E+01  0.26827205824E+02  0.12827352816E+03  0.12509000000E+03 0.  0.
         25    1    4    4    0    0 -0.60037055530E+02 -0.21226418894E+02 -0.12355488616E+02  0.14090839256E+03  0.12509000000E+03 0.  0.
         25    1    3    3    0    0  0.51229851540E+02  0.18172877799E+02  0.18979895956E+03  0.23372185248E+03  0.12509000000E+03 0.  0.
<mgrwt>
<rscale>  2 0.45954945E+03</rscale>
<asrwt>0</asrwt>
<pdfrwt beam="1">  1       21 0.51998121E-01 0.45954945E+03</pdfrwt>
<pdfrwt beam="2">  1       21 0.21958316E-01 0.45954945E+03</pdfrwt>
<totfact> 0.62769500E+04</totfact>
</mgrwt>
</event>
<event>
 7    0  0.4712189E-002  0.4541244E+03  0.7546771E-02  0.1026499E+00
         21   -1    0    0  502  501  0.00000000000E+00  0.00000000000E+00  0.59076096706E+02  0.59076096706E+02  0.00000000000E+00 0.  1.
         21   -1    0    0  501  502 -0.00000000000E+00 -0.00000000000E+00 -0.87272602412E+03  0.87272602412E+03  0.00000000000E+00 0.  1.
      99926    2    1    2    0    0 -0.71054273576E-14 -0.14210854715E-13 -0.81364992741E+03  0.93180212083E+03  0.45412441907E+03 0.  0.
      99925    2    3    3    0    0 -0.47222370481E+02  0.10144554961E+03 -0.49939907814E+03  0.57554062111E+03  0.26329909892E+03 0.  0.
         25    1    3    3    0    0  0.47222370481E+02 -0.10144554961E+03 -0.31425084927E+03  0.35626149971E+03  0.12509000000E+03 0.  0.
         25    1    4    4    0    0 -0.41264343957E+02  0.12950569885E+02 -0.24639982732E+03  0.27969777680E+03  0.12509000000E+03 0.  0.
         25    1    4    4    0    0 -0.59580265242E+01  0.88494979723E+02 -0.25299925082E+03  0.29584284431E+03  0.12509000000E+03 0.  0.
<mgrwt>
<rscale>  2 0.45412442E+03</rscale>
<asrwt>0</asrwt>
<pdfrwt beam="1">  1       21 0.86876611E-02 0.45412442E+03</pdfrwt>
<pdfrwt beam="2">  1       21 0.12834206E+00 0.45412442E+03</pdfrwt>
<totfact> 0.42174709E+04</totfact>
</mgrwt>
</event>
<event>
 7    0  0.4712189E-002  0.4560169E+03  0.7546771E-02  0.1025943E+00
         21   -1    0    0  502  501  0.00000000000E+00  0.00000000000E+00  0.14195412708E+03  0.14195412708E+03  0.00000000000E+00 0. -1.
         21   -1    0    0  501  502 -0.00000000000E+00 -0.00000000000E+00 -0.36622989073E+03  0.36622989073E+03  0.00000000000E+00 0. -1.
      99926    2    1    2    0    0  0.00000000000E+00  0.00000000000E+00 -0.22427576365E+03  0.50818401781E+03  0.45601686130E+03 0.  0.
      99925    2    3    3    0    0 -0.17829057819E+02 -0.59469301886E+02 -0.24759855753E+03  0.36660035355E+03  0.26312791636E+03 0.  0.
         25    1    4    4    0    0 -0.19403720999E+02  0.92639685594E+01 -0.10350985119E+03  0.16378071588E+03  0.12509000000E+03 0.  0.
         25    1    4    4    0    0  0.15746631800E+01 -0.68733270445E+02 -0.14408870634E+03  0.20281963767E+03  0.12509000000E+03 0.  0.
         25    1    3    3    0    0  0.17829057819E+02  0.59469301886E+02  0.23322793873E+02  0.14158366425E+03  0.12509000000E+03 0.  0.
<mgrwt>
<rscale>  2 0.45601686E+03</rscale>
<asrwt>0</asrwt>
<pdfrwt beam="1">  1       21 0.20875607E-01 0.45601686E+03</pdfrwt>
<pdfrwt beam="2">  1       21 0.53857337E-01 0.45601686E+03</pdfrwt>
<totfact> 0.64179911E+04</totfact>
</mgrwt>
</event>
<event>
 7    0  0.4712189E-002  0.4068421E+03  0.7546771E-02  0.1041436E+00
         21   -1    0    0  502  501  0.00000000000E+00  0.00000000000E+00  0.56048534610E+02  0.56048534610E+02  0.00000000000E+00 0.  1.
         21   -1    0    0  501  502 -0.00000000000E+00 -0.00000000000E+00 -0.73829072993E+03  0.73829072993E+03  0.00000000000E+00 0.  1.
      99926    2    1    2    0    0  0.35527136788E-14  0.00000000000E+00 -0.68224219531E+03  0.79433926454E+03  0.40684205057E+03 0.  0.
      99925    2    3    3    0    0  0.24314256431E+02 -0.48888432950E+02 -0.48660358911E+03  0.55579527639E+03  0.26295260862E+03 0.  0.
         25    1    4    4    0    0 -0.60347969718E+01 -0.10210259506E+02 -0.16627294026E+03  0.20841033309E+03  0.12509000000E+03 0.  0.
         25    1    3    3    0    0 -0.24314256431E+02  0.48888432950E+02 -0.19563860620E+03  0.23854398814E+03  0.12509000000E+03 0.  0.
         25    1    4    4    0    0  0.30349053403E+02 -0.38678173445E+02 -0.32033064885E+03  0.34738494331E+03  0.12509000000E+03 0.  0.
<mgrwt>
<rscale>  2 0.40684205E+03</rscale>
<asrwt>0</asrwt>
<pdfrwt beam="1">  1       21 0.82424319E-02 0.40684205E+03</pdfrwt>
<pdfrwt beam="2">  1       21 0.10857216E+00 0.40684205E+03</pdfrwt>
<totfact> 0.71453704E+04</totfact>
</mgrwt>
</event>
<event>
 7    0  0.4712189E-002  0.4541842E+03  0.7546771E-02  0.1026482E+00
         21   -1    0    0  502  501  0.00000000000E+00  0.00000000000E+00  0.52092839349E+02  0.52092839349E+02  0.00000000000E+00 0.  1.
         21   -1    0    0  501  502 -0.00000000000E+00 -0.00000000000E+00 -0.98997921954E+03  0.98997921954E+03  0.00000000000E+00 0.  1.
      99926    2    1    2    0    0 -0.14210854715E-13  0.71054273576E-14 -0.93788638019E+03  0.10420720589E+04  0.45418422889E+03 0.  0.
      99925    2    3    3    0    0  0.98321978384E+02 -0.44197161711E+02 -0.66308248134E+03  0.72147060621E+03  0.26309857093E+03 0.  0.
         25    1    4    4    0    0  0.61851179472E+02 -0.53451993730E+02 -0.29101665974E+03  0.32714047194E+03  0.12509000000E+03 0.  0.
         25    1    4    4    0    0  0.36470798912E+02  0.92548320184E+01 -0.37206582160E+03  0.39433013426E+03  0.12509000000E+03 0.  0.
         25    1    3    3    0    0 -0.98321978384E+02  0.44197161711E+02 -0.27480389885E+03  0.32060145268E+03  0.12509000000E+03 0.  0.
<mgrwt>
<rscale>  2 0.45418423E+03</rscale>
<asrwt>0</asrwt>
<pdfrwt beam="1">  1       21 0.76607124E-02 0.45418423E+03</pdfrwt>
<pdfrwt beam="2">  1       21 0.14558516E+00 0.45418423E+03</pdfrwt>
<totfact> 0.37809838E+04</totfact>
</mgrwt>
</event>
<event>
 7    0  0.4712189E-002  0.4541435E+03  0.7546771E-02  0.1026494E+00
         21   -1    0    0  502  501  0.00000000000E+00  0.00000000000E+00  0.24165922549E+03  0.24165922549E+03  0.00000000000E+00 0.  1.
         21   -1    0    0  501  502 -0.00000000000E+00 -0.00000000000E+00 -0.21336487611E+03  0.21336487611E+03  0.00000000000E+00 0.  1.
      99926    2    1    2    0    0  0.00000000000E+00 -0.35527136788E-14  0.28294349376E+02  0.45502410160E+03  0.45414354870E+03 0.  0.
      99925    2    3    3    0    0  0.19157596035E+02 -0.17332716926E+02 -0.91772987259E+02  0.27972119236E+03  0.26297191428E+03 0.  0.
         25    1    4    4    0    0  0.10998488842E+02 -0.44429649717E+02 -0.26484393634E+02  0.13580829038E+03  0.12509000000E+03 0.  0.
         25    1    3    3    0    0 -0.19157596035E+02  0.17332716926E+02  0.12006733663E+03  0.17530290924E+03  0.12509000000E+03 0.  0.
         25    1    4    4    0    0  0.81591071922E+01  0.27096932791E+02 -0.65288593624E+02  0.14391290197E+03  0.12509000000E+03 0.  0.
<mgrwt>
<rscale>  2 0.45414355E+03</rscale>
<asrwt>0</asrwt>
<pdfrwt beam="1">  1       21 0.35538121E-01 0.45414355E+03</pdfrwt>
<pdfrwt beam="2">  1       21 0.31377188E-01 0.45414355E+03</pdfrwt>
<totfact> 0.69014465E+04</totfact>
</mgrwt>
</event>
<event>
 6    0  0.5488767E-002  0.4380626E+03  0.7546771E-02  0.1031343E+00
         21   -1    0    0  502  501  0.00000000000E+00  0.00000000000E+00  0.91940505760E+02  0.91940505760E+02  0.00000000000E+00 0. -1.
         21   -1    0    0  501  502 -0.00000000000E+00 -0.00000000000E+00 -0.52180179134E+03  0.52180179134E+03  0.00000000000E+00 0. -1.
      99926    2    1    2    0    0 -0.88817841970E-15  0.00000000000E+00 -0.42986128558E+03  0.61374229710E+03  0.43806264667E+03 0.  0.
         25    1    3    3    0    0  0.22525647016E+02 -0.75705937806E+02 -0.10662885247E+03  0.18236231538E+03  0.12509000000E+03 0.  0.
         25    1    3    3    0    0 -0.28640711169E+02  0.10453492463E+02 -0.22540936966E+03  0.25958901724E+03  0.12509000000E+03 0.  0.
         25    1    3    3    0    0  0.61150641522E+01  0.65252445343E+02 -0.97823063446E+02  0.17179096447E+03  0.12509000000E+03 0.  0.
<mgrwt>
<rscale>  2 0.43806265E+03</rscale>
<asrwt>0</asrwt>
<pdfrwt beam="1">  1       21 0.13520663E-01 0.43806265E+03</pdfrwt>
<pdfrwt beam="2">  1       21 0.76735556E-01 0.43806265E+03</pdfrwt>
<totfact> 0.66269401E+04</totfact>
</mgrwt>
</event>
<event>
 7    0  0.4712189E-002  0.4529891E+03  0.7546771E-02  0.1026834E+00
         21   -1    0    0  502  501  0.00000000000E+00  0.00000000000E+00  0.10054106638E+03  0.10054106638E+03  0.00000000000E+00 0. -1.
         21   -1    0    0  501  502 -0.00000000000E+00 -0.00000000000E+00 -0.51023717667E+03  0.51023717667E+03  0.00000000000E+00 0. -1.
      99926    2    1    2    0    0  0.00000000000E+00  0.35527136788E-14 -0.40969611029E+03  0.61077824304E+03  0.45298913827E+03 0.  0.
      99925    2    3    3    0    0 -0.98046797603E+02  0.19931573574E+02 -0.19257463029E+03  0.34096407121E+03  0.26298491873E+03 0.  0.
         25    1    4    4    0    0 -0.77511738933E+02 -0.94991661650E+01 -0.74362823275E+02  0.16515338754E+03  0.12509000000E+03 0.  0.
         25    1    3    3    0    0  0.98046797603E+02 -0.19931573574E+02 -0.21712148000E+03  0.26981417183E+03  0.12509000000E+03 0.  0.
         25    1    4    4    0    0 -0.20535058670E+02  0.29430739739E+02 -0.11821180701E+03  0.17581068367E+03  0.12509000000E+03 0.  0.
<mgrwt>
<rscale>  2 0.45298914E+03</rscale>
<asrwt>0</asrwt>
<pdfrwt beam="1">  1       21 0.14785451E-01 0.45298914E+03</pdfrwt>
<pdfrwt beam="2">  1       21 0.75034878E-01 0.45298914E+03</pdfrwt>
<totfact> 0.58950449E+04</totfact>
</mgrwt>
</event>
<event>
 7    0  0.4712189E-002  0.4611777E+03  0.7546771E-02  0.1024440E+00
         21   -1    0    0  502  501  0.00000000000E+00  0.00000000000E+00  0.41657958967E+02  0.41657958967E+02  0.00000000000E+00 0. -1.
         21   -1    0    0  501  502 -0.00000000000E+00 -0.00000000000E+00 -0.12763758946E+04  0.12763758946E+04  0.00000000000E+00 0. -1.
      99926    2    1    2    0    0  0.00000000000E+00  0.00000000000E+00 -0.12347179356E+04  0.13180338536E+04  0.46117768655E+03 0.  0.
      99925    2    3    3    0    0  0.11961796915E+02 -0.11827755025E+03 -0.77990332075E+03  0.83158086973E+03  0.26295415892E+03 0.  0.
         25    1    4    4    0    0 -0.93386220521E+01 -0.90042420197E+02 -0.35225038226E+03  0.38460718558E+03  0.12509000000E+03 0.  0.
         25    1    4    4    0    0  0.21300418967E+02 -0.28235130058E+02 -0.42765293850E+03  0.44697368415E+03  0.12509000000E+03 0.  0.
         25    1    3    3    0    0 -0.11961796915E+02  0.11827755025E+03 -0.45481461488E+03  0.48645298385E+03  0.12509000000E+03 0.  0.
<mgrwt>
<rscale>  2 0.46117769E+03</rscale>
<asrwt>0</asrwt>
<pdfrwt beam="1">  1       21 0.61261699E-02 0.46117769E+03</pdfrwt>
<pdfrwt beam="2">  1       21 0.18770235E+00 0.46117769E+03</pdfrwt>
<totfact> 0.27262079E+04</totfact>
</mgrwt>
</event>
<event>
 7    0  0.4712189E-002  0.4622527E+03  0.7546771E-02  0.1024130E+00
         21   -1    0    0  502  501  0.00000000000E+00  0.00000000000E+00  0.13097009356E+04  0.13097009356E+04  0.00000000000E+00 0. -1.
         21   -1    0    0  501  502 -0.00000000000E+00 -0.00000000000E+00 -0.40787480031E+02  0.40787480031E+02  0.00000000000E+00 0. -1.
      99926    2    1    2    0    0  0.00000000000E+00  0.71054273576E-14  0.12689134555E+04  0.13504884156E+04  0.46225274799E+03 0.  0.
      99925    2    3    3    0    0 -0.78911519933E+02  0.57514202569E+02  0.58965425976E+03  0.65293879398E+03  0.26287261393E+03 0.  0.
         25    1    4    4    0    0 -0.37066580558E+02 -0.55549784302E+01  0.33090948896E+03  0.35574342884E+03  0.12509000000E+03 0.  0.
         25    1    4    4    0    0 -0.41844939375E+02  0.63069180999E+02  0.25874477080E+03  0.29719536514E+03  0.12509000000E+03 0.  0.
         25    1    3    3    0    0  0.78911519933E+02 -0.57514202569E+02  0.67925919578E+03  0.69754962162E+03  0.12509000000E+03 0.  0.
<mgrwt>
<rscale>  2 0.46225275E+03</rscale>
<asrwt>0</asrwt>
<pdfrwt beam="1">  1       21 0.19260305E+00 0.46225275E+03</pdfrwt>
<pdfrwt beam="2">  1       21 0.59981597E-02 0.46225275E+03</pdfrwt>
<totfact> 0.26174712E+04</totfact>
</mgrwt>
</event>
<event>
 7    0  0.4712189E-002  0.4529782E+03  0.7546771E-02  0.1026838E+00
         21   -1    0    0  502  501  0.00000000000E+00  0.00000000000E+00  0.11856282024E+04  0.11856282024E+04  0.00000000000E+00 0. -1.
         21   -1    0    0  501  502 -0.00000000000E+00 -0.00000000000E+00 -0.43265939789E+02  0.43265939789E+02  0.00000000000E+00 0. -1.
      99926    2    1    2    0    0  0.00000000000E+00  0.00000000000E+00  0.11423622626E+04  0.12288941422E+04  0.45297822649E+03 0.  0.
      99925    2    3    3    0    0 -0.50056497926E+02 -0.70703989374E+02  0.90947947794E+03  0.95070965917E+03  0.26304225545E+03 0.  0.
         25    1    4    4    0    0 -0.35611330097E+02 -0.65152330210E+02  0.57944809421E+03  0.59742831783E+03  0.12509000000E+03 0.  0.
         25    1    4    4    0    0 -0.14445167829E+02 -0.55516591645E+01  0.33003138373E+03  0.35328134134E+03  0.12509000000E+03 0.  0.
         25    1    3    3    0    0  0.50056497926E+02  0.70703989374E+02  0.23288278470E+03  0.27818448305E+03  0.12509000000E+03 0.  0.
<mgrwt>
<rscale>  2 0.45297823E+03</rscale>
<asrwt>0</asrwt>
<pdfrwt beam="1">  1       21 0.17435707E+00 0.45297823E+03</pdfrwt>
<pdfrwt beam="2">  1       21 0.63626390E-02 0.45297823E+03</pdfrwt>
<totfact> 0.31748519E+04</totfact>
</mgrwt>
</event>
<event>
 7    0  0.4712189E-002  0.4553086E+03  0.7546771E-02  0.1026151E+00
         21   -1    0    0  502  501  0.00000000000E+00  0.00000000000E+00  0.10689522490E+03  0.10689522490E+03  0.00000000000E+00 0.  1.
         21   -1    0    0  501  502 -0.00000000000E+00 -0.00000000000E+00 -0.48483446060E+03  0.48483446060E+03  0.00000000000E+00 0.  1.
      99926    2    1    2    0    0  0.17763568394E-14 -0.14210854715E-13 -0.37793923570E+03  0.59172968550E+03  0.45530863689E+03 0.  0.
      99925    2    3    3    0    0  0.50885279969E+01 -0.80306722795E+02 -0.34164485005E+03  0.43862889069E+03  0.26305709901E+03 0.  0.
         25    1    4    4    0    0  0.17723356958E+02 -0.30930753210E+02 -0.22625226900E+03  0.26097591116E+03  0.12509000000E+03 0.  0.
         25    1    4    4    0    0 -0.12634828961E+02 -0.49375969584E+02 -0.11539258105E+03  0.17765297953E+03  0.12509000000E+03 0.  0.
         25    1    3    3    0    0 -0.50885279969E+01  0.80306722795E+02 -0.36294385651E+02  0.15310079481E+03  0.12509000000E+03 0.  0.
<mgrwt>
<rscale>  2 0.45530864E+03</rscale>
<asrwt>0</asrwt>
<pdfrwt beam="1">  1       21 0.15719886E-01 0.45530864E+03</pdfrwt>
<pdfrwt beam="2">  1       21 0.71299186E-01 0.45530864E+03</pdfrwt>
<totfact> 0.59046077E+04</totfact>
</mgrwt>
</event>
<event>
 7    0  0.4712189E-002  0.4551228E+03  0.7546771E-02  0.1026205E+00
         21   -1    0    0  502  501  0.00000000000E+00  0.00000000000E+00  0.44530230777E+03  0.44530230777E+03  0.00000000000E+00 0. -1.
         21   -1    0    0  501  502 -0.00000000000E+00 -0.00000000000E+00 -0.11628994238E+03  0.11628994238E+03  0.00000000000E+00 0. -1.
      99926    2    1    2    0    0  0.71054273576E-14  0.00000000000E+00  0.32901236539E+03  0.56159225015E+03  0.45512275140E+03 0.  0.
      99925    2    3    3    0    0  0.56371730703E+02  0.54590019854E+02  0.30781583701E+03  0.41241234800E+03  0.26301238179E+03 0.  0.
         25    1    4    4    0    0  0.15404673707E+02  0.50852017593E+02  0.20209827246E+03  0.24354558403E+03  0.12509000000E+03 0.  0.
         25    1    3    3    0    0 -0.56371730703E+02 -0.54590019854E+02  0.21196528380E+02  0.14917990215E+03  0.12509000000E+03 0.  0.
         25    1    4    4    0    0  0.40967056996E+02  0.37380022608E+01  0.10571756455E+03  0.16886676397E+03  0.12509000000E+03 0.  0.
<mgrwt>
<rscale>  2 0.45512275E+03</rscale>
<asrwt>0</asrwt>
<pdfrwt beam="1">  1       21 0.65485633E-01 0.45512275E+03</pdfrwt>
<pdfrwt beam="2">  1       21 0.17101462E-01 0.45512275E+03</pdfrwt>
<totfact> 0.61047632E+04</totfact>
</mgrwt>
</event>
<event>
 7    0  0.4712189E-002  0.4565468E+03  0.7546771E-02  0.1025788E+00
         21   -1    0    0  502  501  0.00000000000E+00  0.00000000000E+00  0.31576348260E+02  0.31576348260E+02  0.00000000000E+00 0.  1.
         21   -1    0    0  501  502 -0.00000000000E+00 -0.00000000000E+00 -0.16502460522E+04  0.16502460522E+04  0.00000000000E+00 0.  1.
      99926    2    1    2    0    0  0.00000000000E+00 -0.71054273576E-14 -0.16186697040E+04  0.16818224005E+04  0.45654679524E+03 0.  0.
      99925    2    3    3    0    0  0.49452558370E+02  0.36059916705E+02 -0.66095786507E+03  0.71403867073E+03  0.26313504285E+03 0.  0.
         25    1    4    4    0    0  0.22591741401E+02  0.56271314419E+02 -0.38101383698E+03  0.40558094097E+03  0.12509000000E+03 0.  0.
         25    1    3    3    0    0 -0.49452558370E+02 -0.36059916705E+02 -0.95771183891E+03  0.96778372977E+03  0.12509000000E+03 0.  0.
         25    1    4    4    0    0  0.26860816970E+02 -0.20211397715E+02 -0.27994402809E+03  0.30845772976E+03  0.12509000000E+03 0.  0.
<mgrwt>
<rscale>  2 0.45654680E+03</rscale>
<asrwt>0</asrwt>
<pdfrwt beam="1">  1       21 0.46435811E-02 0.45654680E+03</pdfrwt>
<pdfrwt beam="2">  1       21 0.24268322E+00 0.45654680E+03</pdfrwt>
<totfact> 0.19408332E+04</totfact>
</mgrwt>
</event>
<event>
 7    0  0.4712189E-002  0.4511369E+03  0.7546771E-02  0.1027384E+00
         21   -1    0    0  502  501  0.00000000000E+00  0.00000000000E+00  0.34883464483E+03  0.34883464483E+03  0.00000000000E+00 0. -1.
         21   -1    0    0  501  502 -0.00000000000E+00 -0.00000000000E+00 -0.14586030743E+03  0.14586030743E+03  0.00000000000E+00 0. -1.
      99926    2    1    2    0    0  0.00000000000E+00  0.00000000000E+00  0.20297433739E+03  0.49469495226E+03  0.45113691287E+03 0.  0.
      99925    2    3    3    0    0 -0.72665813582E+02 -0.79686719263E+02  0.10748222429E+03  0.30391616556E+03  0.26302530954E+03 0.  0.
         25    1    3    3    0    0  0.72665813582E+02  0.79686719263E+02  0.95492113107E+02  0.19077878670E+03  0.12509000000E+03 0.  0.
         25    1    4    4    0    0  0.56771659404E+01 -0.39562265269E+02  0.50077639104E+02  0.14054423177E+03  0.12509000000E+03 0.  0.
         25    1    4    4    0    0 -0.78342979522E+02 -0.40124453995E+02  0.57404585183E+02  0.16337193379E+03  0.12509000000E+03 0.  0.
<mgrwt>
<rscale>  2 0.45113691E+03</rscale>
<asrwt>0</asrwt>
<pdfrwt beam="1">  1       21 0.51299212E-01 0.45113691E+03</pdfrwt>
<pdfrwt beam="2">  1       21 0.21450045E-01 0.45113691E+03</pdfrwt>
<totfact> 0.67697337E+04</totfact>
</mgrwt>
</event>
<event>
 7    0  0.4712189E-002  0.4632914E+03  0.7546771E-02  0.1023831E+00
         21   -1    0    0  502  501  0.00000000000E+00  0.00000000000E+00  0.17807872991E+03  0.17807872991E+03  0.00000000000E+00 0.  1.
         21   -1    0    0  501  502 -0.00000000000E+00 -0.00000000000E+00 -0.30132589541E+03  0.30132589541E+03  0.00000000000E+00 0.  1.
      99926    2    1    2    0    0  0.00000000000E+00  0.00000000000E+00 -0.12324716550E+03  0.47940462532E+03  0.46329141042E+03 0.  0.
      99925    2    3    3    0    0 -0.18627346704E+02  0.37619490581E+02  0.40070883227E+02  0.26944630265E+03  0.26312246239E+03 0.  0.
         25    1    4    4    0    0  0.62535706042E+01  0.20264102701E+02 -0.18166051269E+02  0.12816885161E+03  0.12509000000E+03 0.  0.
         25    1    3    3    0    0  0.18627346704E+02 -0.37619490581E+02 -0.16331804872E+03  0.20995832266E+03  0.12509000000E+03 0.  0.
         25    1    4    4    0    0 -0.24880917308E+02  0.17355387880E+02  0.58236934496E+02  0.14127745105E+03  0.12509000000E+03 0.  0.
<mgrwt>
<rscale>  2 0.46329141E+03</rscale>
<asrwt>0</asrwt>
<pdfrwt beam="1">  1       21 0.26188049E-01 0.46329141E+03</pdfrwt>
<pdfrwt beam="2">  1       21 0.44312631E-01 0.46329141E+03</pdfrwt>
<totfact> 0.62527004E+04</totfact>
</mgrwt>
</event>
<event>
 7    0  0.4712189E-002  0.4524191E+03  0.7546771E-02  0.1027003E+00
         21   -1    0    0  502  501  0.00000000000E+00  0.00000000000E+00  0.68026419425E+02  0.68026419425E+02  0.00000000000E+00 0. -1.
         21   -1    0    0  501  502 -0.00000000000E+00 -0.00000000000E+00 -0.75221896413E+03  0.75221896413E+03  0.00000000000E+00 0. -1.
      99926    2    1    2    0    0  0.00000000000E+00  0.00000000000E+00 -0.68419254471E+03  0.82024538356E+03  0.45241910991E+03 0.  0.
      99925    2    3    3    0    0  0.39841170562E+02  0.86900064346E+02 -0.33012914714E+03  0.43275688353E+03  0.26297210194E+03 0.  0.
         25    1    3    3    0    0 -0.39841170562E+02 -0.86900064346E+02 -0.35406339757E+03  0.38748850003E+03  0.12509000000E+03 0.  0.
         25    1    4    4    0    0  0.22852024879E+01  0.23484363638E+02 -0.10569890240E+03  0.16545846474E+03  0.12509000000E+03 0.  0.
         25    1    4    4    0    0  0.37555968074E+02  0.63415700708E+02 -0.22443024474E+03  0.26729841879E+03  0.12509000000E+03 0.  0.
<mgrwt>
<rscale>  2 0.45241911E+03</rscale>
<asrwt>0</asrwt>
<pdfrwt beam="1">  1       21 0.10003885E-01 0.45241911E+03</pdfrwt>
<pdfrwt beam="2">  1       21 0.11062043E+00 0.45241911E+03</pdfrwt>
<totfact> 0.47761015E+04</totfact>
</mgrwt>
</event>
<event>
 7    0  0.4712189E-002  0.4530761E+03  0.7546771E-02  0.1026809E+00
         21   -1    0    0  502  501  0.00000000000E+00  0.00000000000E+00  0.12260042148E+04  0.12260042148E+04  0.00000000000E+00 0.  1.
         21   -1    0    0  501  502 -0.00000000000E+00 -0.00000000000E+00 -0.41859147073E+02  0.41859147073E+02  0.00000000000E+00 0.  1.
      99926    2    1    2    0    0 -0.14210854715E-13  0.17763568394E-14  0.11841450677E+04  0.12678633619E+04  0.45307611166E+03 0.  0.
      99925    2    3    3    0    0 -0.10345101223E+03  0.13553807546E+02  0.85467623067E+03  0.90032691427E+03  0.26311836812E+03 0.  0.
         25    1    4    4    0    0 -0.11725945164E+02  0.19562142412E+02  0.41573150852E+03  0.43474172848E+03  0.12509000000E+03 0.  0.
         25    1    4    4    0    0 -0.91725067067E+02 -0.60083348659E+01  0.43894472216E+03  0.46558518579E+03  0.12509000000E+03 0.  0.
         25    1    3    3    0    0  0.10345101223E+03 -0.13553807546E+02  0.32946883704E+03  0.36753644760E+03  0.12509000000E+03 0.  0.
<mgrwt>
<rscale>  2 0.45307611E+03</rscale>
<asrwt>0</asrwt>
<pdfrwt beam="1">  1       21 0.18029471E+00 0.45307611E+03</pdfrwt>
<pdfrwt beam="2">  1       21 0.61557577E-02 0.45307611E+03</pdfrwt>
<totfact> 0.30516893E+04</totfact>
</mgrwt>
</event>
<event>
 7    0  0.4712189E-002  0.4495716E+03  0.7546771E-02  0.1027850E+00
         21   -1    0    0  502  501  0.00000000000E+00  0.00000000000E+00  0.59498868920E+03  0.59498868920E+03  0.00000000000E+00 0. -1.
         21   -1    0    0  501  502 -0.00000000000E+00 -0.00000000000E+00 -0.84923719313E+02  0.84923719313E+02  0.00000000000E+00 0. -1.
      99926    2    1    2    0    0  0.00000000000E+00 -0.35527136788E-14  0.51006496989E+03  0.67991240852E+03  0.44957158467E+03 0.  0.
      99925    2    3    3    0    0  0.30151973656E+02  0.23888963774E+02  0.47617128775E+03  0.54472323034E+03  0.26173360177E+03 0.  0.
         25    1    4    4    0    0  0.14845419403E+02 -0.56158125301E+01  0.16466832496E+03  0.20740079357E+03  0.12509000000E+03 0.  0.
         25    1    3    3    0    0 -0.30151973656E+02 -0.23888963774E+02  0.33893682144E+02  0.13518917817E+03  0.12509000000E+03 0.  0.
         25    1    4    4    0    0  0.15306554253E+02  0.29504776305E+02  0.31150296278E+03  0.33732243677E+03  0.12509000000E+03 0.  0.
<mgrwt>
<rscale>  2 0.44957158E+03</rscale>
<asrwt>0</asrwt>
<pdfrwt beam="1">  1       21 0.87498334E-01 0.44957158E+03</pdfrwt>
<pdfrwt beam="2">  1       21 0.12488783E-01 0.44957158E+03</pdfrwt>
<totfact> 0.56379117E+04</totfact>
</mgrwt>
</event>
<event>
 7    0  0.4712189E-002  0.4792443E+03  0.7546771E-02  0.1019343E+00
         21   -1    0    0  502  501  0.00000000000E+00  0.00000000000E+00  0.11676612365E+03  0.11676612365E+03  0.00000000000E+00 0. -1.
         21   -1    0    0  501  502 -0.00000000000E+00 -0.00000000000E+00 -0.49174175734E+03  0.49174175734E+03  0.00000000000E+00 0. -1.
      99926    2    1    2    0    0  0.00000000000E+00  0.35527136788E-14 -0.37497563368E+03  0.60850788099E+03  0.47924431699E+03 0.  0.
      99925    2    3    3    0    0 -0.67938291571E+02  0.20806048291E+02 -0.37634107497E+03  0.46464031815E+03  0.26307701807E+03 0.  0.
         25    1    3    3    0    0  0.67938291571E+02 -0.20806048291E+02  0.13654412891E+01  0.14386756284E+03  0.12509000000E+03 0.  0.
         25    1    4    4    0    0 -0.45198221009E+02 -0.22938040941E+02 -0.15369337353E+03  0.20454386833E+03  0.12509000000E+03 0.  0.
         25    1    4    4    0    0 -0.22740070561E+02  0.43744089232E+02 -0.22264770145E+03  0.26009644983E+03  0.12509000000E+03 0.  0.
<mgrwt>
<rscale>  2 0.47924432E+03</rscale>
<asrwt>0</asrwt>
<pdfrwt beam="1">  1       21 0.17171489E-01 0.47924432E+03</pdfrwt>
<pdfrwt beam="2">  1       21 0.72314964E-01 0.47924432E+03</pdfrwt>
<totfact> 0.48233520E+04</totfact>
</mgrwt>
</event>
<event>
 7    0  0.4712189E-002  0.4509036E+03  0.7546771E-02  0.1027453E+00
         21   -1    0    0  502  501  0.00000000000E+00  0.00000000000E+00  0.39182827353E+02  0.39182827353E+02  0.00000000000E+00 0.  1.
         21   -1    0    0  501  502 -0.00000000000E+00 -0.00000000000E+00 -0.12972139404E+04  0.12972139404E+04  0.00000000000E+00 0.  1.
      99926    2    1    2    0    0  0.00000000000E+00  0.00000000000E+00 -0.12580311130E+04  0.13363967677E+04  0.45090358112E+03 0.  0.
      99925    2    3    3    0    0  0.41660193648E+02  0.25805388323E+02 -0.50491700352E+03  0.57139359137E+03  0.26296000840E+03 0.  0.
         25    1    4    4    0    0  0.55894809542E+02 -0.62113854775E+01 -0.27551072427E+03  0.30776042359E+03  0.12509000000E+03 0.  0.
         25    1    3    3    0    0 -0.41660193648E+02 -0.25805388323E+02 -0.75311410949E+03  0.76500317635E+03  0.12509000000E+03 0.  0.
         25    1    4    4    0    0 -0.14234615894E+02  0.32016773801E+02 -0.22940627925E+03  0.26363316778E+03  0.12509000000E+03 0.  0.
<mgrwt>
<rscale>  2 0.45090358E+03</rscale>
<asrwt>0</asrwt>
<pdfrwt beam="1">  1       21 0.57621799E-02 0.45090358E+03</pdfrwt>
<pdfrwt beam="2">  1       21 0.19076677E+00 0.45090358E+03</pdfrwt>
<totfact> 0.28988103E+04</totfact>
</mgrwt>
</event>
<event>
 7    0  0.4712189E-002  0.4556084E+03  0.7546771E-02  0.1026063E+00
         21   -1    0    0  502  501  0.00000000000E+00  0.00000000000E+00  0.14944756310E+04  0.14944756310E+04  0.00000000000E+00 0. -1.
         21   -1    0    0  501  502 -0.00000000000E+00 -0.00000000000E+00 -0.34724393602E+02  0.34724393602E+02  0.00000000000E+00 0. -1.
      99926    2    1    2    0    0  0.14210854715E-13 -0.71054273576E-14  0.14597512374E+04  0.15292000246E+04  0.45560842855E+03 0.  0.
      99925    2    3    3    0    0  0.97050865111E+02 -0.58774787574E+02  0.89150394058E+03  0.93638821254E+03  0.26300240009E+03 0.  0.
         25    1    4    4    0    0  0.62662546619E+02 -0.51297035013E+02  0.36865093604E+03  0.39762922591E+03  0.12509000000E+03 0.  0.
         25    1    3    3    0    0 -0.97050865111E+02  0.58774787574E+02  0.56824729686E+03  0.59281181209E+03  0.12509000000E+03 0.  0.
         25    1    4    4    0    0  0.34388318493E+02 -0.74777525609E+01  0.52285300453E+03  0.53875898664E+03  0.12509000000E+03 0.  0.
<mgrwt>
<rscale>  2 0.45560843E+03</rscale>
<asrwt>0</asrwt>
<pdfrwt beam="1">  1       21 0.21977578E+00 0.45560843E+03</pdfrwt>
<pdfrwt beam="2">  1       21 0.51065295E-02 0.45560843E+03</pdfrwt>
<totfact> 0.22963767E+04</totfact>
</mgrwt>
</event>
<event>
 7    0  0.4712189E-002  0.4492015E+03  0.7546771E-02  0.1027960E+00
         21   -1    0    0  502  501  0.00000000000E+00  0.00000000000E+00  0.21872139576E+03  0.21872139576E+03  0.00000000000E+00 0. -1.
         21   -1    0    0  501  502 -0.00000000000E+00 -0.00000000000E+00 -0.23063810070E+03  0.23063810070E+03  0.00000000000E+00 0. -1.
      99926    2    1    2    0    0  0.17763568394E-14  0.00000000000E+00 -0.11916704937E+02  0.44935949646E+03  0.44920145726E+03 0.  0.
      99925    2    3    3    0    0  0.14952848416E+02 -0.41923345647E+02 -0.10556468014E+03  0.28688301833E+03  0.26301484736E+03 0.  0.
         25    1    4    4    0    0 -0.26693101218E+02 -0.38431767942E+02 -0.38899273669E+02  0.13910493892E+03  0.12509000000E+03 0.  0.
         25    1    3    3    0    0 -0.14952848416E+02  0.41923345647E+02  0.93647975200E+02  0.16247647813E+03  0.12509000000E+03 0.  0.
         25    1    4    4    0    0  0.41645949634E+02 -0.34915777050E+01 -0.66665406467E+02  0.14777807941E+03  0.12509000000E+03 0.  0.
<mgrwt>
<rscale>  2 0.44920146E+03</rscale>
<asrwt>0</asrwt>
<pdfrwt beam="1">  1       21 0.32164911E-01 0.44920146E+03</pdfrwt>
<pdfrwt beam="2">  1       21 0.33917368E-01 0.44920146E+03</pdfrwt>
<totfact> 0.72246150E+04</totfact>
</mgrwt>
</event>
<event>
 7    0  0.4712189E-002  0.3886494E+03  0.7546771E-02  0.1047782E+00
         21   -1    0    0  502  501  0.00000000000E+00  0.00000000000E+00  0.17646806264E+04  0.17646806264E+04  0.00000000000E+00 0.  1.
         21   -1    0    0  501  502 -0.00000000000E+00 -0.00000000000E+00 -0.21398824602E+02  0.21398824602E+02  0.00000000000E+00 0.  1.
      99926    2    1    2    0    0 -0.44408920985E-15  0.22204460493E-15  0.17432818018E+04  0.17860794510E+04  0.38864941118E+03 0.  0.
      99925    2    3    3    0    0 -0.29217199697E+01  0.16295234230E+01  0.12240373063E+04  0.12519694005E+04  0.26296170994E+03 0.  0.
         25    1    4    4    0    0 -0.22276491750E+02  0.30343871129E+02  0.52686195302E+03  0.54281490237E+03  0.12509000000E+03 0.  0.
         25    1    3    3    0    0  0.29217199697E+01 -0.16295234230E+01  0.51924449551E+03  0.53411005047E+03  0.12509000000E+03 0.  0.
         25    1    4    4    0    0  0.19354771780E+02 -0.28714347706E+02  0.69717535327E+03  0.70915449816E+03  0.12509000000E+03 0.  0.
<mgrwt>
<rscale>  2 0.38864941E+03</rscale>
<asrwt>0</asrwt>
<pdfrwt beam="1">  1       21 0.25951176E+00 0.38864941E+03</pdfrwt>
<pdfrwt beam="2">  1       21 0.31468872E-02 0.38864941E+03</pdfrwt>
<totfact> 0.30455565E+04</totfact>
</mgrwt>
</event>
<event>
 7    0  0.4712189E-002  0.4583914E+03  0.7546771E-02  0.1025249E+00
         21   -1    0    0  502  501  0.00000000000E+00  0.00000000000E+00  0.59084526691E+02  0.59084526691E+02  0.00000000000E+00 0.  1.
         21   -1    0    0  501  502 -0.00000000000E+00 -0.00000000000E+00 -0.88907652062E+03  0.88907652062E+03  0.00000000000E+00 0.  1.
      99926    2    1    2    0    0  0.00000000000E+00 -0.35527136788E-14 -0.82999199393E+03  0.94816104732E+03  0.45839138479E+03 0.  0.
      99925    2    3    3    0    0 -0.11224967434E+03  0.28177533601E+02 -0.49613585837E+03  0.57332589669E+03  0.26297876544E+03 0.  0.
         25    1    4    4    0    0 -0.51028335993E+02 -0.11438058022E+02 -0.30291902190E+03  0.33187672738E+03  0.12509000000E+03 0.  0.
         25    1    3    3    0    0  0.11224967434E+03 -0.28177533601E+02 -0.33385613557E+03  0.37483515063E+03  0.12509000000E+03 0.  0.
         25    1    4    4    0    0 -0.61221338344E+02  0.39615591623E+02 -0.19321683647E+03  0.24144916932E+03  0.12509000000E+03 0.  0.
<mgrwt>
<rscale>  2 0.45839138E+03</rscale>
<asrwt>0</asrwt>
<pdfrwt beam="1">  1       21 0.86889009E-02 0.45839138E+03</pdfrwt>
<pdfrwt beam="2">  1       21 0.13074655E+00 0.45839138E+03</pdfrwt>
<totfact> 0.40140192E+04</totfact>
</mgrwt>
</event>
<event>
 7    0  0.4712189E-002  0.4560145E+03  0.7546771E-02  0.1025943E+00
         21   -1    0    0  502  501  0.00000000000E+00  0.00000000000E+00  0.10267004529E+04  0.10267004529E+04  0.00000000000E+00 0.  1.
         21   -1    0    0  501  502 -0.00000000000E+00 -0.00000000000E+00 -0.50635324759E+02  0.50635324759E+02  0.00000000000E+00 0.  1.
      99926    2    1    2    0    0  0.00000000000E+00 -0.35527136788E-14  0.97606512817E+03  0.10773357777E+04  0.45601452111E+03 0.  0.
      99925    2    3    3    0    0 -0.28359921851E+02  0.31601511652E+02  0.86390024376E+03  0.90404004750E+03  0.26298637914E+03 0.  0.
         25    1    4    4    0    0 -0.33110331095E+02 -0.14352993638E+02  0.36092441482E+03  0.38368769040E+03  0.12509000000E+03 0.  0.
         25    1    3    3    0    0  0.28359921851E+02 -0.31601511652E+02  0.11216488441E+03  0.17329573019E+03  0.12509000000E+03 0.  0.
         25    1    4    4    0    0  0.47504092440E+01  0.45954505290E+02  0.50297582894E+03  0.52035235710E+03  0.12509000000E+03 0.  0.
<mgrwt>
<rscale>  2 0.45601452E+03</rscale>
<asrwt>0</asrwt>
<pdfrwt beam="1">  1       21 0.15098535E+00 0.45601452E+03</pdfrwt>
<pdfrwt beam="2">  1       21 0.74463719E-02 0.45601452E+03</pdfrwt>
<totfact> 0.36004206E+04</totfact>
</mgrwt>
</event>
<event>
 7    0  0.4712189E-002  0.4561306E+03  0.7546771E-02  0.1025909E+00
         21   -1    0    0  502  501  0.00000000000E+00  0.00000000000E+00  0.50932967882E+03  0.50932967882E+03  0.00000000000E+00 0. -1.
         21   -1    0    0  501  502 -0.00000000000E+00 -0.00000000000E+00 -0.10212202099E+03  0.10212202099E+03  0.00000000000E+00 0. -1.
      99926    2    1    2    0    0  0.00000000000E+00  0.00000000000E+00  0.40720765782E+03  0.61145169981E+03  0.45613057847E+03 0.  0.
      99925    2    3    3    0    0 -0.62061118506E+02  0.70047264574E+02  0.16832399973E+03  0.32602025111E+03  0.26305519106E+03 0.  0.
         25    1    4    4    0    0 -0.66831200569E+01  0.28718185215E+02  0.11811174709E+03  0.17454882170E+03  0.12509000000E+03 0.  0.
         25    1    3    3    0    0  0.62061118506E+02 -0.70047264574E+02  0.23888365809E+03  0.28543144870E+03  0.12509000000E+03 0.  0.
         25    1    4    4    0    0 -0.55377998449E+02  0.41329079359E+02  0.50212252643E+02  0.15147142941E+03  0.12509000000E+03 0.  0.
<mgrwt>
<rscale>  2 0.45613058E+03</rscale>
<asrwt>0</asrwt>
<pdfrwt beam="1">  1       21 0.74901422E-01 0.45613058E+03</pdfrwt>
<pdfrwt beam="2">  1       21 0.15017944E-01 0.45613058E+03</pdfrwt>
<totfact> 0.57463991E+04</totfact>
</mgrwt>
</event>
<event>
 7    0  0.4712189E-002  0.4549807E+03  0.7546771E-02  0.1026247E+00
         21   -1    0    0  502  501  0.00000000000E+00  0.00000000000E+00  0.85448641431E+02  0.85448641431E+02  0.00000000000E+00 0. -1.
         21   -1    0    0  501  502 -0.00000000000E+00 -0.00000000000E+00 -0.60564858045E+03  0.60564858045E+03  0.00000000000E+00 0. -1.
      99926    2    1    2    0    0  0.00000000000E+00  0.00000000000E+00 -0.52019993902E+03  0.69109722188E+03  0.45498065183E+03 0.  0.
      99925    2    3    3    0    0 -0.10018874655E+03 -0.48536497022E+02 -0.29613149051E+03  0.41136922150E+03  0.26293953725E+03 0.  0.
         25    1    4    4    0    0 -0.43199951422E+02 -0.14735364050E+02 -0.19994680265E+03  0.24022822221E+03  0.12509000000E+03 0.  0.
         25    1    3    3    0    0  0.10018874655E+03  0.48536497022E+02 -0.22406844852E+03  0.27972800038E+03  0.12509000000E+03 0.  0.
         25    1    4    4    0    0 -0.56988795128E+02 -0.33801132972E+02 -0.96184687859E+02  0.17114099929E+03  0.12509000000E+03 0.  0.
<mgrwt>
<rscale>  2 0.45498065E+03</rscale>
<asrwt>0</asrwt>
<pdfrwt beam="1">  1       21 0.12565977E-01 0.45498065E+03</pdfrwt>
<pdfrwt beam="2">  1       21 0.89065964E-01 0.45498065E+03</pdfrwt>
<totfact> 0.53397208E+04</totfact>
</mgrwt>
</event>
<event>
 7    0  0.4712189E-002  0.4556117E+03  0.7546771E-02  0.1026062E+00
         21   -1    0    0  502  501  0.00000000000E+00  0.00000000000E+00  0.12124167307E+03  0.12124167307E+03  0.00000000000E+00 0.  1.
         21   -1    0    0  501  502 -0.00000000000E+00 -0.00000000000E+00 -0.42803358143E+03  0.42803358143E+03  0.00000000000E+00 0.  1.
      99926    2    1    2    0    0  0.00000000000E+00  0.00000000000E+00 -0.30679190837E+03  0.54927525450E+03  0.45561170987E+03 0.  0.
      99925    2    3    3    0    0  0.28531227435E+02  0.95690670872E+02 -0.12757123061E+03  0.30898731293E+03  0.26311215335E+03 0.  0.
         25    1    4    4    0    0  0.17414964977E+02  0.57558310441E+01 -0.66876863210E+02  0.14302598900E+03  0.12509000000E+03 0.  0.
         25    1    3    3    0    0 -0.28531227435E+02 -0.95690670872E+02 -0.17922067775E+03  0.24028794157E+03  0.12509000000E+03 0.  0.
         25    1    4    4    0    0  0.11116262457E+02  0.89934839828E+02 -0.60694367404E+02  0.16596132393E+03  0.12509000000E+03 0.  0.
<mgrwt>
<rscale>  2 0.45561171E+03</rscale>
<asrwt>0</asrwt>
<pdfrwt beam="1">  1       21 0.17829658E-01 0.45561171E+03</pdfrwt>
<pdfrwt beam="2">  1       21 0.62946115E-01 0.45561171E+03</pdfrwt>
<totfact> 0.61615674E+04</totfact>
</mgrwt>
</event>
<event>
 7    0  0.4712189E-002  0.4575564E+03  0.7546771E-02  0.1025492E+00
         21   -1    0    0  502  501  0.00000000000E+00  0.00000000000E+00  0.92015108870E+02  0.92015108870E+02  0.00000000000E+00 0.  1.
         21   -1    0    0  501  502 -0.00000000000E+00 -0.00000000000E+00 -0.56881390476E+03  0.56881390476E+03  0.00000000000E+00 0.  1.
      99926    2    1    2    0    0  0.35527136788E-14  0.00000000000E+00 -0.47679879589E+03  0.66082901363E+03  0.45755643750E+03 0.  0.
      99925    2    3    3    0    0  0.23336259889E+02  0.79788625403E+02 -0.41528385609E+03  0.49852558887E+03  0.26297580852E+03 0.  0.
         25    1    4    4    0    0  0.40507983980E+02  0.20748451474E+02 -0.16451072743E+03  0.21161919229E+03  0.12509000000E+03 0.  0.
         25    1    4    4    0    0 -0.17171724091E+02  0.59040173929E+02 -0.25077312866E+03  0.28690639659E+03  0.12509000000E+03 0.  0.
         25    1    3    3    0    0 -0.23336259889E+02 -0.79788625403E+02 -0.61514939804E+02  0.16230342476E+03  0.12509000000E+03 0.  0.
<mgrwt>
<rscale>  2 0.45755644E+03</rscale>
<asrwt>0</asrwt>
<pdfrwt beam="1">  1       21 0.13531634E-01 0.45755644E+03</pdfrwt>
<pdfrwt beam="2">  1       21 0.83649100E-01 0.45755644E+03</pdfrwt>
<totfact> 0.53984865E+04</totfact>
</mgrwt>
</event>
<event>
 7    0  0.4712189E-002  0.4206865E+03  0.7546771E-02  0.1036843E+00
         21   -1    0    0  502  501  0.00000000000E+00  0.00000000000E+00  0.41036919592E+03  0.41036919592E+03  0.00000000000E+00 0. -1.
         21   -1    0    0  501  502 -0.00000000000E+00 -0.00000000000E+00 -0.10781578564E+03  0.10781578564E+03  0.00000000000E+00 0. -1.
      99926    2    1    2    0    0  0.71054273576E-14  0.00000000000E+00  0.30255341028E+03  0.51818498155E+03  0.42068647356E+03 0.  0.
      99925    2    3    3    0    0  0.53790663962E+02  0.53976056114E+02  0.18657808989E+03  0.33135716456E+03  0.26301965082E+03 0.  0.
         25    1    4    4    0    0  0.58216101170E+02  0.55312079944E+02  0.10291026357E+03  0.18079427831E+03  0.12509000000E+03 0.  0.
         25    1    4    4    0    0 -0.44254372078E+01 -0.13360238306E+01  0.83667826322E+02  0.15056288625E+03  0.12509000000E+03 0.  0.
         25    1    3    3    0    0 -0.53790663962E+02 -0.53976056114E+02  0.11597532039E+03  0.18682781699E+03  0.12509000000E+03 0.  0.
<mgrwt>
<rscale>  2 0.42068647E+03</rscale>
<asrwt>0</asrwt>
<pdfrwt beam="1">  1       21 0.60348411E-01 0.42068647E+03</pdfrwt>
<pdfrwt beam="2">  1       21 0.15855263E-01 0.42068647E+03</pdfrwt>
<totfact> 0.84821580E+04</totfact>
</mgrwt>
</event>
<event>
 7    0  0.4712189E-002  0.4529236E+03  0.7546771E-02  0.1026854E+00
         21   -1    0    0  502  501  0.00000000000E+00  0.00000000000E+00  0.91070939041E+02  0.91070939041E+02  0.00000000000E+00 0. -1.
         21   -1    0    0  501  502 -0.00000000000E+00 -0.00000000000E+00 -0.56313178106E+03  0.56313178106E+03  0.00000000000E+00 0. -1.
      99926    2    1    2    0    0  0.71054273576E-14 -0.14210854715E-13 -0.47206084201E+03  0.65420272010E+03  0.45292357017E+03 0.  0.
      99925    2    3    3    0    0  0.40746752020E+02 -0.10326624717E+03 -0.31030521171E+03  0.42152997214E+03  0.26281928657E+03 0.  0.
         25    1    4    4    0    0 -0.36464505216E+01 -0.20936991336E+02 -0.16548590033E+03  0.20852996311E+03  0.12509000000E+03 0.  0.
         25    1    4    4    0    0  0.44393202542E+02 -0.82329255837E+02 -0.14481931138E+03  0.21300000903E+03  0.12509000000E+03 0.  0.
         25    1    3    3    0    0 -0.40746752020E+02  0.10326624717E+03 -0.16175563031E+03  0.23267274796E+03  0.12509000000E+03 0.  0.
<mgrwt>
<rscale>  2 0.45292357E+03</rscale>
<asrwt>0</asrwt>
<pdfrwt beam="1">  1       21 0.13392785E-01 0.45292357E+03</pdfrwt>
<pdfrwt beam="2">  1       21 0.82813497E-01 0.45292357E+03</pdfrwt>
<totfact> 0.56377735E+04</totfact>
</mgrwt>
</event>
<event>
 7    0  0.4712189E-002  0.4495266E+03  0.7546771E-02  0.1027863E+00
         21   -1    0    0  502  501  0.00000000000E+00  0.00000000000E+00  0.11434188995E+04  0.11434188995E+04  0.00000000000E+00 0.  1.
         21   -1    0    0  501  502 -0.00000000000E+00 -0.00000000000E+00 -0.44182009662E+02  0.44182009662E+02  0.00000000000E+00 0.  1.
      99926    2    1    2    0    0  0.14210854715E-13  0.00000000000E+00  0.10992368898E+04  0.11876009091E+04  0.44952661708E+03 0.  0.
      99925    2    3    3    0    0 -0.10257662606E+03  0.69791519577E+01  0.78226438370E+03  0.83166587222E+03  0.26298266907E+03 0.  0.
         25    1    4    4    0    0 -0.66172565822E+02 -0.86396710486E+01  0.51147279475E+03  0.53075924886E+03  0.12509000000E+03 0.  0.
         25    1    4    4    0    0 -0.36404060236E+02  0.15618823006E+02  0.27079158895E+03  0.30090662335E+03  0.12509000000E+03 0.  0.
         25    1    3    3    0    0  0.10257662606E+03 -0.69791519577E+01  0.31697250612E+03  0.35593503692E+03  0.12509000000E+03 0.  0.
<mgrwt>
<rscale>  2 0.44952662E+03</rscale>
<asrwt>0</asrwt>
<pdfrwt beam="1">  1       21 0.16814982E+00 0.44952662E+03</pdfrwt>
<pdfrwt beam="2">  1       21 0.64973551E-02 0.44952662E+03</pdfrwt>
<totfact> 0.33977328E+04</totfact>
</mgrwt>
</event>
<event>
 7    0  0.4712189E-002  0.4524515E+03  0.7546771E-02  0.1026993E+00
         21   -1    0    0  502  501  0.00000000000E+00  0.00000000000E+00  0.14810717468E+03  0.14810717468E+03  0.00000000000E+00 0. -1.
         21   -1    0    0  501  502 -0.00000000000E+00 -0.00000000000E+00 -0.34554774243E+03  0.34554774243E+03  0.00000000000E+00 0. -1.
      99926    2    1    2    0    0  0.00000000000E+00 -0.35527136788E-14 -0.19744056776E+03  0.49365491711E+03  0.45245154369E+03 0.  0.
      99925    2    3    3    0    0 -0.41925141712E+01 -0.26633490236E+02 -0.73413816644E+01  0.26449966705E+03  0.26301950119E+03 0.  0.
         25    1    4    4    0    0 -0.21673425634E+02 -0.44718440416E+02  0.13269994644E+02  0.13525190257E+03  0.12509000000E+03 0.  0.
         25    1    3    3    0    0  0.41925141712E+01  0.26633490236E+02 -0.19009918609E+03  0.22915525006E+03  0.12509000000E+03 0.  0.
         25    1    4    4    0    0  0.17480911463E+02  0.18084950181E+02 -0.20611376309E+02  0.12924776448E+03  0.12509000000E+03 0.  0.
<mgrwt>
<rscale>  2 0.45245154E+03</rscale>
<asrwt>0</asrwt>
<pdfrwt beam="1">  1       21 0.21780467E-01 0.45245154E+03</pdfrwt>
<pdfrwt beam="2">  1       21 0.50815844E-01 0.45245154E+03</pdfrwt>
<totfact> 0.67065319E+04</totfact>
</mgrwt>
</event>
<event>
 7    0  0.4712189E-002  0.4548108E+03  0.7546771E-02  0.1026297E+00
         21   -1    0    0  502  501  0.00000000000E+00  0.00000000000E+00  0.29459346434E+03  0.29459346434E+03  0.00000000000E+00 0. -1.
         21   -1    0    0  501  502 -0.00000000000E+00 -0.00000000000E+00 -0.17554098060E+03  0.17554098060E+03  0.00000000000E+00 0. -1.
      99926    2    1    2    0    0  0.14210854715E-13  0.35527136788E-14  0.11905248374E+03  0.47013444494E+03  0.45481084247E+03 0.  0.
      99925    2    3    3    0    0  0.99930153078E+02  0.23455012284E+02  0.12373197829E+03  0.30825307212E+03  0.26300984949E+03 0.  0.
         25    1    3    3    0    0 -0.99930153078E+02 -0.23455012284E+02 -0.46794945471E+01  0.16188137282E+03  0.12509000000E+03 0.  0.
         25    1    4    4    0    0  0.15822181510E+02 -0.14416396529E+02  0.55864530696E+02  0.13865975554E+03  0.12509000000E+03 0.  0.
         25    1    4    4    0    0  0.84107971568E+02  0.37871408813E+02  0.67867447590E+02  0.16959331658E+03  0.12509000000E+03 0.  0.
<mgrwt>
<rscale>  2 0.45481084E+03</rscale>
<asrwt>0</asrwt>
<pdfrwt beam="1">  1       21 0.43322568E-01 0.45481084E+03</pdfrwt>
<pdfrwt beam="2">  1       21 0.25814850E-01 0.45481084E+03</pdfrwt>
<totfact> 0.67526987E+04</totfact>
</mgrwt>
</event>
<event>
 7    0  0.4712189E-002  0.4557416E+03  0.7546771E-02  0.1026024E+00
         21   -1    0    0  502  501  0.00000000000E+00  0.00000000000E+00  0.74841493999E+03  0.74841493999E+03  0.00000000000E+00 0. -1.
         21   -1    0    0  501  502 -0.00000000000E+00 -0.00000000000E+00 -0.69380112514E+02  0.69380112514E+02  0.00000000000E+00 0. -1.
      99926    2    1    2    0    0  0.00000000000E+00  0.00000000000E+00  0.67903482748E+03  0.81779505250E+03  0.45574164937E+03 0.  0.
      99925    2    3    3    0    0  0.11233620829E+03 -0.14870658446E+02  0.42619363914E+03  0.51379384396E+03  0.26363333604E+03 0.  0.
         25    1    3    3    0    0 -0.11233620829E+03  0.14870658446E+02  0.25284118834E+03  0.30400120854E+03  0.12509000000E+03 0.  0.
         25    1    4    4    0    0  0.48058226823E+02  0.91143957285E+01  0.14000023104E+03  0.19401092280E+03  0.12509000000E+03 0.  0.
         25    1    4    4    0    0  0.64277981469E+02 -0.23985054174E+02  0.28619340810E+03  0.31978292116E+03  0.12509000000E+03 0.  0.
<mgrwt>
<rscale>  2 0.45574165E+03</rscale>
<asrwt>0</asrwt>
<pdfrwt beam="1">  1       21 0.11006102E+00 0.45574165E+03</pdfrwt>
<pdfrwt beam="2">  1       21 0.10202958E-01 0.45574165E+03</pdfrwt>
<totfact> 0.46644065E+04</totfact>
</mgrwt>
</event>
<event>
 7    0  0.4712189E-002  0.4461224E+03  0.7546771E-02  0.1028885E+00
         21   -1    0    0  502  501  0.00000000000E+00  0.00000000000E+00  0.87455360902E+03  0.87455360902E+03  0.00000000000E+00 0.  1.
         21   -1    0    0  501  502 -0.00000000000E+00 -0.00000000000E+00 -0.56893361332E+02  0.56893361332E+02  0.00000000000E+00 0.  1.
      99926    2    1    2    0    0  0.00000000000E+00  0.00000000000E+00  0.81766024769E+03  0.93144697035E+03  0.44612237999E+03 0.  0.
      99925    2    3    3    0    0  0.60190103088E+02  0.66295567470E+02  0.40579418369E+03  0.49178901972E+03  0.26300108295E+03 0.  0.
         25    1    4    4    0    0  0.52349938441E+02  0.15446343321E+01  0.17665732386E+03  0.22270657854E+03  0.12509000000E+03 0.  0.
         25    1    4    4    0    0  0.78401646473E+01  0.64750933138E+02  0.22913685982E+03  0.26908244118E+03  0.12509000000E+03 0.  0.
         25    1    3    3    0    0 -0.60190103088E+02 -0.66295567470E+02  0.41186606400E+03  0.43965795063E+03  0.12509000000E+03 0.  0.
<mgrwt>
<rscale>  2 0.44612238E+03</rscale>
<asrwt>0</asrwt>
<pdfrwt beam="1">  1       21 0.12861082E+00 0.44612238E+03</pdfrwt>
<pdfrwt beam="2">  1       21 0.83666713E-02 0.44612238E+03</pdfrwt>
<totfact> 0.44941650E+04</totfact>
</mgrwt>
</event>
<event>
 7    0  0.4712189E-002  0.4581051E+03  0.7546771E-02  0.1025332E+00
         21   -1    0    0  502  501  0.00000000000E+00  0.00000000000E+00  0.12734246291E+04  0.12734246291E+04  0.00000000000E+00 0.  1.
         21   -1    0    0  501  502 -0.00000000000E+00 -0.00000000000E+00 -0.41199987452E+02  0.41199987452E+02  0.00000000000E+00 0.  1.
      99926    2    1    2    0    0  0.35527136788E-14  0.00000000000E+00  0.12322246416E+04  0.13146246165E+04  0.45810513526E+03 0.  0.
      99925    2    3    3    0    0 -0.21619233203E+02 -0.91108666869E+02  0.97091052950E+03  0.10101566318E+04  0.26264231203E+03 0.  0.
         25    1    4    4    0    0 -0.26392336784E+02 -0.76267348873E+02  0.44057255007E+03  0.46504294847E+03  0.12509000000E+03 0.  0.
         25    1    3    3    0    0  0.21619233203E+02  0.91108666869E+02  0.26131411210E+03  0.30446798470E+03  0.12509000000E+03 0.  0.
         25    1    4    4    0    0  0.47731035812E+01 -0.14841317996E+02  0.53033797943E+03  0.54511368334E+03  0.12509000000E+03 0.  0.
<mgrwt>
<rscale>  2 0.45810514E+03</rscale>
<asrwt>0</asrwt>
<pdfrwt beam="1">  1       21 0.18726830E+00 0.45810514E+03</pdfrwt>
<pdfrwt beam="2">  1       21 0.60588225E-02 0.45810514E+03</pdfrwt>
<totfact> 0.28010424E+04</totfact>
</mgrwt>
</event>
<event>
 7    0  0.4712189E-002  0.4536152E+03  0.7546771E-02  0.1026649E+00
         21   -1    0    0  502  501  0.00000000000E+00  0.00000000000E+00  0.16626998100E+03  0.16626998100E+03  0.00000000000E+00 0. -1.
         21   -1    0    0  501  502 -0.00000000000E+00 -0.00000000000E+00 -0.30938646747E+03  0.30938646747E+03  0.00000000000E+00 0. -1.
      99926    2    1    2    0    0 -0.71054273576E-14  0.00000000000E+00 -0.14311648647E+03  0.47565644848E+03  0.45361517642E+03 0.  0.
      99925    2    3    3    0    0  0.55542723931E+02  0.52856222326E+02 -0.17552149531E+03  0.32540210705E+03  0.26305885565E+03 0.  0.
         25    1    4    4    0    0  0.72440673527E+01  0.38919182030E+02 -0.47644405953E+02  0.13958752366E+03  0.12509000000E+03 0.  0.
         25    1    4    4    0    0  0.48298656579E+02  0.13937040295E+02 -0.12787708935E+03  0.18581458339E+03  0.12509000000E+03 0.  0.
         25    1    3    3    0    0 -0.55542723931E+02 -0.52856222326E+02  0.32405008838E+02  0.15025434143E+03  0.12509000000E+03 0.  0.
<mgrwt>
<rscale>  2 0.45361518E+03</rscale>
<asrwt>0</asrwt>
<pdfrwt beam="1">  1       21 0.24451468E-01 0.45361518E+03</pdfrwt>
<pdfrwt beam="2">  1       21 0.45498009E-01 0.45361518E+03</pdfrwt>
<totfact> 0.67759311E+04</totfact>
</mgrwt>
</event>
<event>
 7    0  0.4712189E-002  0.4544726E+03  0.7546771E-02  0.1026397E+00
         21   -1    0    0  502  501  0.00000000000E+00  0.00000000000E+00  0.30537150295E+04  0.30537150295E+04  0.00000000000E+00 0. -1.
         21   -1    0    0  501  502 -0.00000000000E+00 -0.00000000000E+00 -0.16909348873E+02  0.16909348873E+02  0.00000000000E+00 0. -1.
      99926    2    1    2    0    0  0.71054273576E-14  0.00000000000E+00  0.30368056806E+04  0.30706243784E+04  0.45447258572E+03 0.  0.
      99925    2    3    3    0    0 -0.36407678223E+02 -0.66262700389E+02  0.13500938273E+04  0.13775914051E+04  0.26322703559E+03 0.  0.
         25    1    4    4    0    0 -0.59377726701E+02 -0.37060238648E+02  0.69529581199E+03  0.70991756562E+03  0.12509000000E+03 0.  0.
         25    1    4    4    0    0  0.22970048477E+02 -0.29202461741E+02  0.65479801536E+03  0.66767383947E+03  0.12509000000E+03 0.  0.
         25    1    3    3    0    0  0.36407678223E+02  0.66262700389E+02  0.16867118533E+04  0.16930329733E+04  0.12509000000E+03 0.  0.
<mgrwt>
<rscale>  2 0.45447259E+03</rscale>
<asrwt>0</asrwt>
<pdfrwt beam="1">  1       21 0.44907536E+00 0.45447259E+03</pdfrwt>
<pdfrwt beam="2">  1       21 0.24866711E-02 0.45447259E+03</pdfrwt>
<totfact> 0.28850264E+03</totfact>
</mgrwt>
</event>
<event>
 7    0  0.4712189E-002  0.4509911E+03  0.7546771E-02  0.1027427E+00
         21   -1    0    0  502  501  0.00000000000E+00  0.00000000000E+00  0.98967708053E+02  0.98967708053E+02  0.00000000000E+00 0.  1.
         21   -1    0    0  501  502 -0.00000000000E+00 -0.00000000000E+00 -0.51378622451E+03  0.51378622451E+03  0.00000000000E+00 0.  1.
      99926    2    1    2    0    0  0.00000000000E+00  0.00000000000E+00 -0.41481851646E+03  0.61275393256E+03  0.45099110887E+03 0.  0.
      99925    2    3    3    0    0  0.28513109100E+02  0.90870697183E+02 -0.33462644104E+03  0.43626382503E+03  0.26321244080E+03 0.  0.
         25    1    4    4    0    0  0.27335248702E+02  0.67225561230E+02 -0.12572971075E+03  0.19162974761E+03  0.12509000000E+03 0.  0.
         25    1    4    4    0    0  0.11778603973E+01  0.23645135953E+02 -0.20889673029E+03  0.24463407742E+03  0.12509000000E+03 0.  0.
         25    1    3    3    0    0 -0.28513109100E+02 -0.90870697183E+02 -0.80192075421E+02  0.17649010753E+03  0.12509000000E+03 0.  0.
<mgrwt>
<rscale>  2 0.45099111E+03</rscale>
<asrwt>0</asrwt>
<pdfrwt beam="1">  1       21 0.14554075E-01 0.45099111E+03</pdfrwt>
<pdfrwt beam="2">  1       21 0.75556796E-01 0.45099111E+03</pdfrwt>
<totfact> 0.59770135E+04</totfact>
</mgrwt>
</event>
<event>
 7    0  0.4712189E-002  0.4513929E+03  0.7546771E-02  0.1027307E+00
         21   -1    0    0  502  501  0.00000000000E+00  0.00000000000E+00  0.19922409330E+03  0.19922409330E+03  0.00000000000E+00 0. -1.
         21   -1    0    0  501  502 -0.00000000000E+00 -0.00000000000E+00 -0.25568636304E+03  0.25568636304E+03  0.00000000000E+00 0. -1.
      99926    2    1    2    0    0  0.00000000000E+00  0.00000000000E+00 -0.56462269738E+02  0.45491045633E+03  0.45139288361E+03 0.  0.
      99925    2    3    3    0    0  0.59638406986E+02  0.49415887637E+02  0.42872251998E+02  0.27738996499E+03  0.26288494279E+03 0.  0.
         25    1    4    4    0    0  0.30319065444E+02 -0.55545998359E+01  0.48173165763E+02  0.13754367055E+03  0.12509000000E+03 0.  0.
         25    1    3    3    0    0 -0.59638406986E+02 -0.49415887637E+02 -0.99334521737E+02  0.17752049135E+03  0.12509000000E+03 0.  0.
         25    1    4    4    0    0  0.29319341542E+02  0.54970487473E+02 -0.53009137650E+01  0.13984629444E+03  0.12509000000E+03 0.  0.
<mgrwt>
<rscale>  2 0.45139288E+03</rscale>
<asrwt>0</asrwt>
<pdfrwt beam="1">  1       21 0.29297661E-01 0.45139288E+03</pdfrwt>
<pdfrwt beam="2">  1       21 0.37600936E-01 0.45139288E+03</pdfrwt>
<totfact> 0.70561094E+04</totfact>
</mgrwt>
</event>
<event>
 7    0  0.4712189E-002  0.4645111E+03  0.7546771E-02  0.1023481E+00
         21   -1    0    0  502  501  0.00000000000E+00  0.00000000000E+00  0.64175068772E+02  0.64175068772E+02  0.00000000000E+00 0. -1.
         21   -1    0    0  501  502 -0.00000000000E+00 -0.00000000000E+00 -0.84055440947E+03  0.84055440947E+03  0.00000000000E+00 0. -1.
      99926    2    1    2    0    0  0.35527136788E-14 -0.14210854715E-13 -0.77637934069E+03  0.90472947824E+03  0.46451108505E+03 0.  0.
      99925    2    3    3    0    0  0.31718540549E+02 -0.76463287418E+02 -0.65867708626E+03  0.71406215294E+03  0.26301436114E+03 0.  0.
         25    1    4    4    0    0  0.51408658440E+01 -0.57607757117E+01 -0.24239778034E+03  0.27288057288E+03  0.12509000000E+03 0.  0.
         25    1    4    4    0    0  0.26577674705E+02 -0.70702511706E+02 -0.41627930591E+03  0.44118158006E+03  0.12509000000E+03 0.  0.
         25    1    3    3    0    0 -0.31718540549E+02  0.76463287418E+02 -0.11770225444E+03  0.19066732530E+03  0.12509000000E+03 0.  0.
<mgrwt>
<rscale>  2 0.46451109E+03</rscale>
<asrwt>0</asrwt>
<pdfrwt beam="1">  1       21 0.94375107E-02 0.46451109E+03</pdfrwt>
<pdfrwt beam="2">  1       21 0.12361094E+00 0.46451109E+03</pdfrwt>
<totfact> 0.39969446E+04</totfact>
</mgrwt>
</event>
<event>
 7    0  0.4712189E-002  0.4488268E+03  0.7546771E-02  0.1028072E+00
         21   -1    0    0  502  501  0.00000000000E+00  0.00000000000E+00  0.24923161408E+04  0.24923161408E+04  0.00000000000E+00 0. -1.
         21   -1    0    0  501  502 -0.00000000000E+00 -0.00000000000E+00 -0.20206657935E+02  0.20206657935E+02  0.00000000000E+00 0. -1.
      99926    2    1    2    0    0 -0.35527136788E-14  0.00000000000E+00  0.24721094829E+04  0.25125227987E+04  0.44882682505E+03 0.  0.
      99925    2    3    3    0    0 -0.26594208955E+02  0.71884353613E+02  0.19845314291E+04  0.20033524158E+04  0.26302337646E+03 0.  0.
         25    1    4    4    0    0  0.21044393102E+02  0.45833320930E+02  0.84603359302E+03  0.85671693599E+03  0.12509000000E+03 0.  0.
         25    1    4    4    0    0 -0.47638602057E+02  0.26051032683E+02  0.11384978360E+04  0.11466354798E+04  0.12509000000E+03 0.  0.
         25    1    3    3    0    0  0.26594208955E+02 -0.71884353613E+02  0.48757805380E+03  0.50917038296E+03  0.12509000000E+03 0.  0.
<mgrwt>
<rscale>  2 0.44882683E+03</rscale>
<asrwt>0</asrwt>
<pdfrwt beam="1">  1       21 0.36651687E+00 0.44882683E+03</pdfrwt>
<pdfrwt beam="2">  1       21 0.29715691E-02 0.44882683E+03</pdfrwt>
<totfact> 0.73510370E+03</totfact>
</mgrwt>
</event>
<event>
 7    0  0.4712189E-002  0.4502904E+03  0.7546771E-02  0.1027635E+00
         21   -1    0    0  502  501  0.00000000000E+00  0.00000000000E+00  0.63991737679E+03  0.63991737679E+03  0.00000000000E+00 0.  1.
         21   -1    0    0  501  502 -0.00000000000E+00 -0.00000000000E+00 -0.79213917630E+02  0.79213917630E+02  0.00000000000E+00 0.  1.
      99926    2    1    2    0    0  0.00000000000E+00  0.00000000000E+00  0.56070345916E+03  0.71913129442E+03  0.45029040574E+03 0.  0.
      99925    2    3    3    0    0 -0.29424394741E+02  0.10159516043E+03  0.39439310492E+03  0.48569176552E+03  0.26298896983E+03 0.  0.
         25    1    3    3    0    0  0.29424394741E+02 -0.10159516043E+03  0.16631035424E+03  0.23343952891E+03  0.12509000000E+03 0.  0.
         25    1    4    4    0    0 -0.22492122492E+02  0.61586944547E+02  0.26979994857E+03  0.30452974840E+03  0.12509000000E+03 0.  0.
         25    1    4    4    0    0 -0.69322722486E+01  0.40008215879E+02  0.12459315636E+03  0.18116201712E+03  0.12509000000E+03 0.  0.
<mgrwt>
<rscale>  2 0.45029041E+03</rscale>
<asrwt>0</asrwt>
<pdfrwt beam="1">  1       21 0.94105494E-01 0.45029041E+03</pdfrwt>
<pdfrwt beam="2">  1       21 0.11649106E-01 0.45029041E+03</pdfrwt>
<totfact> 0.53843615E+04</totfact>
</mgrwt>
</event>
<event>
 7    0  0.4712189E-002  0.4484826E+03  0.7546771E-02  0.1028176E+00
         21   -1    0    0  502  501  0.00000000000E+00  0.00000000000E+00  0.14162952665E+03  0.14162952665E+03  0.00000000000E+00 0. -1.
         21   -1    0    0  501  502 -0.00000000000E+00 -0.00000000000E+00 -0.35504003685E+03  0.35504003685E+03  0.00000000000E+00 0. -1.
      99926    2    1    2    0    0 -0.35527136788E-14  0.00000000000E+00 -0.21341051021E+03  0.49666956350E+03  0.44848256315E+03 0.  0.
      99925    2    3    3    0    0  0.34009135489E+01  0.64985894350E+02 -0.40663197270E+02  0.27368105505E+03  0.26270342899E+03 0.  0.
         25    1    4    4    0    0  0.33605879868E+02  0.50533258493E+02 -0.39786015238E+01  0.13909098729E+03  0.12509000000E+03 0.  0.
         25    1    4    4    0    0 -0.30204966319E+02  0.14452635857E+02 -0.36684595746E+02  0.13459006776E+03  0.12509000000E+03 0.  0.
         25    1    3    3    0    0 -0.34009135489E+01 -0.64985894350E+02 -0.17274731294E+03  0.22298850846E+03  0.12509000000E+03 0.  0.
<mgrwt>
<rscale>  2 0.44848256E+03</rscale>
<asrwt>0</asrwt>
<pdfrwt beam="1">  1       21 0.20827872E-01 0.44848256E+03</pdfrwt>
<pdfrwt beam="2">  1       21 0.52211770E-01 0.44848256E+03</pdfrwt>
<totfact> 0.69006854E+04</totfact>
</mgrwt>
</event>
<event>
 7    0  0.4712189E-002  0.4575731E+03  0.7546771E-02  0.1025487E+00
         21   -1    0    0  502  501  0.00000000000E+00  0.00000000000E+00  0.33465291867E+03  0.33465291867E+03  0.00000000000E+00 0.  1.
         21   -1    0    0  501  502 -0.00000000000E+00 -0.00000000000E+00 -0.15641063704E+03  0.15641063704E+03  0.00000000000E+00 0.  1.
      99926    2    1    2    0    0 -0.71054273576E-14  0.00000000000E+00  0.17824228162E+03  0.49106355571E+03  0.45757305951E+03 0.  0.
      99925    2    3    3    0    0 -0.52869042920E+02 -0.90547084633E+02  0.59894438598E+02  0.28945098099E+03  0.26306010033E+03 0.  0.
         25    1    4    4    0    0 -0.28976623234E+02 -0.50184031529E+02 -0.10839236846E+02  0.13828622082E+03  0.12509000000E+03 0.  0.
         25    1    3    3    0    0  0.52869042920E+02  0.90547084633E+02  0.11834784303E+03  0.20161257472E+03  0.12509000000E+03 0.  0.
         25    1    4    4    0    0 -0.23892419687E+02 -0.40363053104E+02  0.70733675444E+02  0.15116476017E+03  0.12509000000E+03 0.  0.
<mgrwt>
<rscale>  2 0.45757306E+03</rscale>
<asrwt>0</asrwt>
<pdfrwt beam="1">  1       21 0.49213664E-01 0.45757306E+03</pdfrwt>
<pdfrwt beam="2">  1       21 0.23001564E-01 0.45757306E+03</pdfrwt>
<totfact> 0.64574000E+04</totfact>
</mgrwt>
</event>
<event>
 7    0  0.4712189E-002  0.4486681E+03  0.7546771E-02  0.1028120E+00
         21   -1    0    0  502  501  0.00000000000E+00  0.00000000000E+00  0.28155924984E+03  0.28155924984E+03  0.00000000000E+00 0.  1.
         21   -1    0    0  501  502 -0.00000000000E+00 -0.00000000000E+00 -0.17873955747E+03  0.17873955747E+03  0.00000000000E+00 0.  1.
      99926    2    1    2    0    0  0.00000000000E+00  0.00000000000E+00  0.10281969237E+03  0.46029880731E+03  0.44866814336E+03 0.  0.
      99925    2    3    3    0    0  0.73409964428E+02 -0.76117786369E+02  0.47455579386E+02  0.28739526950E+03  0.26298492093E+03 0.  0.
         25    1    4    4    0    0  0.76917830581E+02 -0.32083597510E+02  0.16866545128E+02  0.15125375478E+03  0.12509000000E+03 0.  0.
         25    1    4    4    0    0 -0.35078661536E+01 -0.44034188858E+02  0.30589034258E+02  0.13614151472E+03  0.12509000000E+03 0.  0.
         25    1    3    3    0    0 -0.73409964428E+02  0.76117786369E+02  0.55364112986E+02  0.17290353781E+03  0.12509000000E+03 0.  0.
<mgrwt>
<rscale>  2 0.44866814E+03</rscale>
<asrwt>0</asrwt>
<pdfrwt beam="1">  1       21 0.41405772E-01 0.44866814E+03</pdfrwt>
<pdfrwt beam="2">  1       21 0.26285229E-01 0.44866814E+03</pdfrwt>
<totfact> 0.71698300E+04</totfact>
</mgrwt>
</event>
<event>
 6    0  0.4712189E-002  0.4556837E+03  0.7546771E-02  0.1026041E+00
         21   -1    0    0  502  501  0.00000000000E+00  0.00000000000E+00  0.13075357937E+03  0.13075357937E+03  0.00000000000E+00 0.  1.
         21   -1    0    0  501  502 -0.00000000000E+00 -0.00000000000E+00 -0.39702095265E+03  0.39702095265E+03  0.00000000000E+00 0.  1.
      99926    2    1    2    0    0  0.17763568394E-14  0.35527136788E-14 -0.26626737328E+03  0.52777453202E+03  0.45568370891E+03 0.  0.
         25    1    3    3    0    0  0.38433143726E+02  0.26043340624E+02  0.72491221321E+01  0.13362417446E+03  0.12509000000E+03 0.  0.
         25    1    3    3    0    0 -0.11109573820E+02 -0.22265963971E+02 -0.22211194109E+03  0.25612578601E+03  0.12509000000E+03 0.  0.
         25    1    3    3    0    0 -0.27323569907E+02 -0.37773766536E+01 -0.51404554322E+02  0.13802457155E+03  0.12509000000E+03 0.  0.
<mgrwt>
<rscale>  2 0.45568371E+03</rscale>
<asrwt>0</asrwt>
<pdfrwt beam="1">  1       21 0.19228468E-01 0.45568371E+03</pdfrwt>
<pdfrwt beam="2">  1       21 0.58385434E-01 0.45568371E+03</pdfrwt>
<totfact> 0.63015236E+04</totfact>
</mgrwt>
</event>
<event>
 7    0  0.4712189E-002  0.4545574E+03  0.7546771E-02  0.1026372E+00
         21   -1    0    0  502  501  0.00000000000E+00  0.00000000000E+00  0.30354830484E+04  0.30354830484E+04  0.00000000000E+00 0. -1.
         21   -1    0    0  501  502 -0.00000000000E+00 -0.00000000000E+00 -0.17017263826E+02  0.17017263826E+02  0.00000000000E+00 0. -1.
      99926    2    1    2    0    0 -0.22204460493E-15 -0.35527136788E-14  0.30184657846E+04  0.30525003122E+04  0.45455743696E+03 0.  0.
      99925    2    3    3    0    0 -0.19562148398E+01  0.19958398276E+02  0.11573043583E+04  0.11870321332E+04  0.26322944920E+03 0.  0.
         25    1    4    4    0    0  0.31969018085E+01  0.36001499629E+02  0.72819592787E+03  0.73974532484E+03  0.12509000000E+03 0.  0.
         25    1    4    4    0    0 -0.51531166483E+01 -0.16043101354E+02  0.42910843046E+03  0.44728680833E+03  0.12509000000E+03 0.  0.
         25    1    3    3    0    0  0.19562148398E+01 -0.19958398276E+02  0.18611614263E+04  0.18654681791E+04  0.12509000000E+03 0.  0.
<mgrwt>
<rscale>  2 0.45455744E+03</rscale>
<asrwt>0</asrwt>
<pdfrwt beam="1">  1       21 0.44639419E+00 0.45455744E+03</pdfrwt>
<pdfrwt beam="2">  1       21 0.25025409E-02 0.45455744E+03</pdfrwt>
<totfact> 0.29758961E+03</totfact>
</mgrwt>
</event>
<event>
 7    0  0.4712189E-002  0.4520166E+03  0.7546771E-02  0.1027122E+00
         21   -1    0    0  502  501  0.00000000000E+00  0.00000000000E+00  0.47537936333E+03  0.47537936333E+03  0.00000000000E+00 0. -1.
         21   -1    0    0  501  502 -0.00000000000E+00 -0.00000000000E+00 -0.10745049939E+03  0.10745049939E+03  0.00000000000E+00 0. -1.
      99926    2    1    2    0    0 -0.14210854715E-13  0.00000000000E+00  0.36792886394E+03  0.58282986273E+03  0.45201659258E+03 0.  0.
      99925    2    3    3    0    0  0.68528790874E+02 -0.80498336862E+02  0.19071059231E+03  0.34152092938E+03  0.26284945837E+03 0.  0.
         25    1    4    4    0    0  0.58780255385E+02 -0.29899906043E+02  0.13404506953E+03  0.19484535296E+03  0.12509000000E+03 0.  0.
         25    1    4    4    0    0  0.97485354884E+01 -0.50598430818E+02  0.56665522784E+02  0.14667557642E+03  0.12509000000E+03 0.  0.
         25    1    3    3    0    0 -0.68528790874E+02  0.80498336862E+02  0.17721827163E+03  0.24130893335E+03  0.12509000000E+03 0.  0.
<mgrwt>
<rscale>  2 0.45201659E+03</rscale>
<asrwt>0</asrwt>
<pdfrwt beam="1">  1       21 0.69908729E-01 0.45201659E+03</pdfrwt>
<pdfrwt beam="2">  1       21 0.15801544E-01 0.45201659E+03</pdfrwt>
<totfact> 0.61177874E+04</totfact>
</mgrwt>
</event>
<event>
 7    0  0.4712189E-002  0.4341445E+03  0.7546771E-02  0.1032559E+00
         21   -1    0    0  502  501  0.00000000000E+00  0.00000000000E+00  0.58957299172E+03  0.58957299172E+03  0.00000000000E+00 0. -1.
         21   -1    0    0  501  502 -0.00000000000E+00 -0.00000000000E+00 -0.79922854112E+02  0.79922854112E+02  0.00000000000E+00 0. -1.
      99926    2    1    2    0    0  0.00000000000E+00  0.17763568394E-14  0.50965013761E+03  0.66949584584E+03  0.43414447460E+03 0.  0.
      99925    2    3    3    0    0 -0.88437900613E+02 -0.89767843397E+01  0.28949155520E+03  0.40113199874E+03  0.26305831094E+03 0.  0.
         25    1    4    4    0    0 -0.51108630060E+02 -0.41225638899E+02  0.17186636944E+03  0.22247966741E+03  0.12509000000E+03 0.  0.
         25    1    4    4    0    0 -0.37329270553E+02  0.32248854560E+02  0.11762518577E+03  0.17865233132E+03  0.12509000000E+03 0.  0.
         25    1    3    3    0    0  0.88437900613E+02  0.89767843397E+01  0.22015858241E+03  0.26836384710E+03  0.12509000000E+03 0.  0.
<mgrwt>
<rscale>  2 0.43414447E+03</rscale>
<asrwt>0</asrwt>
<pdfrwt beam="1">  1       21 0.86701908E-01 0.43414447E+03</pdfrwt>
<pdfrwt beam="2">  1       21 0.11753361E-01 0.43414447E+03</pdfrwt>
<totfact> 0.64560790E+04</totfact>
</mgrwt>
</event>
<event>
 7    0  0.4712189E-002  0.4561693E+03  0.7546771E-02  0.1025898E+00
         21   -1    0    0  502  501  0.00000000000E+00  0.00000000000E+00  0.55571452378E+03  0.55571452378E+03  0.00000000000E+00 0.  1.
         21   -1    0    0  501  502 -0.00000000000E+00 -0.00000000000E+00 -0.93613889649E+02  0.93613889649E+02  0.00000000000E+00 0.  1.
      99926    2    1    2    0    0  0.00000000000E+00  0.00000000000E+00  0.46210063413E+03  0.64932841342E+03  0.45616925852E+03 0.  0.
      99925    2    3    3    0    0 -0.39590304745E+02 -0.97991978098E+02  0.35278816158E+03  0.45243619734E+03  0.26281020853E+03 0.  0.
         25    1    4    4    0    0 -0.18558387525E+02 -0.26712802265E+02  0.22153374364E+03  0.25648137403E+03  0.12509000000E+03 0.  0.
         25    1    4    4    0    0 -0.21031917221E+02 -0.71279175833E+02  0.13125441794E+03  0.19595482331E+03  0.12509000000E+03 0.  0.
         25    1    3    3    0    0  0.39590304745E+02  0.97991978098E+02  0.10931247255E+03  0.19689221609E+03  0.12509000000E+03 0.  0.
<mgrwt>
<rscale>  2 0.45616926E+03</rscale>
<asrwt>0</asrwt>
<pdfrwt beam="1">  1       21 0.81722723E-01 0.45616926E+03</pdfrwt>
<pdfrwt beam="2">  1       21 0.13766749E-01 0.45616926E+03</pdfrwt>
<totfact> 0.55228970E+04</totfact>
</mgrwt>
</event>
<event>
 7    0  0.4712189E-002  0.4625858E+03  0.7546771E-02  0.1024034E+00
         21   -1    0    0  502  501  0.00000000000E+00  0.00000000000E+00  0.76022761734E+03  0.76022761734E+03  0.00000000000E+00 0.  1.
         21   -1    0    0  501  502 -0.00000000000E+00 -0.00000000000E+00 -0.70368920033E+02  0.70368920033E+02  0.00000000000E+00 0.  1.
      99926    2    1    2    0    0 -0.14210854715E-13  0.00000000000E+00  0.68985869731E+03  0.83059653737E+03  0.46258576032E+03 0.  0.
      99925    2    3    3    0    0 -0.92780369382E+02  0.74559312109E+02  0.40193920631E+03  0.49486981910E+03  0.26300898145E+03 0.  0.
         25    1    3    3    0    0  0.92780369382E+02 -0.74559312109E+02  0.28791949100E+03  0.33572671827E+03  0.12509000000E+03 0.  0.
         25    1    4    4    0    0 -0.46317743606E+02  0.13173330325E+02  0.13531573878E+03  0.19046450395E+03  0.12509000000E+03 0.  0.
         25    1    4    4    0    0 -0.46462625776E+02  0.61385981784E+02  0.26662346753E+03  0.30440531515E+03  0.12509000000E+03 0.  0.
<mgrwt>
<rscale>  2 0.46258576E+03</rscale>
<asrwt>0</asrwt>
<pdfrwt beam="1">  1       21 0.11179817E+00 0.46258576E+03</pdfrwt>
<pdfrwt beam="2">  1       21 0.10348371E-01 0.46258576E+03</pdfrwt>
<totfact> 0.43662885E+04</totfact>
</mgrwt>
</event>
<event>
 7    0  0.4712189E-002  0.4617018E+03  0.7546771E-02  0.1024289E+00
         21   -1    0    0  502  501  0.00000000000E+00  0.00000000000E+00  0.84846949841E+02  0.84846949841E+02  0.00000000000E+00 0.  1.
         21   -1    0    0  501  502 -0.00000000000E+00 -0.00000000000E+00 -0.62809739563E+03  0.62809739563E+03  0.00000000000E+00 0.  1.
      99926    2    1    2    0    0  0.00000000000E+00  0.00000000000E+00 -0.54325044579E+03  0.71294434547E+03  0.46170184415E+03 0.  0.
      99925    2    3    3    0    0 -0.11372761039E+03  0.32825511660E+02 -0.34402306785E+03  0.44959943894E+03  0.26415204087E+03 0.  0.
         25    1    4    4    0    0 -0.85069296165E+02  0.17451578705E+02 -0.23742758210E+03  0.28206507687E+03  0.12509000000E+03 0.  0.
         25    1    4    4    0    0 -0.28658314221E+02  0.15373932955E+02 -0.10659548575E+03  0.16753436206E+03  0.12509000000E+03 0.  0.
         25    1    3    3    0    0  0.11372761039E+03 -0.32825511660E+02 -0.19922737793E+03  0.26334490654E+03  0.12509000000E+03 0.  0.
<mgrwt>
<rscale>  2 0.46170184E+03</rscale>
<asrwt>0</asrwt>
<pdfrwt beam="1">  1       21 0.12477492E-01 0.46170184E+03</pdfrwt>
<pdfrwt beam="2">  1       21 0.92367265E-01 0.46170184E+03</pdfrwt>
<totfact> 0.49541613E+04</totfact>
</mgrwt>
</event>
<event>
 7    0  0.4712189E-002  0.4520998E+03  0.7546771E-02  0.1027098E+00
         21   -1    0    0  502  501  0.00000000000E+00  0.00000000000E+00  0.63463840994E+02  0.63463840994E+02  0.00000000000E+00 0.  1.
         21   -1    0    0  501  502 -0.00000000000E+00 -0.00000000000E+00 -0.80516001203E+03  0.80516001203E+03  0.00000000000E+00 0.  1.
      99926    2    1    2    0    0  0.00000000000E+00  0.35527136788E-14 -0.74169617103E+03  0.86862385302E+03  0.45209975438E+03 0.  0.
      99925    2    3    3    0    0  0.94572813211E+02 -0.22558612744E+02 -0.36639134567E+03  0.46124917530E+03  0.26278370483E+03 0.  0.
         25    1    4    4    0    0  0.36436313175E+02  0.26172819748E+02 -0.19397750284E+03  0.23513273086E+03  0.12509000000E+03 0.  0.
         25    1    3    3    0    0 -0.94572813211E+02  0.22558612744E+02 -0.37530482536E+03  0.40737467772E+03  0.12509000000E+03 0.  0.
         25    1    4    4    0    0  0.58136500036E+02 -0.48731432492E+02 -0.17241384283E+03  0.22611644444E+03  0.12509000000E+03 0.  0.
<mgrwt>
<rscale>  2 0.45209975E+03</rscale>
<asrwt>0</asrwt>
<pdfrwt beam="1">  1       21 0.93329185E-02 0.45209975E+03</pdfrwt>
<pdfrwt beam="2">  1       21 0.11840588E+00 0.45209975E+03</pdfrwt>
<totfact> 0.45646322E+04</totfact>
</mgrwt>
</event>
<event>
 7    0  0.4712189E-002  0.4466903E+03  0.7546771E-02  0.1028714E+00
         21   -1    0    0  502  501  0.00000000000E+00  0.00000000000E+00  0.11358380158E+03  0.11358380158E+03  0.00000000000E+00 0. -1.
         21   -1    0    0  501  502 -0.00000000000E+00 -0.00000000000E+00 -0.43917398335E+03  0.43917398335E+03  0.00000000000E+00 0. -1.
      99926    2    1    2    0    0 -0.17763568394E-14  0.00000000000E+00 -0.32559018178E+03  0.55275778493E+03  0.44669027562E+03 0.  0.
      99925    2    3    3    0    0 -0.93170221602E+01  0.73760644530E+02 -0.11421727973E+03  0.29613851169E+03  0.26291632040E+03 0.  0.
         25    1    4    4    0    0 -0.24044223744E+02  0.13946180329E+02 -0.84726689788E+02  0.15361881624E+03  0.12509000000E+03 0.  0.
         25    1    4    4    0    0  0.14727201584E+02  0.59814464201E+02 -0.29490589942E+02  0.14251969544E+03  0.12509000000E+03 0.  0.
         25    1    3    3    0    0  0.93170221602E+01 -0.73760644530E+02 -0.21137290205E+03  0.25661927325E+03  0.12509000000E+03 0.  0.
<mgrwt>
<rscale>  2 0.44669028E+03</rscale>
<asrwt>0</asrwt>
<pdfrwt beam="1">  1       21 0.16703500E-01 0.44669028E+03</pdfrwt>
<pdfrwt beam="2">  1       21 0.64584411E-01 0.44669028E+03</pdfrwt>
<totfact> 0.65912014E+04</totfact>
</mgrwt>
</event>
<event>
 7    0  0.4712189E-002  0.4449941E+03  0.7546771E-02  0.1029225E+00
         21   -1    0    0  502  501  0.00000000000E+00  0.00000000000E+00  0.75868069395E+03  0.75868069395E+03  0.00000000000E+00 0.  1.
         21   -1    0    0  501  502 -0.00000000000E+00 -0.00000000000E+00 -0.65251343300E+02  0.65251343300E+02  0.00000000000E+00 0.  1.
      99926    2    1    2    0    0  0.35527136788E-14 -0.71054273576E-14  0.69342935065E+03  0.82393203725E+03  0.44499408722E+03 0.  0.
      99925    2    3    3    0    0  0.17997117760E+02 -0.57447572099E+02  0.28455016042E+03  0.39212904966E+03  0.26300623188E+03 0.  0.
         25    1    4    4    0    0  0.49280796885E+02 -0.32686728835E+02  0.15244355912E+03  0.20587269367E+03  0.12509000000E+03 0.  0.
         25    1    4    4    0    0 -0.31283679126E+02 -0.24760843264E+02  0.13210660131E+03  0.18625635599E+03  0.12509000000E+03 0.  0.
         25    1    3    3    0    0 -0.17997117760E+02  0.57447572099E+02  0.40887919022E+03  0.43180298758E+03  0.12509000000E+03 0.  0.
<mgrwt>
<rscale>  2 0.44499409E+03</rscale>
<asrwt>0</asrwt>
<pdfrwt beam="1">  1       21 0.11157069E+00 0.44499409E+03</pdfrwt>
<pdfrwt beam="2">  1       21 0.95957862E-02 0.44499409E+03</pdfrwt>
<totfact> 0.50476731E+04</totfact>
</mgrwt>
</event>
<event>
 7    0  0.4712189E-002  0.4512407E+03  0.7546771E-02  0.1027353E+00
         21   -1    0    0  502  501  0.00000000000E+00  0.00000000000E+00  0.20931006380E+03  0.20931006380E+03  0.00000000000E+00 0. -1.
         21   -1    0    0  501  502 -0.00000000000E+00 -0.00000000000E+00 -0.24320162058E+03  0.24320162058E+03  0.00000000000E+00 0. -1.
      99926    2    1    2    0    0  0.00000000000E+00  0.14210854715E-13 -0.33891556785E+02  0.45251168438E+03  0.45124071944E+03 0.  0.
      99925    2    3    3    0    0 -0.33032799185E+01 -0.77485960168E+02  0.56357627357E+02  0.27986346105E+03  0.26293038811E+03 0.  0.
         25    1    4    4    0    0 -0.28245785396E+01 -0.77993203274E+02  0.45502840744E+02  0.15430144075E+03  0.12509000000E+03 0.  0.
         25    1    4    4    0    0 -0.47870137893E+00  0.50724310526E+00  0.10854786613E+02  0.12556202030E+03  0.12509000000E+03 0.  0.
         25    1    3    3    0    0  0.33032799185E+01  0.77485960168E+02 -0.90249184141E+02  0.17264822333E+03  0.12509000000E+03 0.  0.
<mgrwt>
<rscale>  2 0.45124072E+03</rscale>
<asrwt>0</asrwt>
<pdfrwt beam="1">  1       21 0.30780892E-01 0.45124072E+03</pdfrwt>
<pdfrwt beam="2">  1       21 0.35764944E-01 0.45124072E+03</pdfrwt>
<totfact> 0.70829257E+04</totfact>
</mgrwt>
</event>
<event>
 7    0  0.4712189E-002  0.4633697E+03  0.7546771E-02  0.1023808E+00
         21   -1    0    0  502  501  0.00000000000E+00  0.00000000000E+00  0.13222144370E+03  0.13222144370E+03  0.00000000000E+00 0. -1.
         21   -1    0    0  501  502 -0.00000000000E+00 -0.00000000000E+00 -0.40596949120E+03  0.40596949120E+03  0.00000000000E+00 0. -1.
      99926    2    1    2    0    0  0.00000000000E+00  0.71054273576E-14 -0.27374804749E+03  0.53819093490E+03  0.46336971081E+03 0.  0.
      99925    2    3    3    0    0  0.70562469770E+01  0.47959867416E+02 -0.29965320461E+03  0.40155812490E+03  0.26288199849E+03 0.  0.
         25    1    4    4    0    0  0.38381507633E+01  0.49498794339E+02 -0.20244690287E+03  0.24309898935E+03  0.12509000000E+03 0.  0.
         25    1    4    4    0    0  0.32180962137E+01 -0.15389269225E+01 -0.97206301741E+02  0.15845913554E+03  0.12509000000E+03 0.  0.
         25    1    3    3    0    0 -0.70562469770E+01 -0.47959867416E+02  0.25905157116E+02  0.13663281000E+03  0.12509000000E+03 0.  0.
<mgrwt>
<rscale>  2 0.46336971E+03</rscale>
<asrwt>0</asrwt>
<pdfrwt beam="1">  1       21 0.19444330E-01 0.46336971E+03</pdfrwt>
<pdfrwt beam="2">  1       21 0.59701396E-01 0.46336971E+03</pdfrwt>
<totfact> 0.58666254E+04</totfact>
</mgrwt>
</event>
<event>
 7    0  0.4712189E-002  0.4648835E+03  0.7546771E-02  0.1023374E+00
         21   -1    0    0  502  501  0.00000000000E+00  0.00000000000E+00  0.16368822686E+03  0.16368822686E+03  0.00000000000E+00 0. -1.
         21   -1    0    0  501  502 -0.00000000000E+00 -0.00000000000E+00 -0.33007358746E+03  0.33007358746E+03  0.00000000000E+00 0. -1.
      99926    2    1    2    0    0  0.00000000000E+00  0.00000000000E+00 -0.16638536060E+03  0.49376181432E+03  0.46488347041E+03 0.  0.
      99925    2    3    3    0    0  0.29255113055E+02 -0.10883447261E+03 -0.15383893929E+03  0.32492542944E+03  0.26307662646E+03 0.  0.
         25    1    4    4    0    0  0.17149600326E+02 -0.82467251311E+02 -0.11835066280E+03  0.19170118366E+03  0.12509000000E+03 0.  0.
         25    1    4    4    0    0  0.12105512729E+02 -0.26367221304E+02 -0.35488276489E+02  0.13322424579E+03  0.12509000000E+03 0.  0.
         25    1    3    3    0    0 -0.29255113055E+02  0.10883447261E+03 -0.12546421311E+02  0.16883638487E+03  0.12509000000E+03 0.  0.
<mgrwt>
<rscale>  2 0.46488347E+03</rscale>
<asrwt>0</asrwt>
<pdfrwt beam="1">  1       21 0.24071798E-01 0.46488347E+03</pdfrwt>
<pdfrwt beam="2">  1       21 0.48540233E-01 0.46488347E+03</pdfrwt>
<totfact> 0.60798997E+04</totfact>
</mgrwt>
</event>
<event>
 7    0  0.4712189E-002  0.4630951E+03  0.7546771E-02  0.1023887E+00
         21   -1    0    0  502  501  0.00000000000E+00  0.00000000000E+00  0.80362356492E+03  0.80362356492E+03  0.00000000000E+00 0. -1.
         21   -1    0    0  501  502 -0.00000000000E+00 -0.00000000000E+00 -0.66715638155E+02  0.66715638155E+02  0.00000000000E+00 0. -1.
      99926    2    1    2    0    0  0.00000000000E+00  0.00000000000E+00  0.73690792677E+03  0.87033920308E+03  0.46309506139E+03 0.  0.
      99925    2    3    3    0    0 -0.79905861073E+02 -0.87728783895E+02  0.50054076113E+03  0.57776744906E+03  0.26304540574E+03 0.  0.
         25    1    4    4    0    0 -0.72463499311E+02 -0.66636600866E+02  0.24158768507E+03  0.28931559409E+03  0.12509000000E+03 0.  0.
         25    1    4    4    0    0 -0.74423617614E+01 -0.21092183030E+02  0.25895307606E+03  0.28845185497E+03  0.12509000000E+03 0.  0.
         25    1    3    3    0    0  0.79905861073E+02  0.87728783895E+02  0.23636716564E+03  0.29257175402E+03  0.12509000000E+03 0.  0.
<mgrwt>
<rscale>  2 0.46309506E+03</rscale>
<asrwt>0</asrwt>
<pdfrwt beam="1">  1       21 0.11817993E+00 0.46309506E+03</pdfrwt>
<pdfrwt beam="2">  1       21 0.98111237E-02 0.46309506E+03</pdfrwt>
<totfact> 0.41823497E+04</totfact>
</mgrwt>
</event>
<event>
 7    0  0.4712189E-002  0.4529167E+03  0.7546771E-02  0.1026856E+00
         21   -1    0    0  502  501  0.00000000000E+00  0.00000000000E+00  0.13680923827E+03  0.13680923827E+03  0.00000000000E+00 0. -1.
         21   -1    0    0  501  502 -0.00000000000E+00 -0.00000000000E+00 -0.37485317976E+03  0.37485317976E+03  0.00000000000E+00 0. -1.
      99926    2    1    2    0    0  0.00000000000E+00 -0.35527136788E-14 -0.23804394149E+03  0.51166241804E+03  0.45291667219E+03 0.  0.
      99925    2    3    3    0    0 -0.59649222589E+02  0.27637547670E+02 -0.48631402969E+02  0.27534381605E+03  0.26292078633E+03 0.  0.
         25    1    4    4    0    0 -0.65658463879E+02  0.23867744705E+02 -0.44334411405E+02  0.14997916939E+03  0.12509000000E+03 0.  0.
         25    1    3    3    0    0  0.59649222589E+02 -0.27637547670E+02 -0.18941253852E+03  0.23631860199E+03  0.12509000000E+03 0.  0.
         25    1    4    4    0    0  0.60092412893E+01  0.37698029651E+01 -0.42969915638E+01  0.12536464666E+03  0.12509000000E+03 0.  0.
<mgrwt>
<rscale>  2 0.45291667E+03</rscale>
<asrwt>0</asrwt>
<pdfrwt beam="1">  1       21 0.20119006E-01 0.45291667E+03</pdfrwt>
<pdfrwt beam="2">  1       21 0.55125467E-01 0.45291667E+03</pdfrwt>
<totfact> 0.65535648E+04</totfact>
</mgrwt>
</event>
<event>
 7    0  0.4712189E-002  0.4566323E+03  0.7546771E-02  0.1025762E+00
         21   -1    0    0  502  501  0.00000000000E+00  0.00000000000E+00  0.16065440059E+03  0.16065440059E+03  0.00000000000E+00 0.  1.
         21   -1    0    0  501  502 -0.00000000000E+00 -0.00000000000E+00 -0.32447449513E+03  0.32447449513E+03  0.00000000000E+00 0.  1.
      99926    2    1    2    0    0  0.00000000000E+00  0.00000000000E+00 -0.16382009454E+03  0.48512889571E+03  0.45663226132E+03 0.  0.
      99925    2    3    3    0    0  0.20738667344E+02 -0.72724448025E+02 -0.11082087368E+02  0.27371616053E+03  0.26282843493E+03 0.  0.
         25    1    3    3    0    0 -0.20738667344E+02  0.72724448025E+02 -0.15273800717E+03  0.21141273519E+03  0.12509000000E+03 0.  0.
         25    1    4    4    0    0 -0.24294757954E+02 -0.26517485135E+02  0.13427113522E+02  0.13084803307E+03  0.12509000000E+03 0.  0.
         25    1    4    4    0    0  0.45033425298E+02 -0.46206962890E+02 -0.24509200890E+02  0.14286812745E+03  0.12509000000E+03 0.  0.
<mgrwt>
<rscale>  2 0.45663226E+03</rscale>
<asrwt>0</asrwt>
<pdfrwt beam="1">  1       21 0.23625647E-01 0.45663226E+03</pdfrwt>
<pdfrwt beam="2">  1       21 0.47716837E-01 0.45663226E+03</pdfrwt>
<totfact> 0.65476096E+04</totfact>
</mgrwt>
</event>
<event>
 7    0  0.4712189E-002  0.4516355E+03  0.7546771E-02  0.1027235E+00
         21   -1    0    0  502  501  0.00000000000E+00  0.00000000000E+00  0.13320539414E+04  0.13320539414E+04  0.00000000000E+00 0. -1.
         21   -1    0    0  501  502 -0.00000000000E+00 -0.00000000000E+00 -0.38281981340E+02  0.38281981340E+02  0.00000000000E+00 0. -1.
      99926    2    1    2    0    0  0.88817841970E-15  0.00000000000E+00  0.12937719601E+04  0.13703359228E+04  0.45163553505E+03 0.  0.
      99925    2    3    3    0    0  0.56429971924E+01 -0.10892037812E+03  0.77386139356E+03  0.82457956918E+03  0.26301048893E+03 0.  0.
         25    1    3    3    0    0 -0.56429971924E+01  0.10892037812E+03  0.51991056653E+03  0.54575635358E+03  0.12509000000E+03 0.  0.
         25    1    4    4    0    0  0.25909966274E+02 -0.29694727562E+02  0.29261933983E+03  0.32066600901E+03  0.12509000000E+03 0.  0.
         25    1    4    4    0    0 -0.20266969081E+02 -0.79225650561E+02  0.48124205373E+03  0.50391356017E+03  0.12509000000E+03 0.  0.
<mgrwt>
<rscale>  2 0.45163554E+03</rscale>
<asrwt>0</asrwt>
<pdfrwt beam="1">  1       21 0.19589026E+00 0.45163554E+03</pdfrwt>
<pdfrwt beam="2">  1       21 0.56297040E-02 0.45163554E+03</pdfrwt>
<totfact> 0.27854656E+04</totfact>
</mgrwt>
</event>
<event>
 7    0  0.4712189E-002  0.4528517E+03  0.7546771E-02  0.1026875E+00
         21   -1    0    0  502  501  0.00000000000E+00  0.00000000000E+00  0.20462880964E+03  0.20462880964E+03  0.00000000000E+00 0. -1.
         21   -1    0    0  501  502 -0.00000000000E+00 -0.00000000000E+00 -0.25054472395E+03  0.25054472395E+03  0.00000000000E+00 0. -1.
      99926    2    1    2    0    0 -0.17763568394E-14  0.00000000000E+00 -0.45915914312E+02  0.45517353359E+03  0.45285171358E+03 0.  0.
      99925    2    3    3    0    0  0.15871355394E+02 -0.60407878127E+02  0.63516581013E+02  0.27762356655E+03  0.26294386660E+03 0.  0.
         25    1    4    4    0    0  0.44754527779E+02 -0.13583609677E+02  0.28504461847E+02  0.13655582981E+03  0.12509000000E+03 0.  0.
         25    1    3    3    0    0 -0.15871355394E+02  0.60407878127E+02 -0.10943249533E+03  0.17754996704E+03  0.12509000000E+03 0.  0.
         25    1    4    4    0    0 -0.28883172385E+02 -0.46824268449E+02  0.35012119166E+02  0.14106773675E+03  0.12509000000E+03 0.  0.
<mgrwt>
<rscale>  2 0.45285171E+03</rscale>
<asrwt>0</asrwt>
<pdfrwt beam="1">  1       21 0.30092472E-01 0.45285171E+03</pdfrwt>
<pdfrwt beam="2">  1       21 0.36844812E-01 0.45285171E+03</pdfrwt>
<totfact> 0.69720448E+04</totfact>
</mgrwt>
</event>
<event>
 7    0  0.4712189E-002  0.4574924E+03  0.7546771E-02  0.1025511E+00
         21   -1    0    0  502  501  0.00000000000E+00  0.00000000000E+00  0.63515309607E+02  0.63515309607E+02  0.00000000000E+00 0.  1.
         21   -1    0    0  501  502 -0.00000000000E+00 -0.00000000000E+00 -0.82381428611E+03  0.82381428611E+03  0.00000000000E+00 0.  1.
      99926    2    1    2    0    0  0.00000000000E+00 -0.88817841970E-15 -0.76029897650E+03  0.88732959572E+03  0.45749238001E+03 0.  0.
      99925    2    3    3    0    0 -0.46753776237E+02  0.68048720339E+01 -0.27293499396E+03  0.38195509947E+03  0.26299042798E+03 0.  0.
         25    1    3    3    0    0  0.46753776237E+02 -0.68048720339E+01 -0.48736398254E+03  0.50537449624E+03  0.12509000000E+03 0.  0.
         25    1    4    4    0    0 -0.57238625857E+02  0.26591866508E+02 -0.14491340185E+03  0.20157080590E+03  0.12509000000E+03 0.  0.
         25    1    4    4    0    0  0.10484849620E+02 -0.19786994474E+02 -0.12802159211E+03  0.18038429358E+03  0.12509000000E+03 0.  0.
<mgrwt>
<rscale>  2 0.45749238E+03</rscale>
<asrwt>0</asrwt>
<pdfrwt beam="1">  1       21 0.93404873E-02 0.45749238E+03</pdfrwt>
<pdfrwt beam="2">  1       21 0.12114915E+00 0.45749238E+03</pdfrwt>
<totfact> 0.42941774E+04</totfact>
</mgrwt>
</event>
<event>
 7    0  0.4712189E-002  0.4616906E+03  0.7546771E-02  0.1024292E+00
         21   -1    0    0  502  501  0.00000000000E+00  0.00000000000E+00  0.33190794521E+02  0.33190794521E+02  0.00000000000E+00 0. -1.
         21   -1    0    0  501  502 -0.00000000000E+00 -0.00000000000E+00 -0.16055519363E+04  0.16055519363E+04  0.00000000000E+00 0. -1.
      99926    2    1    2    0    0  0.00000000000E+00  0.00000000000E+00 -0.15723611417E+04  0.16387427308E+04  0.46169056481E+03 0.  0.
      99925    2    3    3    0    0  0.76195624133E+02 -0.60319961347E+02 -0.73941082249E+03  0.79086419389E+03  0.26323665759E+03 0.  0.
         25    1    4    4    0    0  0.31373004447E+02 -0.59566066828E+01 -0.44441652786E+03  0.46278861796E+03  0.12509000000E+03 0.  0.
         25    1    4    4    0    0  0.44822619686E+02 -0.54363354664E+02 -0.29499429462E+03  0.32807557594E+03  0.12509000000E+03 0.  0.
         25    1    3    3    0    0 -0.76195624133E+02  0.60319961347E+02 -0.83295031926E+03  0.84787853690E+03  0.12509000000E+03 0.  0.
<mgrwt>
<rscale>  2 0.46169056E+03</rscale>
<asrwt>0</asrwt>
<pdfrwt beam="1">  1       21 0.48809980E-02 0.46169056E+03</pdfrwt>
<pdfrwt beam="2">  1       21 0.23611064E+00 0.46169056E+03</pdfrwt>
<totfact> 0.19533652E+04</totfact>
</mgrwt>
</event>
<event>
 7    0  0.4712189E-002  0.4220522E+03  0.7546771E-02  0.1036400E+00
         21   -1    0    0  502  501  0.00000000000E+00  0.00000000000E+00  0.27922913621E+03  0.27922913621E+03  0.00000000000E+00 0. -1.
         21   -1    0    0  501  502 -0.00000000000E+00 -0.00000000000E+00 -0.15948195948E+03  0.15948195948E+03  0.00000000000E+00 0. -1.
      99926    2    1    2    0    0 -0.17763568394E-14  0.35527136788E-14  0.11974717672E+03  0.43871109569E+03  0.42205217586E+03 0.  0.
      99925    2    3    3    0    0 -0.13267928362E+02  0.11968909139E+02  0.15717497051E+03  0.30692475134E+03  0.26302003521E+03 0.  0.
         25    1    3    3    0    0  0.13267928362E+02 -0.11968909139E+02 -0.37427793784E+02  0.13178634435E+03  0.12509000000E+03 0.  0.
         25    1    4    4    0    0 -0.73093557616E+00  0.46127683547E+02  0.81637100761E+02  0.15633432693E+03  0.12509000000E+03 0.  0.
         25    1    4    4    0    0 -0.12536992786E+02 -0.34158774408E+02  0.75537869748E+02  0.15059042441E+03  0.12509000000E+03 0.  0.
<mgrwt>
<rscale>  2 0.42205218E+03</rscale>
<asrwt>0</asrwt>
<pdfrwt beam="1">  1       21 0.41063108E-01 0.42205218E+03</pdfrwt>
<pdfrwt beam="2">  1       21 0.23453229E-01 0.42205218E+03</pdfrwt>
<totfact> 0.91514037E+04</totfact>
</mgrwt>
</event>
<event>
 7    0  0.4712189E-002  0.4977711E+03  0.7546771E-02  0.1014362E+00
         21   -1    0    0  502  501  0.00000000000E+00  0.00000000000E+00  0.85777070283E+03  0.85777070283E+03  0.00000000000E+00 0. -1.
         21   -1    0    0  501  502 -0.00000000000E+00 -0.00000000000E+00 -0.72215129383E+02  0.72215129383E+02  0.00000000000E+00 0. -1.
      99926    2    1    2    0    0  0.00000000000E+00  0.00000000000E+00  0.78555557345E+03  0.92998583222E+03  0.49777112124E+03 0.  0.
      99925    2    3    3    0    0 -0.32221641823E+02  0.13166508649E+03  0.35803809245E+03  0.46437587328E+03  0.26283026241E+03 0.  0.
         25    1    4    4    0    0 -0.47211260898E+02  0.47029750575E+02  0.20135926144E+03  0.24623923502E+03  0.12509000000E+03 0.  0.
         25    1    3    3    0    0  0.32221641823E+02 -0.13166508649E+03  0.42751748100E+03  0.46560995894E+03  0.12509000000E+03 0.  0.
         25    1    4    4    0    0  0.14989619075E+02  0.84635335913E+02  0.15667883101E+03  0.21813663826E+03  0.12509000000E+03 0.  0.
<mgrwt>
<rscale>  2 0.49777112E+03</rscale>
<asrwt>0</asrwt>
<pdfrwt beam="1">  1       21 0.12614274E+00 0.49777112E+03</pdfrwt>
<pdfrwt beam="2">  1       21 0.10619872E-01 0.49777112E+03</pdfrwt>
<totfact> 0.30425494E+04</totfact>
</mgrwt>
</event>
<event>
 7    0  0.4712189E-002  0.4591724E+03  0.7546771E-02  0.1025022E+00
         21   -1    0    0  502  501  0.00000000000E+00  0.00000000000E+00  0.20591996474E+03  0.20591996474E+03  0.00000000000E+00 0.  1.
         21   -1    0    0  501  502 -0.00000000000E+00 -0.00000000000E+00 -0.25597240586E+03  0.25597240586E+03  0.00000000000E+00 0.  1.
      99926    2    1    2    0    0  0.00000000000E+00  0.00000000000E+00 -0.50052441116E+02  0.46189237060E+03  0.45917242421E+03 0.  0.
      99925    2    3    3    0    0 -0.85700945997E+02  0.79599162080E+02 -0.34983658287E+02  0.28997595177E+03  0.26302379646E+03 0.  0.
         25    1    4    4    0    0 -0.52266467910E+01  0.31275024007E+02  0.28256992313E+01  0.12907725454E+03  0.12509000000E+03 0.  0.
         25    1    4    4    0    0 -0.80474299206E+02  0.48324138073E+02 -0.37809357519E+02  0.16089869723E+03  0.12509000000E+03 0.  0.
         25    1    3    3    0    0  0.85700945997E+02 -0.79599162080E+02 -0.15068782829E+02  0.17191641883E+03  0.12509000000E+03 0.  0.
<mgrwt>
<rscale>  2 0.45917242E+03</rscale>
<asrwt>0</asrwt>
<pdfrwt beam="1">  1       21 0.30282348E-01 0.45917242E+03</pdfrwt>
<pdfrwt beam="2">  1       21 0.37643001E-01 0.45917242E+03</pdfrwt>
<totfact> 0.65824999E+04</totfact>
</mgrwt>
</event>
<event>
 7    0  0.4712189E-002  0.4582687E+03  0.7546771E-02  0.1025285E+00
         21   -1    0    0  502  501  0.00000000000E+00  0.00000000000E+00  0.57339757552E+03  0.57339757552E+03  0.00000000000E+00 0.  1.
         21   -1    0    0  501  502 -0.00000000000E+00 -0.00000000000E+00 -0.91563972755E+02  0.91563972755E+02  0.00000000000E+00 0.  1.
      99926    2    1    2    0    0  0.00000000000E+00  0.14210854715E-13  0.48183360277E+03  0.66496154828E+03  0.45826874204E+03 0.  0.
      99925    2    3    3    0    0 -0.18031617520E+02  0.86264580558E+02  0.41227126887E+03  0.49687483409E+03  0.26296441684E+03 0.  0.
         25    1    3    3    0    0  0.18031617520E+02 -0.86264580558E+02  0.69562333896E+02  0.16808671419E+03  0.12509000000E+03 0.  0.
         25    1    4    4    0    0 -0.78815875871E+01  0.83606659808E+02  0.20227466310E+03  0.25221962735E+03  0.12509000000E+03 0.  0.
         25    1    4    4    0    0 -0.10150029933E+02  0.26579207504E+01  0.20999660577E+03  0.24465520674E+03  0.12509000000E+03 0.  0.
<mgrwt>
<rscale>  2 0.45826874E+03</rscale>
<asrwt>0</asrwt>
<pdfrwt beam="1">  1       21 0.84323171E-01 0.45826874E+03</pdfrwt>
<pdfrwt beam="2">  1       21 0.13465290E-01 0.45826874E+03</pdfrwt>
<totfact> 0.53455670E+04</totfact>
</mgrwt>
</event>
<event>
 7    0  0.4712189E-002  0.4722083E+03  0.7546771E-02  0.1021299E+00
         21   -1    0    0  502  501  0.00000000000E+00  0.00000000000E+00  0.19888721715E+03  0.19888721715E+03  0.00000000000E+00 0. -1.
         21   -1    0    0  501  502 -0.00000000000E+00 -0.00000000000E+00 -0.28028527814E+03  0.28028527814E+03  0.00000000000E+00 0. -1.
      99926    2    1    2    0    0  0.00000000000E+00  0.71054273576E-14 -0.81398060989E+02  0.47917249528E+03  0.47220825480E+03 0.  0.
      99925    2    3    3    0    0 -0.50761014697E+02  0.45210143462E+02  0.60309028794E+02  0.27830177795E+03  0.26304764392E+03 0.  0.
         25    1    3    3    0    0  0.50761014697E+02 -0.45210143462E+02 -0.14170708978E+03  0.20087071733E+03  0.12509000000E+03 0.  0.
         25    1    4    4    0    0 -0.25739596792E+02 -0.13685196022E+02  0.48520707926E+02  0.13730105109E+03  0.12509000000E+03 0.  0.
         25    1    4    4    0    0 -0.25021417905E+02  0.58895339484E+02  0.11788320868E+02  0.14100072686E+03  0.12509000000E+03 0.  0.
<mgrwt>
<rscale>  2 0.47220825E+03</rscale>
<asrwt>0</asrwt>
<pdfrwt beam="1">  1       21 0.29248120E-01 0.47220825E+03</pdfrwt>
<pdfrwt beam="2">  1       21 0.41218423E-01 0.47220825E+03</pdfrwt>
<totfact> 0.58368376E+04</totfact>
</mgrwt>
</event>
<event>
 7    0  0.4712189E-002  0.4574904E+03  0.7546771E-02  0.1025512E+00
         21   -1    0    0  502  501  0.00000000000E+00  0.00000000000E+00  0.59596394097E+03  0.59596394097E+03  0.00000000000E+00 0.  1.
         21   -1    0    0  501  502 -0.00000000000E+00 -0.00000000000E+00 -0.87797890515E+02  0.87797890515E+02  0.00000000000E+00 0.  1.
      99926    2    1    2    0    0  0.00000000000E+00 -0.14210854715E-13  0.50816605045E+03  0.68376183149E+03  0.45749044510E+03 0.  0.
      99925    2    3    3    0    0 -0.49744479584E+02  0.84330302269E+02  0.41044722028E+03  0.49726091728E+03  0.26308817170E+03 0.  0.
         25    1    3    3    0    0  0.49744479584E+02 -0.84330302269E+02  0.97718830178E+02  0.18650091421E+03  0.12509000000E+03 0.  0.
         25    1    4    4    0    0 -0.33930324878E+02  0.82237262446E+02  0.20314287314E+03  0.25461494317E+03  0.12509000000E+03 0.  0.
         25    1    4    4    0    0 -0.15814154707E+02  0.20930398228E+01  0.20730434714E+03  0.24264597410E+03  0.12509000000E+03 0.  0.
<mgrwt>
<rscale>  2 0.45749045E+03</rscale>
<asrwt>0</asrwt>
<pdfrwt beam="1">  1       21 0.87641754E-01 0.45749045E+03</pdfrwt>
<pdfrwt beam="2">  1       21 0.12911455E-01 0.45749045E+03</pdfrwt>
<totfact> 0.52751746E+04</totfact>
</mgrwt>
</event>
<event>
 7    0  0.4712189E-002  0.4547283E+03  0.7546771E-02  0.1026321E+00
         21   -1    0    0  502  501  0.00000000000E+00  0.00000000000E+00  0.82564687287E+03  0.82564687287E+03  0.00000000000E+00 0.  1.
         21   -1    0    0  501  502 -0.00000000000E+00 -0.00000000000E+00 -0.62610844331E+02  0.62610844331E+02  0.00000000000E+00 0.  1.
      99926    2    1    2    0    0  0.00000000000E+00 -0.17763568394E-14  0.76303602853E+03  0.88825771720E+03  0.45472826096E+03 0.  0.
      99925    2    3    3    0    0 -0.92922426038E+02  0.81103156088E+01  0.60508530775E+03  0.66623003249E+03  0.26274297718E+03 0.  0.
         25    1    4    4    0    0 -0.20211854618E+02  0.31678335175E+02  0.24969535752E+03  0.28179303692E+03  0.12509000000E+03 0.  0.
         25    1    3    3    0    0  0.92922426038E+02 -0.81103156088E+01  0.15795072078E+03  0.22202768471E+03  0.12509000000E+03 0.  0.
         25    1    4    4    0    0 -0.72710571420E+02 -0.23568019567E+02  0.35538995023E+03  0.38443699557E+03  0.12509000000E+03 0.  0.
<mgrwt>
<rscale>  2 0.45472826E+03</rscale>
<asrwt>0</asrwt>
<pdfrwt beam="1">  1       21 0.12141865E+00 0.45472826E+03</pdfrwt>
<pdfrwt beam="2">  1       21 0.92074776E-02 0.45472826E+03</pdfrwt>
<totfact> 0.43838498E+04</totfact>
</mgrwt>
</event>
<event>
 7    0  0.4712189E-002  0.4570604E+03  0.7546771E-02  0.1025637E+00
         21   -1    0    0  502  501  0.00000000000E+00  0.00000000000E+00  0.27582511953E+03  0.27582511953E+03  0.00000000000E+00 0.  1.
         21   -1    0    0  501  502 -0.00000000000E+00 -0.00000000000E+00 -0.18934479082E+03  0.18934479082E+03  0.00000000000E+00 0.  1.
      99926    2    1    2    0    0  0.00000000000E+00  0.00000000000E+00  0.86480328710E+02  0.46516991036E+03  0.45706038797E+03 0.  0.
      99925    2    3    3    0    0  0.80238033678E+02 -0.52277330911E+02 -0.11104257979E+02  0.27985579585E+03  0.26272590385E+03 0.  0.
         25    1    3    3    0    0 -0.80238033678E+02  0.52277330911E+02  0.97584586689E+02  0.18531411451E+03  0.12509000000E+03 0.  0.
         25    1    4    4    0    0  0.26623290851E+02 -0.55582266169E+00  0.23917960178E+02  0.13011028197E+03  0.12509000000E+03 0.  0.
         25    1    4    4    0    0  0.53614742827E+02 -0.51721508250E+02 -0.35022218157E+02  0.14974551389E+03  0.12509000000E+03 0.  0.
<mgrwt>
<rscale>  2 0.45706039E+03</rscale>
<asrwt>0</asrwt>
<pdfrwt beam="1">  1       21 0.40562518E-01 0.45706039E+03</pdfrwt>
<pdfrwt beam="2">  1       21 0.27844822E-01 0.45706039E+03</pdfrwt>
<totfact> 0.66698422E+04</totfact>
</mgrwt>
</event>
<event>
 7    0  0.4712189E-002  0.4541621E+03  0.7546771E-02  0.1026488E+00
         21   -1    0    0  502  501  0.00000000000E+00  0.00000000000E+00  0.35687054522E+03  0.35687054522E+03  0.00000000000E+00 0.  1.
         21   -1    0    0  501  502 -0.00000000000E+00 -0.00000000000E+00 -0.14449441401E+03  0.14449441401E+03  0.00000000000E+00 0.  1.
      99926    2    1    2    0    0  0.00000000000E+00  0.00000000000E+00  0.21237613121E+03  0.50136495923E+03  0.45416208697E+03 0.  0.
      99925    2    3    3    0    0  0.84706435172E+02 -0.69157354270E+02  0.16211209759E+03  0.32777953074E+03  0.26306115027E+03 0.  0.
         25    1    3    3    0    0 -0.84706435172E+02  0.69157354270E+02  0.50264033627E+02  0.17358542849E+03  0.12509000000E+03 0.  0.
         25    1    4    4    0    0  0.31623688091E+02  0.51440272240E+01  0.60917473310E+02  0.14277592696E+03  0.12509000000E+03 0.  0.
         25    1    4    4    0    0  0.53082747081E+02 -0.74301381494E+02  0.10119462428E+03  0.18500360378E+03  0.12509000000E+03 0.  0.
<mgrwt>
<rscale>  2 0.45416209E+03</rscale>
<asrwt>0</asrwt>
<pdfrwt beam="1">  1       21 0.52480963E-01 0.45416209E+03</pdfrwt>
<pdfrwt beam="2">  1       21 0.21249179E-01 0.45416209E+03</pdfrwt>
<totfact> 0.65610176E+04</totfact>
</mgrwt>
</event>
<event>
 7    0  0.4712189E-002  0.4496911E+03  0.7546771E-02  0.1027814E+00
         21   -1    0    0  502  501  0.00000000000E+00  0.00000000000E+00  0.13613593078E+03  0.13613593078E+03  0.00000000000E+00 0.  1.
         21   -1    0    0  501  502 -0.00000000000E+00 -0.00000000000E+00 -0.37136056884E+03  0.37136056884E+03  0.00000000000E+00 0.  1.
      99926    2    1    2    0    0  0.00000000000E+00  0.00000000000E+00 -0.23522463806E+03  0.50749649962E+03  0.44969107927E+03 0.  0.
      99925    2    3    3    0    0  0.58358063204E+01  0.33349319602E+02 -0.32765454014E+02  0.26711458878E+03  0.26292659586E+03 0.  0.
         25    1    4    4    0    0  0.29651224276E+02 -0.18437950901E+01 -0.40444816230E+02  0.13478088122E+03  0.12509000000E+03 0.  0.
         25    1    3    3    0    0 -0.58358063204E+01 -0.33349319602E+02 -0.20245918405E+03  0.24038191084E+03  0.12509000000E+03 0.  0.
         25    1    4    4    0    0 -0.23815417955E+02  0.35193114693E+02  0.76793622161E+01  0.13233370757E+03  0.12509000000E+03 0.  0.
<mgrwt>
<rscale>  2 0.44969108E+03</rscale>
<asrwt>0</asrwt>
<pdfrwt beam="1">  1       21 0.20019990E-01 0.44969108E+03</pdfrwt>
<pdfrwt beam="2">  1       21 0.54611848E-01 0.44969108E+03</pdfrwt>
<totfact> 0.67548588E+04</totfact>
</mgrwt>
</event>
<event>
 7    0  0.4712189E-002  0.4485291E+03  0.7546771E-02  0.1028162E+00
         21   -1    0    0  502  501  0.00000000000E+00  0.00000000000E+00  0.90952930775E+02  0.90952930775E+02  0.00000000000E+00 0. -1.
         21   -1    0    0  501  502 -0.00000000000E+00 -0.00000000000E+00 -0.55297374454E+03  0.55297374454E+03  0.00000000000E+00 0. -1.
      99926    2    1    2    0    0  0.00000000000E+00  0.00000000000E+00 -0.46202081376E+03  0.64392667531E+03  0.44852907468E+03 0.  0.
      99925    2    3    3    0    0  0.59147298347E+02  0.12836909692E+02 -0.41921487548E+03  0.49852019126E+03  0.26290317632E+03 0.  0.
         25    1    4    4    0    0  0.97949795628E+01  0.19444764746E+01 -0.26764801382E+03  0.29560563258E+03  0.12509000000E+03 0.  0.
         25    1    3    3    0    0 -0.59147298347E+02 -0.12836909692E+02 -0.42805938287E+02  0.14540648405E+03  0.12509000000E+03 0.  0.
         25    1    4    4    0    0  0.49352318784E+02  0.10892433217E+02 -0.15156686166E+03  0.20291455868E+03  0.12509000000E+03 0.  0.
<mgrwt>
<rscale>  2 0.44852907E+03</rscale>
<asrwt>0</asrwt>
<pdfrwt beam="1">  1       21 0.13375431E-01 0.44852907E+03</pdfrwt>
<pdfrwt beam="2">  1       21 0.81319669E-01 0.44852907E+03</pdfrwt>
<totfact> 0.59008259E+04</totfact>
</mgrwt>
</event>
<event>
 7    0  0.4712189E-002  0.4504170E+03  0.7546771E-02  0.1027598E+00
         21   -1    0    0  502  501  0.00000000000E+00  0.00000000000E+00  0.15065774527E+03  0.15065774527E+03  0.00000000000E+00 0.  1.
         21   -1    0    0  501  502 -0.00000000000E+00 -0.00000000000E+00 -0.33664964490E+03  0.33664964490E+03  0.00000000000E+00 0.  1.
      99926    2    1    2    0    0  0.00000000000E+00  0.00000000000E+00 -0.18599189963E+03  0.48730739017E+03  0.45041703541E+03 0.  0.
      99925    2    3    3    0    0  0.64789145925E+02  0.87317681867E+02 -0.12791788613E+03  0.31168817101E+03  0.26261096580E+03 0.  0.
         25    1    4    4    0    0 -0.61847520053E+01  0.28761431973E+02 -0.66583005265E+02  0.14472828271E+03  0.12509000000E+03 0.  0.
         25    1    4    4    0    0  0.70973897930E+02  0.58556249895E+02 -0.61334880865E+02  0.16695988830E+03  0.12509000000E+03 0.  0.
         25    1    3    3    0    0 -0.64789145925E+02 -0.87317681867E+02 -0.58074013500E+02  0.17561921917E+03  0.12509000000E+03 0.  0.
<mgrwt>
<rscale>  2 0.45041704E+03</rscale>
<asrwt>0</asrwt>
<pdfrwt beam="1">  1       21 0.22155551E-01 0.45041704E+03</pdfrwt>
<pdfrwt beam="2">  1       21 0.49507301E-01 0.45041704E+03</pdfrwt>
<totfact> 0.68635248E+04</totfact>
</mgrwt>
</event>
<event>
 7    0  0.4712189E-002  0.4555038E+03  0.7546771E-02  0.1026093E+00
         21   -1    0    0  502  501  0.00000000000E+00  0.00000000000E+00  0.33332953883E+02  0.33332953883E+02  0.00000000000E+00 0. -1.
         21   -1    0    0  501  502 -0.00000000000E+00 -0.00000000000E+00 -0.15561458514E+04  0.15561458514E+04  0.00000000000E+00 0. -1.
      99926    2    1    2    0    0  0.00000000000E+00  0.17763568394E-14 -0.15228128976E+04  0.15894788053E+04  0.45550384368E+03 0.  0.
      99925    2    3    3    0    0 -0.11324450591E+03  0.54565107888E+01 -0.92943996481E+03  0.97255657599E+03  0.26297063275E+03 0.  0.
         25    1    4    4    0    0 -0.53433522368E+02  0.23219194685E+02 -0.58010771313E+03  0.59629417174E+03  0.12509000000E+03 0.  0.
         25    1    4    4    0    0 -0.59810983538E+02 -0.17762683896E+02 -0.34933225168E+03  0.37626240425E+03  0.12509000000E+03 0.  0.
         25    1    3    3    0    0  0.11324450591E+03 -0.54565107888E+01 -0.59337293274E+03  0.61692222933E+03  0.12509000000E+03 0.  0.
<mgrwt>
<rscale>  2 0.45550384E+03</rscale>
<asrwt>0</asrwt>
<pdfrwt beam="1">  1       21 0.49019043E-02 0.45550384E+03</pdfrwt>
<pdfrwt beam="2">  1       21 0.22884501E+00 0.45550384E+03</pdfrwt>
<totfact> 0.21583991E+04</totfact>
</mgrwt>
</event>
<event>
 7    0  0.4712189E-002  0.4556756E+03  0.7546771E-02  0.1026043E+00
         21   -1    0    0  502  501  0.00000000000E+00  0.00000000000E+00  0.77194880988E+03  0.77194880988E+03  0.00000000000E+00 0.  1.
         21   -1    0    0  501  502 -0.00000000000E+00 -0.00000000000E+00 -0.67245477207E+02  0.67245477207E+02  0.00000000000E+00 0.  1.
      99926    2    1    2    0    0  0.00000000000E+00 -0.14210854715E-13  0.70470333267E+03  0.83919428709E+03  0.45567561313E+03 0.  0.
      99925    2    3    3    0    0  0.77195897087E+02 -0.73846341355E+02  0.37182813611E+03  0.46789132016E+03  0.26316085580E+03 0.  0.
         25    1    4    4    0    0  0.47060873999E+02 -0.78977438287E+02  0.20477921789E+03  0.25697120033E+03  0.12509000000E+03 0.  0.
         25    1    4    4    0    0  0.30135023088E+02  0.51310969323E+01  0.16704891822E+03  0.21092011983E+03  0.12509000000E+03 0.  0.
         25    1    3    3    0    0 -0.77195897087E+02  0.73846341355E+02  0.33287519656E+03  0.37130296692E+03  0.12509000000E+03 0.  0.
<mgrwt>
<rscale>  2 0.45567561E+03</rscale>
<asrwt>0</asrwt>
<pdfrwt beam="1">  1       21 0.11352188E+00 0.45567561E+03</pdfrwt>
<pdfrwt beam="2">  1       21 0.98890412E-02 0.45567561E+03</pdfrwt>
<totfact> 0.45684063E+04</totfact>
</mgrwt>
</event>
<event>
 7    0  0.4712189E-002  0.4576950E+03  0.7546771E-02  0.1025452E+00
         21   -1    0    0  502  501  0.00000000000E+00  0.00000000000E+00  0.60002263777E+02  0.60002263777E+02  0.00000000000E+00 0.  1.
         21   -1    0    0  501  502 -0.00000000000E+00 -0.00000000000E+00 -0.87282010184E+03  0.87282010184E+03  0.00000000000E+00 0.  1.
      99926    2    1    2    0    0 -0.71054273576E-14  0.71054273576E-14 -0.81281783806E+03  0.93282236561E+03  0.45769501627E+03 0.  0.
      99925    2    3    3    0    0  0.32275150924E+02  0.54216025901E+02 -0.31264143417E+03  0.41339479036E+03  0.26300099525E+03 0.  0.
         25    1    4    4    0    0  0.44861779522E+02  0.53315148440E+02 -0.14429370663E+03  0.20328124898E+03  0.12509000000E+03 0.  0.
         25    1    3    3    0    0 -0.32275150924E+02 -0.54216025901E+02 -0.50017640389E+03  0.51942757526E+03  0.12509000000E+03 0.  0.
         25    1    4    4    0    0 -0.12586628598E+02  0.90087746025E+00 -0.16834772754E+03  0.21011354137E+03  0.12509000000E+03 0.  0.
<mgrwt>
<rscale>  2 0.45769502E+03</rscale>
<asrwt>0</asrwt>
<pdfrwt beam="1">  1       21 0.88238632E-02 0.45769502E+03</pdfrwt>
<pdfrwt beam="2">  1       21 0.12835588E+00 0.45769502E+03</pdfrwt>
<totfact> 0.40973824E+04</totfact>
</mgrwt>
</event>
<event>
 7    0  0.4712189E-002  0.4524825E+03  0.7546771E-02  0.1026984E+00
         21   -1    0    0  502  501  0.00000000000E+00  0.00000000000E+00  0.28001373580E+03  0.28001373580E+03  0.00000000000E+00 0. -1.
         21   -1    0    0  501  502 -0.00000000000E+00 -0.00000000000E+00 -0.18279501305E+03  0.18279501305E+03  0.00000000000E+00 0. -1.
      99926    2    1    2    0    0  0.00000000000E+00  0.00000000000E+00  0.97218722757E+02  0.46280874885E+03  0.45248254989E+03 0.  0.
      99925    2    3    3    0    0 -0.10297682641E+03  0.28581291942E+02  0.31613075095E+02  0.28568527177E+03  0.26305051029E+03 0.  0.
         25    1    3    3    0    0  0.10297682641E+03 -0.28581291942E+02  0.65605647661E+02  0.17712347708E+03  0.12509000000E+03 0.  0.
         25    1    4    4    0    0 -0.50707041415E+02  0.22883917270E+02 -0.24088947109E+02  0.13900598257E+03  0.12509000000E+03 0.  0.
         25    1    4    4    0    0 -0.52269785000E+02  0.56973746722E+01  0.55702022204E+02  0.14667928920E+03  0.12509000000E+03 0.  0.
<mgrwt>
<rscale>  2 0.45248255E+03</rscale>
<asrwt>0</asrwt>
<pdfrwt beam="1">  1       21 0.41178491E-01 0.45248255E+03</pdfrwt>
<pdfrwt beam="2">  1       21 0.26881620E-01 0.45248255E+03</pdfrwt>
<totfact> 0.69349406E+04</totfact>
</mgrwt>
</event>
<event>
 7    0  0.4712189E-002  0.4584938E+03  0.7546771E-02  0.1025219E+00
         21   -1    0    0  502  501  0.00000000000E+00  0.00000000000E+00  0.16906889546E+03  0.16906889546E+03  0.00000000000E+00 0. -1.
         21   -1    0    0  501  502 -0.00000000000E+00 -0.00000000000E+00 -0.31084450141E+03  0.31084450141E+03  0.00000000000E+00 0. -1.
      99926    2    1    2    0    0 -0.35527136788E-14  0.00000000000E+00 -0.14177560596E+03  0.47991339687E+03  0.45849377973E+03 0.  0.
      99925    2    3    3    0    0  0.28308660562E+02  0.96848123948E+02 -0.14987081229E+03  0.31899733229E+03  0.26290130897E+03 0.  0.
         25    1    3    3    0    0 -0.28308660562E+02 -0.96848123948E+02  0.80952063295E+01  0.16091606458E+03  0.12509000000E+03 0.  0.
         25    1    4    4    0    0  0.43564381164E+02  0.20607792143E+02 -0.64548867832E+02  0.14878373850E+03  0.12509000000E+03 0.  0.
         25    1    4    4    0    0 -0.15255720602E+02  0.76240331805E+02 -0.85321944456E+02  0.17021359379E+03  0.12509000000E+03 0.  0.
<mgrwt>
<rscale>  2 0.45849378E+03</rscale>
<asrwt>0</asrwt>
<pdfrwt beam="1">  1       21 0.24863073E-01 0.45849378E+03</pdfrwt>
<pdfrwt beam="2">  1       21 0.45712427E-01 0.45849378E+03</pdfrwt>
<totfact> 0.64888321E+04</totfact>
</mgrwt>
</event>
<event>
 7    0  0.4712189E-002  0.4491053E+03  0.7546771E-02  0.1027989E+00
         21   -1    0    0  502  501  0.00000000000E+00  0.00000000000E+00  0.12075229800E+03  0.12075229800E+03  0.00000000000E+00 0. -1.
         21   -1    0    0  501  502 -0.00000000000E+00 -0.00000000000E+00 -0.41758119022E+03  0.41758119022E+03  0.00000000000E+00 0. -1.
      99926    2    1    2    0    0  0.00000000000E+00  0.00000000000E+00 -0.29682889222E+03  0.53833348822E+03  0.44910528084E+03 0.  0.
      99925    2    3    3    0    0 -0.82823945797E+02 -0.45494117767E+02 -0.12617960760E+03  0.30660475199E+03  0.26297463722E+03 0.  0.
         25    1    4    4    0    0 -0.49679995727E+02 -0.61253544310E+02 -0.52876395228E+02  0.15704623503E+03  0.12509000000E+03 0.  0.
         25    1    3    3    0    0  0.82823945797E+02  0.45494117767E+02 -0.17064928462E+03  0.23172873622E+03  0.12509000000E+03 0.  0.
         25    1    4    4    0    0 -0.33143950071E+02  0.15759426543E+02 -0.73303212368E+02  0.14955851696E+03  0.12509000000E+03 0.  0.
<mgrwt>
<rscale>  2 0.44910528E+03</rscale>
<asrwt>0</asrwt>
<pdfrwt beam="1">  1       21 0.17757691E-01 0.44910528E+03</pdfrwt>
<pdfrwt beam="2">  1       21 0.61408997E-01 0.44910528E+03</pdfrwt>
<totfact> 0.65653768E+04</totfact>
</mgrwt>
</event>
<event>
 7    0  0.4712189E-002  0.4534151E+03  0.7546771E-02  0.1026708E+00
         21   -1    0    0  502  501  0.00000000000E+00  0.00000000000E+00  0.27274693667E+03  0.27274693667E+03  0.00000000000E+00 0. -1.
         21   -1    0    0  501  502 -0.00000000000E+00 -0.00000000000E+00 -0.18843959049E+03  0.18843959049E+03  0.00000000000E+00 0. -1.
      99926    2    1    2    0    0  0.17763568394E-14  0.00000000000E+00  0.84307346183E+02  0.46118652715E+03  0.45341513452E+03 0.  0.
      99925    2    3    3    0    0  0.13585318929E+02 -0.99042696566E+02  0.57981322537E+01  0.28284634266E+03  0.26452678236E+03 0.  0.
         25    1    3    3    0    0 -0.13585318929E+02  0.99042696566E+02  0.78509213929E+02  0.17834018449E+03  0.12509000000E+03 0.  0.
         25    1    4    4    0    0 -0.32086082943E+02 -0.68013252431E+02 -0.72614899854E+00  0.14595668747E+03  0.12509000000E+03 0.  0.
         25    1    4    4    0    0  0.45671401872E+02 -0.31029444135E+02  0.65242812523E+01  0.13688965519E+03  0.12509000000E+03 0.  0.
<mgrwt>
<rscale>  2 0.45341513E+03</rscale>
<asrwt>0</asrwt>
<pdfrwt beam="1">  1       21 0.40109844E-01 0.45341513E+03</pdfrwt>
<pdfrwt beam="2">  1       21 0.27711705E-01 0.45341513E+03</pdfrwt>
<totfact> 0.68958867E+04</totfact>
</mgrwt>
</event>
<event>
 6    0  0.4712189E-002  0.4533095E+03  0.7546771E-02  0.1026740E+00
         21   -1    0    0  502  501  0.00000000000E+00  0.00000000000E+00  0.10515576747E+04  0.10515576747E+04  0.00000000000E+00 0.  1.
         21   -1    0    0  501  502 -0.00000000000E+00 -0.00000000000E+00 -0.48853595422E+02  0.48853595422E+02  0.00000000000E+00 0.  1.
      99926    2    1    2    0    0  0.00000000000E+00  0.00000000000E+00  0.10027040793E+04  0.11004112702E+04  0.45330948900E+03 0.  0.
         25    1    3    3    0    0 -0.33908482572E+02  0.11137099222E+03  0.35030085329E+03  0.38975823149E+03  0.12509000000E+03 0.  0.
         25    1    3    3    0    0 -0.34961290885E+00 -0.42362935918E+02  0.25933784856E+03  0.29102984102E+03  0.12509000000E+03 0.  0.
         25    1    3    3    0    0  0.34258095481E+02 -0.69008056307E+02  0.39306537747E+03  0.41962319765E+03  0.12509000000E+03 0.  0.
<mgrwt>
<rscale>  2 0.45330949E+03</rscale>
<asrwt>0</asrwt>
<pdfrwt beam="1">  1       21 0.15464082E+00 0.45330949E+03</pdfrwt>
<pdfrwt beam="2">  1       21 0.71843529E-02 0.45330949E+03</pdfrwt>
<totfact> 0.35951755E+04</totfact>
</mgrwt>
</event>
<event>
 7    0  0.4712189E-002  0.4480425E+03  0.7546771E-02  0.1028307E+00
         21   -1    0    0  502  501  0.00000000000E+00  0.00000000000E+00  0.27567639189E+03  0.27567639189E+03  0.00000000000E+00 0. -1.
         21   -1    0    0  501  502 -0.00000000000E+00 -0.00000000000E+00 -0.18204500644E+03  0.18204500644E+03  0.00000000000E+00 0. -1.
      99926    2    1    2    0    0  0.35527136788E-14  0.44408920985E-14  0.93631385447E+02  0.45772139833E+03  0.44804245574E+03 0.  0.
      99925    2    3    3    0    0  0.18114466799E+02 -0.72610658088E+01 -0.47735863914E+02  0.26795031445E+03  0.26294068024E+03 0.  0.
         25    1    4    4    0    0  0.29145194500E+01  0.35450890281E+02 -0.14848795630E+02  0.13089405975E+03  0.12509000000E+03 0.  0.
         25    1    3    3    0    0 -0.18114466799E+02  0.72610658088E+01  0.14136724936E+03  0.18977108388E+03  0.12509000000E+03 0.  0.
         25    1    4    4    0    0  0.15199947349E+02 -0.42711956090E+02 -0.32887068284E+02  0.13705625470E+03  0.12509000000E+03 0.  0.
<mgrwt>
<rscale>  2 0.44804246E+03</rscale>
<asrwt>0</asrwt>
<pdfrwt beam="1">  1       21 0.40540646E-01 0.44804246E+03</pdfrwt>
<pdfrwt beam="2">  1       21 0.26771324E-01 0.44804246E+03</pdfrwt>
<totfact> 0.72267149E+04</totfact>
</mgrwt>
</event>
<event>
 7    0  0.4712189E-002  0.4227394E+03  0.7546771E-02  0.1036178E+00
         21   -1    0    0  502  501  0.00000000000E+00  0.00000000000E+00  0.91552346095E+02  0.91552346095E+02  0.00000000000E+00 0.  1.
         21   -1    0    0  501  502 -0.00000000000E+00 -0.00000000000E+00 -0.48799567915E+03  0.48799567915E+03  0.00000000000E+00 0.  1.
      99926    2    1    2    0    0  0.00000000000E+00  0.00000000000E+00 -0.39644333305E+03  0.57954802524E+03  0.42273939637E+03 0.  0.
      99925    2    3    3    0    0 -0.36115221587E+02  0.70498690981E+02 -0.24516321336E+03  0.36787006849E+03  0.26258143774E+03 0.  0.
         25    1    4    4    0    0 -0.57823667689E+02  0.30673974250E+02 -0.12354284127E+03  0.18760280108E+03  0.12509000000E+03 0.  0.
         25    1    4    4    0    0  0.21708446101E+02  0.39824716730E+02 -0.12162037208E+03  0.18026726741E+03  0.12509000000E+03 0.  0.
         25    1    3    3    0    0  0.36115221587E+02 -0.70498690981E+02 -0.15128011970E+03  0.21167795675E+03  0.12509000000E+03 0.  0.
<mgrwt>
<rscale>  2 0.42273940E+03</rscale>
<asrwt>0</asrwt>
<pdfrwt beam="1">  1       21 0.13463580E-01 0.42273940E+03</pdfrwt>
<pdfrwt beam="2">  1       21 0.71764070E-01 0.42273940E+03</pdfrwt>
<totfact> 0.78030652E+04</totfact>
</mgrwt>
</event>
<event>
 7    0  0.4712189E-002  0.4466466E+03  0.7546771E-02  0.1028727E+00
         21   -1    0    0  502  501  0.00000000000E+00  0.00000000000E+00  0.15312685978E+03  0.15312685978E+03  0.00000000000E+00 0.  1.
         21   -1    0    0  501  502 -0.00000000000E+00 -0.00000000000E+00 -0.32569924834E+03  0.32569924834E+03  0.00000000000E+00 0.  1.
      99926    2    1    2    0    0  0.00000000000E+00 -0.35527136788E-14 -0.17257238856E+03  0.47882610812E+03  0.44664663048E+03 0.  0.
      99925    2    3    3    0    0 -0.10010806788E+03  0.16516356433E+02 -0.79473551951E+02  0.29279031381E+03  0.26289866321E+03 0.  0.
         25    1    4    4    0    0 -0.61214735398E+02 -0.17445351354E+02 -0.10098359539E+02  0.14071627155E+03  0.12509000000E+03 0.  0.
         25    1    4    4    0    0 -0.38893332481E+02  0.33961707787E+02 -0.69375192412E+02  0.15207404226E+03  0.12509000000E+03 0.  0.
         25    1    3    3    0    0  0.10010806788E+03 -0.16516356433E+02 -0.93098836613E+02  0.18603579431E+03  0.12509000000E+03 0.  0.
<mgrwt>
<rscale>  2 0.44664663E+03</rscale>
<asrwt>0</asrwt>
<pdfrwt beam="1">  1       21 0.22518656E-01 0.44664663E+03</pdfrwt>
<pdfrwt beam="2">  1       21 0.47896948E-01 0.44664663E+03</pdfrwt>
<totfact> 0.71404302E+04</totfact>
</mgrwt>
</event>
<event>
 7    0  0.4712189E-002  0.4627041E+03  0.7546771E-02  0.1024000E+00
         21   -1    0    0  502  501  0.00000000000E+00  0.00000000000E+00  0.12909023306E+03  0.12909023306E+03  0.00000000000E+00 0. -1.
         21   -1    0    0  501  502 -0.00000000000E+00 -0.00000000000E+00 -0.41462287953E+03  0.41462287953E+03  0.00000000000E+00 0. -1.
      99926    2    1    2    0    0 -0.17763568394E-14 -0.35527136788E-14 -0.28553264647E+03  0.54371311258E+03  0.46270407022E+03 0.  0.
      99925    2    3    3    0    0  0.47350994137E+01  0.28673551822E+02 -0.41230160859E+02  0.26771346346E+03  0.26291819757E+03 0.  0.
         25    1    4    4    0    0  0.93556619885E+01  0.38418518475E+02  0.11165823103E+02  0.13166508527E+03  0.12509000000E+03 0.  0.
         25    1    3    3    0    0 -0.47350994137E+01 -0.28673551822E+02 -0.24430248561E+03  0.27599964912E+03  0.12509000000E+03 0.  0.
         25    1    4    4    0    0 -0.46205625748E+01 -0.97449666530E+01 -0.52395983962E+02  0.13604837819E+03  0.12509000000E+03 0.  0.
<mgrwt>
<rscale>  2 0.46270407E+03</rscale>
<asrwt>0</asrwt>
<pdfrwt beam="1">  1       21 0.18983858E-01 0.46270407E+03</pdfrwt>
<pdfrwt beam="2">  1       21 0.60973953E-01 0.46270407E+03</pdfrwt>
<totfact> 0.58625921E+04</totfact>
</mgrwt>
</event>
<event>
 7    0  0.4712189E-002  0.4601358E+03  0.7546771E-02  0.1024742E+00
         21   -1    0    0  502  501  0.00000000000E+00  0.00000000000E+00  0.28712952596E+03  0.28712952596E+03  0.00000000000E+00 0. -1.
         21   -1    0    0  501  502 -0.00000000000E+00 -0.00000000000E+00 -0.18434623820E+03  0.18434623820E+03  0.00000000000E+00 0. -1.
      99926    2    1    2    0    0 -0.35527136788E-14  0.00000000000E+00  0.10278328776E+03  0.47147576416E+03  0.46013584075E+03 0.  0.
      99925    2    3    3    0    0  0.31767758993E+02 -0.11250654734E+03  0.48501937231E+02  0.29186260533E+03  0.26299130930E+03 0.  0.
         25    1    4    4    0    0  0.53951721721E+02 -0.57894855016E+02  0.10190531960E+02  0.14837101319E+03  0.12509000000E+03 0.  0.
         25    1    4    4    0    0 -0.22183962729E+02 -0.54611692328E+02  0.38311405272E+02  0.14349159214E+03  0.12509000000E+03 0.  0.
         25    1    3    3    0    0 -0.31767758993E+02  0.11250654734E+03  0.54281350533E+02  0.17961315882E+03  0.12509000000E+03 0.  0.
<mgrwt>
<rscale>  2 0.46013584E+03</rscale>
<asrwt>0</asrwt>
<pdfrwt beam="1">  1       21 0.42224930E-01 0.46013584E+03</pdfrwt>
<pdfrwt beam="2">  1       21 0.27109741E-01 0.46013584E+03</pdfrwt>
<totfact> 0.64652078E+04</totfact>
</mgrwt>
</event>
<event>
 7    0  0.4712189E-002  0.4534436E+03  0.7546771E-02  0.1026700E+00
         21   -1    0    0  502  501  0.00000000000E+00  0.00000000000E+00  0.26275547632E+03  0.26275547632E+03  0.00000000000E+00 0.  1.
         21   -1    0    0  501  502 -0.00000000000E+00 -0.00000000000E+00 -0.19562965830E+03  0.19562965830E+03  0.00000000000E+00 0.  1.
      99926    2    1    2    0    0  0.00000000000E+00  0.17763568394E-14  0.67125818013E+02  0.45838513462E+03  0.45344355349E+03 0.  0.
      99925    2    3    3    0    0  0.68822430445E+01  0.57149206103E+01  0.15487542897E+03  0.30532459788E+03  0.26297658828E+03 0.  0.
         25    1    4    4    0    0  0.32415000460E+02  0.28692420722E+02  0.91769531413E+02  0.16106875010E+03  0.12509000000E+03 0.  0.
         25    1    4    4    0    0 -0.25532757416E+02 -0.22977500112E+02  0.63105897553E+02  0.14425584778E+03  0.12509000000E+03 0.  0.
         25    1    3    3    0    0 -0.68822430445E+01 -0.57149206103E+01 -0.87749610953E+02  0.15306053675E+03  0.12509000000E+03 0.  0.
<mgrwt>
<rscale>  2 0.45344355E+03</rscale>
<asrwt>0</asrwt>
<pdfrwt beam="1">  1       21 0.38640511E-01 0.45344355E+03</pdfrwt>
<pdfrwt beam="2">  1       21 0.28769067E-01 0.45344355E+03</pdfrwt>
<totfact> 0.69152776E+04</totfact>
</mgrwt>
</event>
<event>
 7    0  0.4712189E-002  0.4582886E+03  0.7546771E-02  0.1025279E+00
         21   -1    0    0  502  501  0.00000000000E+00  0.00000000000E+00  0.44909170956E+03  0.44909170956E+03  0.00000000000E+00 0. -1.
         21   -1    0    0  501  502 -0.00000000000E+00 -0.00000000000E+00 -0.11691846447E+03  0.11691846447E+03  0.00000000000E+00 0. -1.
      99926    2    1    2    0    0  0.71054273576E-14  0.00000000000E+00  0.33217324509E+03  0.56601017402E+03  0.45828861250E+03 0.  0.
      99925    2    3    3    0    0  0.61175385928E+02 -0.71163655166E+02  0.12367961775E+03  0.30538823634E+03  0.26298029088E+03 0.  0.
         25    1    3    3    0    0 -0.61175385928E+02  0.71163655166E+02  0.20849362734E+03  0.26062193768E+03  0.12509000000E+03 0.  0.
         25    1    4    4    0    0  0.20910457217E+01 -0.58216085995E+02  0.42125697093E+02  0.14427601185E+03  0.12509000000E+03 0.  0.
         25    1    4    4    0    0  0.59084340206E+02 -0.12947569170E+02  0.81553920661E+02  0.16111222449E+03  0.12509000000E+03 0.  0.
<mgrwt>
<rscale>  2 0.45828861E+03</rscale>
<asrwt>0</asrwt>
<pdfrwt beam="1">  1       21 0.66042898E-01 0.45828861E+03</pdfrwt>
<pdfrwt beam="2">  1       21 0.17193892E-01 0.45828861E+03</pdfrwt>
<totfact> 0.59264287E+04</totfact>
</mgrwt>
</event>
<event>
 7    0  0.4712189E-002  0.4527777E+03  0.7546771E-02  0.1026897E+00
         21   -1    0    0  502  501  0.00000000000E+00  0.00000000000E+00  0.19325023452E+03  0.19325023452E+03  0.00000000000E+00 0.  1.
         21   -1    0    0  501  502 -0.00000000000E+00 -0.00000000000E+00 -0.26521009437E+03  0.26521009437E+03  0.00000000000E+00 0.  1.
      99926    2    1    2    0    0  0.00000000000E+00  0.00000000000E+00 -0.71959859853E+02  0.45846032890E+03  0.45277770676E+03 0.  0.
      99925    2    3    3    0    0 -0.80095915269E+02 -0.68428127248E+02 -0.12585090203E+02  0.28447574449E+03  0.26395132215E+03 0.  0.
         25    1    3    3    0    0  0.80095915269E+02  0.68428127248E+02 -0.59374769650E+02  0.17398458441E+03  0.12509000000E+03 0.  0.
         25    1    4    4    0    0 -0.29194159583E+02 -0.70240424063E+02  0.13122271527E+02  0.14698883711E+03  0.12509000000E+03 0.  0.
         25    1    4    4    0    0 -0.50901755686E+02  0.18122968144E+01 -0.25707361730E+02  0.13748690737E+03  0.12509000000E+03 0.  0.
<mgrwt>
<rscale>  2 0.45277771E+03</rscale>
<asrwt>0</asrwt>
<pdfrwt beam="1">  1       21 0.28419152E-01 0.45277771E+03</pdfrwt>
<pdfrwt beam="2">  1       21 0.39001484E-01 0.45277771E+03</pdfrwt>
<totfact> 0.69516706E+04</totfact>
</mgrwt>
</event>
<event>
 7    0  0.4712189E-002  0.4415567E+03  0.7546771E-02  0.1030270E+00
         21   -1    0    0  502  501  0.00000000000E+00  0.00000000000E+00  0.13062106500E+04  0.13062106500E+04  0.00000000000E+00 0.  1.
         21   -1    0    0  501  502 -0.00000000000E+00 -0.00000000000E+00 -0.37316396197E+02  0.37316396197E+02  0.00000000000E+00 0.  1.
      99926    2    1    2    0    0  0.35527136788E-14  0.00000000000E+00  0.12688942538E+04  0.13435270462E+04  0.44155667420E+03 0.  0.
      99925    2    3    3    0    0  0.26768980713E+02  0.91889744378E+02  0.89444431908E+03  0.93729981279E+03  0.26332488615E+03 0.  0.
         25    1    4    4    0    0  0.29725328958E+02  0.85828229428E+02  0.47173215975E+03  0.49641597355E+03  0.12509000000E+03 0.  0.
         25    1    3    3    0    0 -0.26768980713E+02 -0.91889744378E+02  0.37444993471E+03  0.40622723340E+03  0.12509000000E+03 0.  0.
         25    1    4    4    0    0 -0.29563482453E+01  0.60615149496E+01  0.42271215933E+03  0.44088383924E+03  0.12509000000E+03 0.  0.
<mgrwt>
<rscale>  2 0.44155667E+03</rscale>
<asrwt>0</asrwt>
<pdfrwt beam="1">  1       21 0.19208977E+00 0.44155667E+03</pdfrwt>
<pdfrwt beam="2">  1       21 0.54877062E-02 0.44155667E+03</pdfrwt>
<totfact> 0.30990851E+04</totfact>
</mgrwt>
</event>
<event>
 7    0  0.4712189E-002  0.4533585E+03  0.7546771E-02  0.1026725E+00
         21   -1    0    0  502  501  0.00000000000E+00  0.00000000000E+00  0.41922250118E+03  0.41922250118E+03  0.00000000000E+00 0.  1.
         21   -1    0    0  501  502 -0.00000000000E+00 -0.00000000000E+00 -0.12256850912E+03  0.12256850912E+03  0.00000000000E+00 0.  1.
      99926    2    1    2    0    0  0.28421709430E-13 -0.35527136788E-14  0.29665399206E+03  0.54179101030E+03  0.45335847609E+03 0.  0.
      99925    2    3    3    0    0  0.10492509894E+03 -0.14466582575E+02  0.14273970235E+03  0.31694511846E+03  0.26241384699E+03 0.  0.
         25    1    3    3    0    0 -0.10492509894E+03  0.14466582575E+02  0.15391428972E+03  0.22484589184E+03  0.12509000000E+03 0.  0.
         25    1    4    4    0    0  0.75505286568E+02 -0.40560019479E+02  0.82787082023E+02  0.17276392138E+03  0.12509000000E+03 0.  0.
         25    1    4    4    0    0  0.29419812373E+02  0.26093436904E+02  0.59952620323E+02  0.14418119709E+03  0.12509000000E+03 0.  0.
<mgrwt>
<rscale>  2 0.45335848E+03</rscale>
<asrwt>0</asrwt>
<pdfrwt beam="1">  1       21 0.61650367E-01 0.45335848E+03</pdfrwt>
<pdfrwt beam="2">  1       21 0.18024781E-01 0.45335848E+03</pdfrwt>
<totfact> 0.63229625E+04</totfact>
</mgrwt>
</event>
<event>
 7    0  0.4712189E-002  0.4651998E+03  0.7546771E-02  0.1023284E+00
         21   -1    0    0  502  501  0.00000000000E+00  0.00000000000E+00  0.12938036138E+03  0.12938036138E+03  0.00000000000E+00 0. -1.
         21   -1    0    0  501  502 -0.00000000000E+00 -0.00000000000E+00 -0.41816789392E+03  0.41816789392E+03  0.00000000000E+00 0. -1.
      99926    2    1    2    0    0  0.00000000000E+00  0.00000000000E+00 -0.28878753255E+03  0.54754825530E+03  0.46519979894E+03 0.  0.
      99925    2    3    3    0    0 -0.14178979252E+02  0.44282184259E+02 -0.46123058566E+02  0.27060871257E+03  0.26256386555E+03 0.  0.
         25    1    4    4    0    0  0.86160746222E+01  0.55153672700E+02 -0.40619287051E+02  0.14287616643E+03  0.12509000000E+03 0.  0.
         25    1    3    3    0    0  0.14178979252E+02 -0.44282184259E+02 -0.24266447398E+03  0.27693954273E+03  0.12509000000E+03 0.  0.
         25    1    4    4    0    0 -0.22795053874E+02 -0.10871488440E+02 -0.55037715145E+01  0.12773254614E+03  0.12509000000E+03 0.  0.
<mgrwt>
<rscale>  2 0.46519980E+03</rscale>
<asrwt>0</asrwt>
<pdfrwt beam="1">  1       21 0.19026524E-01 0.46519980E+03</pdfrwt>
<pdfrwt beam="2">  1       21 0.61495278E-01 0.46519980E+03</pdfrwt>
<totfact> 0.57263904E+04</totfact>
</mgrwt>
</event>
<event>
 7    0  0.4712189E-002  0.4520759E+03  0.7546771E-02  0.1027105E+00
         21   -1    0    0  502  501  0.00000000000E+00  0.00000000000E+00  0.27904641561E+03  0.27904641561E+03  0.00000000000E+00 0.  1.
         21   -1    0    0  501  502 -0.00000000000E+00 -0.00000000000E+00 -0.18309911973E+03  0.18309911973E+03  0.00000000000E+00 0.  1.
      99926    2    1    2    0    0  0.71054273576E-14  0.00000000000E+00  0.95947295873E+02  0.46214553534E+03  0.45207589213E+03 0.  0.
      99925    2    3    3    0    0  0.62049196785E+02 -0.84979572152E+02  0.95386707861E+02  0.29868467500E+03  0.26275897803E+03 0.  0.
         25    1    4    4    0    0  0.38687865024E+02 -0.82332658885E+02  0.39238389011E+02  0.15956997491E+03  0.12509000000E+03 0.  0.
         25    1    3    3    0    0 -0.62049196785E+02  0.84979572152E+02  0.56058801253E+00  0.16346086034E+03  0.12509000000E+03 0.  0.
         25    1    4    4    0    0  0.23361331761E+02 -0.26469132673E+01  0.56148318850E+02  0.13911470009E+03  0.12509000000E+03 0.  0.
<mgrwt>
<rscale>  2 0.45207589E+03</rscale>
<asrwt>0</asrwt>
<pdfrwt beam="1">  1       21 0.41036238E-01 0.45207589E+03</pdfrwt>
<pdfrwt beam="2">  1       21 0.26926341E-01 0.45207589E+03</pdfrwt>
<totfact> 0.69625975E+04</totfact>
</mgrwt>
</event>
<event>
 7    0  0.4712189E-002  0.4595463E+03  0.7546771E-02  0.1024913E+00
         21   -1    0    0  502  501  0.00000000000E+00  0.00000000000E+00  0.49131221610E+03  0.49131221610E+03  0.00000000000E+00 0. -1.
         21   -1    0    0  501  502 -0.00000000000E+00 -0.00000000000E+00 -0.10745856126E+03  0.10745856126E+03  0.00000000000E+00 0. -1.
      99926    2    1    2    0    0 -0.14210854715E-13  0.44408920985E-15  0.38385365484E+03  0.59877077737E+03  0.45954631485E+03 0.  0.
      99925    2    3    3    0    0  0.67057662475E+02  0.32647471657E+01  0.36620684377E+03  0.45571027719E+03  0.26278701573E+03 0.  0.
         25    1    4    4    0    0  0.17359761949E+02 -0.15307544833E+02  0.12206124197E+03  0.17630126816E+03  0.12509000000E+03 0.  0.
         25    1    4    4    0    0  0.49697900525E+02  0.18572291999E+02  0.24414560180E+03  0.27940900903E+03  0.12509000000E+03 0.  0.
         25    1    3    3    0    0 -0.67057662475E+02 -0.32647471657E+01  0.17646811066E+02  0.14306050018E+03  0.12509000000E+03 0.  0.
<mgrwt>
<rscale>  2 0.45954631E+03</rscale>
<asrwt>0</asrwt>
<pdfrwt beam="1">  1       21 0.72251796E-01 0.45954631E+03</pdfrwt>
<pdfrwt beam="2">  1       21 0.15802730E-01 0.45954631E+03</pdfrwt>
<totfact> 0.56689872E+04</totfact>
</mgrwt>
</event>
<event>
 7    0  0.4712189E-002  0.4571272E+03  0.7546771E-02  0.1025618E+00
         21   -1    0    0  502  501  0.00000000000E+00  0.00000000000E+00  0.26993391633E+03  0.26993391633E+03  0.00000000000E+00 0. -1.
         21   -1    0    0  501  502 -0.00000000000E+00 -0.00000000000E+00 -0.19353375421E+03  0.19353375421E+03  0.00000000000E+00 0. -1.
      99926    2    1    2    0    0  0.00000000000E+00  0.14210854715E-13  0.76400162119E+02  0.46346767054E+03  0.45712722175E+03 0.  0.
      99925    2    3    3    0    0  0.37972765448E+02  0.73097448956E+02 -0.33564732997E+02  0.27765875198E+03  0.26302589852E+03 0.  0.
         25    1    4    4    0    0  0.29001152952E+02  0.77558518862E+02 -0.22336487220E+02  0.15166679756E+03  0.12509000000E+03 0.  0.
         25    1    4    4    0    0  0.89716124962E+01 -0.44610699060E+01 -0.11228245777E+02  0.12599195442E+03  0.12509000000E+03 0.  0.
         25    1    3    3    0    0 -0.37972765448E+02 -0.73097448956E+02  0.10996489512E+03  0.18580891856E+03  0.12509000000E+03 0.  0.
<mgrwt>
<rscale>  2 0.45712722E+03</rscale>
<asrwt>0</asrwt>
<pdfrwt beam="1">  1       21 0.39696164E-01 0.45712722E+03</pdfrwt>
<pdfrwt beam="2">  1       21 0.28460846E-01 0.45712722E+03</pdfrwt>
<totfact> 0.66787438E+04</totfact>
</mgrwt>
</event>
<event>
 7    0  0.4712189E-002  0.4610414E+03  0.7546771E-02  0.1024480E+00
         21   -1    0    0  502  501  0.00000000000E+00  0.00000000000E+00  0.59020333471E+03  0.59020333471E+03  0.00000000000E+00 0.  1.
         21   -1    0    0  501  502 -0.00000000000E+00 -0.00000000000E+00 -0.90036424514E+02  0.90036424514E+02  0.00000000000E+00 0.  1.
      99926    2    1    2    0    0  0.00000000000E+00  0.00000000000E+00  0.50016691020E+03  0.68023975923E+03  0.46104142111E+03 0.  0.
      99925    2    3    3    0    0  0.96191676848E+01 -0.19810255850E+02  0.48526543952E+03  0.55235490261E+03  0.26292283473E+03 0.  0.
         25    1    4    4    0    0  0.75455988296E+01 -0.48045481861E+02  0.27626425512E+03  0.30713962809E+03  0.12509000000E+03 0.  0.
         25    1    3    3    0    0 -0.96191676848E+01  0.19810255850E+02  0.14901470682E+02  0.12788485662E+03  0.12509000000E+03 0.  0.
         25    1    4    4    0    0  0.20735688552E+01  0.28235226012E+02  0.20900118440E+03  0.24521527452E+03  0.12509000000E+03 0.  0.
<mgrwt>
<rscale>  2 0.46104142E+03</rscale>
<asrwt>0</asrwt>
<pdfrwt beam="1">  1       21 0.86794606E-01 0.46104142E+03</pdfrwt>
<pdfrwt beam="2">  1       21 0.13240651E-01 0.46104142E+03</pdfrwt>
<totfact> 0.51493959E+04</totfact>
</mgrwt>
</event>
<event>
 7    0  0.4712189E-002  0.4535903E+03  0.7546771E-02  0.1026657E+00
         21   -1    0    0  502  501  0.00000000000E+00  0.00000000000E+00  0.14649216577E+03  0.14649216577E+03  0.00000000000E+00 0.  1.
         21   -1    0    0  501  502 -0.00000000000E+00 -0.00000000000E+00 -0.35111808046E+03  0.35111808046E+03  0.00000000000E+00 0.  1.
      99926    2    1    2    0    0  0.00000000000E+00  0.00000000000E+00 -0.20462591469E+03  0.49761024624E+03  0.45359033521E+03 0.  0.
      99925    2    3    3    0    0  0.36704129230E+02  0.88079083743E+02 -0.64941679330E+02  0.28721939139E+03  0.26300653790E+03 0.  0.
         25    1    4    4    0    0  0.21080434713E+02  0.17878371230E+01 -0.24820051193E+02  0.12927151322E+03  0.12509000000E+03 0.  0.
         25    1    3    3    0    0 -0.36704129230E+02 -0.88079083743E+02 -0.13968423536E+03  0.21039085485E+03  0.12509000000E+03 0.  0.
         25    1    4    4    0    0  0.15623694517E+02  0.86291246620E+02 -0.40121628137E+02  0.15794787817E+03  0.12509000000E+03 0.  0.
<mgrwt>
<rscale>  2 0.45359034E+03</rscale>
<asrwt>0</asrwt>
<pdfrwt beam="1">  1       21 0.21542966E-01 0.45359034E+03</pdfrwt>
<pdfrwt beam="2">  1       21 0.51635011E-01 0.45359034E+03</pdfrwt>
<totfact> 0.66176310E+04</totfact>
</mgrwt>
</event>
<event>
 7    0  0.4712189E-002  0.4350729E+03  0.7546771E-02  0.1032269E+00
         21   -1    0    0  502  501  0.00000000000E+00  0.00000000000E+00  0.74267021134E+02  0.74267021134E+02  0.00000000000E+00 0. -1.
         21   -1    0    0  501  502 -0.00000000000E+00 -0.00000000000E+00 -0.63718883398E+03  0.63718883398E+03  0.00000000000E+00 0. -1.
      99926    2    1    2    0    0  0.00000000000E+00  0.00000000000E+00 -0.56292181285E+03  0.71145585512E+03  0.43507294377E+03 0.  0.
      99925    2    3    3    0    0 -0.52107860695E+02  0.77038756605E+02 -0.34821856523E+03  0.44613493283E+03  0.26292586399E+03 0.  0.
         25    1    4    4    0    0 -0.26539795418E+02  0.56809789356E+02 -0.23879672948E+03  0.27677264861E+03  0.12509000000E+03 0.  0.
         25    1    3    3    0    0  0.52107860695E+02 -0.77038756605E+02 -0.21470324761E+03  0.26532092228E+03  0.12509000000E+03 0.  0.
         25    1    4    4    0    0 -0.25568065277E+02  0.20228967249E+02 -0.10942183576E+03  0.16936228423E+03  0.12509000000E+03 0.  0.
<mgrwt>
<rscale>  2 0.43507294E+03</rscale>
<asrwt>0</asrwt>
<pdfrwt beam="1">  1       21 0.10921620E-01 0.43507294E+03</pdfrwt>
<pdfrwt beam="2">  1       21 0.93704243E-01 0.43507294E+03</pdfrwt>
<totfact> 0.61352691E+04</totfact>
</mgrwt>
</event>
<event>
 7    0  0.4712189E-002  0.4600544E+03  0.7546771E-02  0.1024765E+00
         21   -1    0    0  502  501  0.00000000000E+00  0.00000000000E+00  0.36205715165E+03  0.36205715165E+03  0.00000000000E+00 0.  1.
         21   -1    0    0  501  502 -0.00000000000E+00 -0.00000000000E+00 -0.14614410097E+03  0.14614410097E+03  0.00000000000E+00 0.  1.
      99926    2    1    2    0    0  0.00000000000E+00  0.22204460493E-14  0.21591305068E+03  0.50820125263E+03  0.46005441821E+03 0.  0.
      99925    2    3    3    0    0 -0.78847128839E+02  0.35237439915E+01  0.39015088210E+02  0.27761572896E+03  0.26328507242E+03 0.  0.
         25    1    4    4    0    0 -0.37147676479E+02  0.41848422592E+02  0.27947779207E+02  0.13985645071E+03  0.12509000000E+03 0.  0.
         25    1    4    4    0    0 -0.41699452360E+02 -0.38324678600E+02  0.11067309003E+02  0.13775927826E+03  0.12509000000E+03 0.  0.
         25    1    3    3    0    0  0.78847128839E+02 -0.35237439915E+01  0.17689796247E+03  0.23058552367E+03  0.12509000000E+03 0.  0.
<mgrwt>
<rscale>  2 0.46005442E+03</rscale>
<asrwt>0</asrwt>
<pdfrwt beam="1">  1       21 0.53243699E-01 0.46005442E+03</pdfrwt>
<pdfrwt beam="2">  1       21 0.21491780E-01 0.46005442E+03</pdfrwt>
<totfact> 0.62166566E+04</totfact>
</mgrwt>
</event>
<event>
 7    0  0.4712189E-002  0.4541827E+03  0.7546771E-02  0.1026482E+00
         21   -1    0    0  502  501  0.00000000000E+00  0.00000000000E+00  0.79109470231E+02  0.79109470231E+02  0.00000000000E+00 0.  1.
         21   -1    0    0  501  502 -0.00000000000E+00 -0.00000000000E+00 -0.65188749033E+03  0.65188749033E+03  0.00000000000E+00 0.  1.
      99926    2    1    2    0    0  0.00000000000E+00  0.00000000000E+00 -0.57277802010E+03  0.73099696056E+03  0.45418266814E+03 0.  0.
      99925    2    3    3    0    0 -0.84611723169E+02 -0.67036977985E+02 -0.30967905783E+03  0.42031758860E+03  0.26289286090E+03 0.  0.
         25    1    3    3    0    0  0.84611723169E+02  0.67036977985E+02 -0.26309896226E+03  0.31067937195E+03  0.12509000000E+03 0.  0.
         25    1    4    4    0    0 -0.14290480609E+01 -0.35118593663E+02 -0.15649911108E+03  0.20340805704E+03  0.12509000000E+03 0.  0.
         25    1    4    4    0    0 -0.83182675108E+02 -0.31918384322E+02 -0.15317994675E+03  0.21690953156E+03  0.12509000000E+03 0.  0.
<mgrwt>
<rscale>  2 0.45418267E+03</rscale>
<asrwt>0</asrwt>
<pdfrwt beam="1">  1       21 0.11633746E-01 0.45418267E+03</pdfrwt>
<pdfrwt beam="2">  1       21 0.95865806E-01 0.45418267E+03</pdfrwt>
<totfact> 0.51582880E+04</totfact>
</mgrwt>
</event>
<event>
 7    0  0.4712189E-002  0.3935502E+03  0.7546771E-02  0.1046036E+00
         21   -1    0    0  502  501  0.00000000000E+00  0.00000000000E+00  0.22111216396E+03  0.22111216396E+03  0.00000000000E+00 0. -1.
         21   -1    0    0  501  502 -0.00000000000E+00 -0.00000000000E+00 -0.17511676151E+03  0.17511676151E+03  0.00000000000E+00 0. -1.
      99926    2    1    2    0    0 -0.35527136788E-14  0.00000000000E+00  0.45995402447E+02  0.39622892547E+03  0.39355023102E+03 0.  0.
      99925    2    3    3    0    0  0.27637629690E+02  0.56035786270E+01  0.42904232783E+02  0.26796239789E+03  0.26299778482E+03 0.  0.
         25    1    4    4    0    0 -0.90396360630E+01  0.36175294469E+02  0.17822751671E+02  0.13174037167E+03  0.12509000000E+03 0.  0.
         25    1    3    3    0    0 -0.27637629690E+02 -0.56035786270E+01  0.30911696647E+01  0.12826652758E+03  0.12509000000E+03 0.  0.
         25    1    4    4    0    0  0.36677265753E+02 -0.30571715842E+02  0.25081481112E+02  0.13622202622E+03  0.12509000000E+03 0.  0.
<mgrwt>
<rscale>  2 0.39355023E+03</rscale>
<asrwt>0</asrwt>
<pdfrwt beam="1">  1       21 0.32516495E-01 0.39355023E+03</pdfrwt>
<pdfrwt beam="2">  1       21 0.25752465E-01 0.39355023E+03</pdfrwt>
<totfact> 0.12333276E+05</totfact>
</mgrwt>
</event>
<event>
 7    0  0.4712189E-002  0.4485959E+03  0.7546771E-02  0.1028142E+00
         21   -1    0    0  502  501  0.00000000000E+00  0.00000000000E+00  0.33303275447E+03  0.33303275447E+03  0.00000000000E+00 0.  1.
         21   -1    0    0  501  502 -0.00000000000E+00 -0.00000000000E+00 -0.15106490276E+03  0.15106490276E+03  0.00000000000E+00 0.  1.
      99926    2    1    2    0    0  0.00000000000E+00  0.00000000000E+00  0.18196785170E+03  0.48409765723E+03  0.44859585674E+03 0.  0.
      99925    2    3    3    0    0 -0.61848096059E+02 -0.90362935355E+01  0.22086557654E+02  0.27169149471E+03  0.26347981077E+03 0.  0.
         25    1    4    4    0    0 -0.11854826567E+02  0.16890642673E+02 -0.19663624904E+02  0.12829651970E+03  0.12509000000E+03 0.  0.
         25    1    4    4    0    0 -0.49993269492E+02 -0.25926936208E+02  0.41750182557E+02  0.14339497501E+03  0.12509000000E+03 0.  0.
         25    1    3    3    0    0  0.61848096059E+02  0.90362935355E+01  0.15988129405E+03  0.21240616251E+03  0.12509000000E+03 0.  0.
<mgrwt>
<rscale>  2 0.44859586E+03</rscale>
<asrwt>0</asrwt>
<pdfrwt beam="1">  1       21 0.48975405E-01 0.44859586E+03</pdfrwt>
<pdfrwt beam="2">  1       21 0.22215427E-01 0.44859586E+03</pdfrwt>
<totfact> 0.69889151E+04</totfact>
</mgrwt>
</event>
<event>
 7    0  0.4712189E-002  0.4331358E+03  0.7546771E-02  0.1032874E+00
         21   -1    0    0  502  501  0.00000000000E+00  0.00000000000E+00  0.32574034147E+03  0.32574034147E+03  0.00000000000E+00 0. -1.
         21   -1    0    0  501  502 -0.00000000000E+00 -0.00000000000E+00 -0.14398480240E+03  0.14398480240E+03  0.00000000000E+00 0. -1.
      99926    2    1    2    0    0  0.00000000000E+00  0.35527136788E-14  0.18175553908E+03  0.46972514387E+03  0.43313581565E+03 0.  0.
      99925    2    3    3    0    0  0.81402588830E+02  0.21893361052E+02  0.15446284585E+03  0.31643424417E+03  0.26299459958E+03 0.  0.
         25    1    3    3    0    0 -0.81402588830E+02 -0.21893361052E+02  0.27292693227E+02  0.15329089970E+03  0.12509000000E+03 0.  0.
         25    1    4    4    0    0  0.28658700247E+02  0.49647902416E+02  0.75579992300E+02  0.15699069606E+03  0.12509000000E+03 0.  0.
         25    1    4    4    0    0  0.52743888583E+02 -0.27754541364E+02  0.78882853550E+02  0.15944354811E+03  0.12509000000E+03 0.  0.
<mgrwt>
<rscale>  2 0.43313582E+03</rscale>
<asrwt>0</asrwt>
<pdfrwt beam="1">  1       21 0.47902991E-01 0.43313582E+03</pdfrwt>
<pdfrwt beam="2">  1       21 0.21174236E-01 0.43313582E+03</pdfrwt>
<totfact> 0.80554299E+04</totfact>
</mgrwt>
</event>
<event>
 7    0  0.4712189E-002  0.4610912E+03  0.7546771E-02  0.1024465E+00
         21   -1    0    0  502  501  0.00000000000E+00  0.00000000000E+00  0.22243451534E+03  0.22243451534E+03  0.00000000000E+00 0.  1.
         21   -1    0    0  501  502 -0.00000000000E+00 -0.00000000000E+00 -0.23895245945E+03  0.23895245945E+03  0.00000000000E+00 0.  1.
      99926    2    1    2    0    0  0.00000000000E+00  0.00000000000E+00 -0.16517944114E+02  0.46138697480E+03  0.46109120360E+03 0.  0.
      99925    2    3    3    0    0 -0.76318752010E+02 -0.90754278157E+02 -0.25299986482E+01  0.28845906603E+03  0.26294741103E+03 0.  0.
         25    1    4    4    0    0 -0.16108514978E+02 -0.45271393525E+02 -0.35653267292E+02  0.13866379086E+03  0.12509000000E+03 0.  0.
         25    1    4    4    0    0 -0.60210237032E+02 -0.45482884632E+02  0.33123268644E+02  0.14979527517E+03  0.12509000000E+03 0.  0.
         25    1    3    3    0    0  0.76318752010E+02  0.90754278157E+02 -0.13987945465E+02  0.17292790877E+03  0.12509000000E+03 0.  0.
<mgrwt>
<rscale>  2 0.46109120E+03</rscale>
<asrwt>0</asrwt>
<pdfrwt beam="1">  1       21 0.32710958E-01 0.46109120E+03</pdfrwt>
<pdfrwt beam="2">  1       21 0.35140067E-01 0.46109120E+03</pdfrwt>
<totfact> 0.64869870E+04</totfact>
</mgrwt>
</event>
<event>
 7    0  0.4712189E-002  0.4579007E+03  0.7546771E-02  0.1025392E+00
         21   -1    0    0  502  501  0.00000000000E+00  0.00000000000E+00  0.10360423671E+04  0.10360423671E+04  0.00000000000E+00 0.  1.
         21   -1    0    0  501  502 -0.00000000000E+00 -0.00000000000E+00 -0.50594703584E+02  0.50594703584E+02  0.00000000000E+00 0.  1.
      99926    2    1    2    0    0 -0.17763568394E-14  0.00000000000E+00  0.98544766354E+03  0.10866370707E+04  0.45790067248E+03 0.  0.
      99925    2    3    3    0    0 -0.15524207160E+02 -0.12398954114E+02  0.88940849616E+03  0.92768498723E+03  0.26297761772E+03 0.  0.
         25    1    4    4    0    0 -0.39888597196E+02 -0.14528526638E+02  0.53456117098E+03  0.55064083747E+03  0.12509000000E+03 0.  0.
         25    1    4    4    0    0  0.24364390036E+02  0.21295725243E+01  0.35484732518E+03  0.37704414976E+03  0.12509000000E+03 0.  0.
         25    1    3    3    0    0  0.15524207160E+02  0.12398954114E+02  0.96039167387E+02  0.15895208348E+03  0.12509000000E+03 0.  0.
<mgrwt>
<rscale>  2 0.45790067E+03</rscale>
<asrwt>0</asrwt>
<pdfrwt beam="1">  1       21 0.15235916E+00 0.45790067E+03</pdfrwt>
<pdfrwt beam="2">  1       21 0.74403982E-02 0.45790067E+03</pdfrwt>
<totfact> 0.35158606E+04</totfact>
</mgrwt>
</event>
<event>
 7    0  0.4712189E-002  0.4599071E+03  0.7546771E-02  0.1024808E+00
         21   -1    0    0  502  501  0.00000000000E+00  0.00000000000E+00  0.19515024456E+03  0.19515024456E+03  0.00000000000E+00 0. -1.
         21   -1    0    0  501  502 -0.00000000000E+00 -0.00000000000E+00 -0.27096372377E+03  0.27096372377E+03  0.00000000000E+00 0. -1.
      99926    2    1    2    0    0  0.14210854715E-13  0.00000000000E+00 -0.75813479212E+02  0.46611396833E+03  0.45990710784E+03 0.  0.
      99925    2    3    3    0    0 -0.11606002644E+03 -0.61069354275E+01 -0.66112163640E+02  0.29509102243E+03  0.26306020022E+03 0.  0.
         25    1    3    3    0    0  0.11606002644E+03  0.61069354275E+01 -0.97013155717E+01  0.17102294589E+03  0.12509000000E+03 0.  0.
         25    1    4    4    0    0 -0.85012394735E+02  0.38120415830E+01 -0.31937005292E+01  0.15132530107E+03  0.12509000000E+03 0.  0.
         25    1    4    4    0    0 -0.31047631710E+02 -0.99189770105E+01 -0.62918463111E+02  0.14376572137E+03  0.12509000000E+03 0.  0.
<mgrwt>
<rscale>  2 0.45990711E+03</rscale>
<asrwt>0</asrwt>
<pdfrwt beam="1">  1       21 0.28698566E-01 0.45990711E+03</pdfrwt>
<pdfrwt beam="2">  1       21 0.39847606E-01 0.45990711E+03</pdfrwt>
<totfact> 0.65148801E+04</totfact>
</mgrwt>
</event>
<event>
 7    0  0.4712189E-002  0.4529736E+03  0.7546771E-02  0.1026839E+00
         21   -1    0    0  502  501  0.00000000000E+00  0.00000000000E+00  0.90960475521E+03  0.90960475521E+03  0.00000000000E+00 0.  1.
         21   -1    0    0  501  502 -0.00000000000E+00 -0.00000000000E+00 -0.56394011178E+02  0.56394011178E+02  0.00000000000E+00 0.  1.
      99926    2    1    2    0    0  0.00000000000E+00  0.00000000000E+00  0.85321074403E+03  0.96599876638E+03  0.45297355655E+03 0.  0.
      99925    2    3    3    0    0  0.98534655418E+02  0.17642432086E+02  0.43441471706E+03  0.51760390241E+03  0.26301581639E+03 0.  0.
         25    1    4    4    0    0  0.23177781997E+02  0.28363566911E+02  0.15822061212E+03  0.20499505288E+03  0.12509000000E+03 0.  0.
         25    1    3    3    0    0 -0.98534655418E+02 -0.17642432086E+02  0.41879602697E+03  0.44839486397E+03  0.12509000000E+03 0.  0.
         25    1    4    4    0    0  0.75356873421E+02 -0.10721134824E+02  0.27619410494E+03  0.31260884953E+03  0.12509000000E+03 0.  0.
<mgrwt>
<rscale>  2 0.45297356E+03</rscale>
<asrwt>0</asrwt>
<pdfrwt beam="1">  1       21 0.13376540E+00 0.45297356E+03</pdfrwt>
<pdfrwt beam="2">  1       21 0.82932375E-02 0.45297356E+03</pdfrwt>
<totfact> 0.41147761E+04</totfact>
</mgrwt>
</event>
<event>
 7    0  0.4712189E-002  0.4535043E+03  0.7546771E-02  0.1026682E+00
         21   -1    0    0  502  501  0.00000000000E+00  0.00000000000E+00  0.12222256079E+03  0.12222256079E+03  0.00000000000E+00 0. -1.
         21   -1    0    0  501  502 -0.00000000000E+00 -0.00000000000E+00 -0.42067959990E+03  0.42067959990E+03  0.00000000000E+00 0. -1.
      99926    2    1    2    0    0  0.00000000000E+00  0.00000000000E+00 -0.29845703911E+03  0.54290216069E+03  0.45350430195E+03 0.  0.
      99925    2    3    3    0    0  0.57149897871E+02  0.89966398250E+02 -0.14740605683E+03  0.31968932282E+03  0.26289285631E+03 0.  0.
         25    1    4    4    0    0  0.18019975137E+02  0.42453468083E+02 -0.28224083369E+02  0.13627590924E+03  0.12509000000E+03 0.  0.
         25    1    4    4    0    0  0.39129922733E+02  0.47512930166E+02 -0.11918197346E+03  0.18341341359E+03  0.12509000000E+03 0.  0.
         25    1    3    3    0    0 -0.57149897871E+02 -0.89966398250E+02 -0.15105098228E+03  0.22321283787E+03  0.12509000000E+03 0.  0.
<mgrwt>
<rscale>  2 0.45350430E+03</rscale>
<asrwt>0</asrwt>
<pdfrwt beam="1">  1       21 0.17973906E-01 0.45350430E+03</pdfrwt>
<pdfrwt beam="2">  1       21 0.61864646E-01 0.45350430E+03</pdfrwt>
<totfact> 0.63081311E+04</totfact>
</mgrwt>
</event>
<event>
 7    0  0.4712189E-002  0.4525757E+03  0.7546771E-02  0.1026957E+00
         21   -1    0    0  502  501  0.00000000000E+00  0.00000000000E+00  0.22976290398E+03  0.22976290398E+03  0.00000000000E+00 0. -1.
         21   -1    0    0  501  502 -0.00000000000E+00 -0.00000000000E+00 -0.22286533526E+03  0.22286533526E+03  0.00000000000E+00 0. -1.
      99926    2    1    2    0    0  0.00000000000E+00  0.00000000000E+00  0.68975687161E+01  0.45262823924E+03  0.45257568041E+03 0.  0.
      99925    2    3    3    0    0 -0.85695160173E+02  0.45869505735E+02 -0.47491715862E+02  0.28513682331E+03  0.26381787827E+03 0.  0.
         25    1    4    4    0    0 -0.72662212289E+02  0.53099513355E+02 -0.13696202457E+02  0.15470762578E+03  0.12509000000E+03 0.  0.
         25    1    4    4    0    0 -0.13032947883E+02 -0.72300076203E+01 -0.33795513405E+02  0.13042919752E+03  0.12509000000E+03 0.  0.
         25    1    3    3    0    0  0.85695160173E+02 -0.45869505735E+02  0.54389284578E+02  0.16749141593E+03  0.12509000000E+03 0.  0.
<mgrwt>
<rscale>  2 0.45257568E+03</rscale>
<asrwt>0</asrwt>
<pdfrwt beam="1">  1       21 0.33788662E-01 0.45257568E+03</pdfrwt>
<pdfrwt beam="2">  1       21 0.32774314E-01 0.45257568E+03</pdfrwt>
<totfact> 0.70065432E+04</totfact>
</mgrwt>
</event>
<event>
 7    0  0.4712189E-002  0.4557511E+03  0.7546771E-02  0.1026021E+00
         21   -1    0    0  502  501  0.00000000000E+00  0.00000000000E+00  0.13894650569E+03  0.13894650569E+03  0.00000000000E+00 0.  1.
         21   -1    0    0  501  502 -0.00000000000E+00 -0.00000000000E+00 -0.37372134092E+03  0.37372134092E+03  0.00000000000E+00 0.  1.
      99926    2    1    2    0    0 -0.14210854715E-13  0.00000000000E+00 -0.23477483523E+03  0.51266784661E+03  0.45575113569E+03 0.  0.
      99925    2    3    3    0    0  0.71808265856E+02  0.54676917070E+02 -0.69688863996E+02  0.28673228432E+03  0.26308339515E+03 0.  0.
         25    1    4    4    0    0  0.67336668275E+02  0.17926983806E+02 -0.10778232529E+02  0.14359415740E+03  0.12509000000E+03 0.  0.
         25    1    3    3    0    0 -0.71808265856E+02 -0.54676917070E+02 -0.16508597124E+03  0.22593556228E+03  0.12509000000E+03 0.  0.
         25    1    4    4    0    0  0.44715975812E+01  0.36749933264E+02 -0.58910631467E+02  0.14313812693E+03  0.12509000000E+03 0.  0.
<mgrwt>
<rscale>  2 0.45575114E+03</rscale>
<asrwt>0</asrwt>
<pdfrwt beam="1">  1       21 0.20433310E-01 0.45575114E+03</pdfrwt>
<pdfrwt beam="2">  1       21 0.54959020E-01 0.45575114E+03</pdfrwt>
<totfact> 0.64007170E+04</totfact>
</mgrwt>
</event>
<event>
 7    0  0.4712189E-002  0.4673358E+03  0.7546771E-02  0.1022675E+00
         21   -1    0    0  502  501  0.00000000000E+00  0.00000000000E+00  0.11056820997E+04  0.11056820997E+04  0.00000000000E+00 0. -1.
         21   -1    0    0  501  502 -0.00000000000E+00 -0.00000000000E+00 -0.49381897537E+02  0.49381897537E+02  0.00000000000E+00 0. -1.
      99926    2    1    2    0    0  0.00000000000E+00  0.00000000000E+00  0.10563002022E+04  0.11550639973E+04  0.46733576862E+03 0.  0.
      99925    2    3    3    0    0  0.11291317525E+03 -0.27799621957E+02  0.76653116969E+03  0.81870733474E+03  0.26303889775E+03 0.  0.
         25    1    3    3    0    0 -0.11291317525E+03  0.27799621957E+02  0.28976903251E+03  0.33635666253E+03  0.12509000000E+03 0.  0.
         25    1    4    4    0    0  0.24524653849E+02 -0.39273851331E+02  0.38310155088E+03  0.40565773804E+03  0.12509000000E+03 0.  0.
         25    1    4    4    0    0  0.88388521404E+02  0.11474229373E+02  0.38342961880E+03  0.41304959670E+03  0.12509000000E+03 0.  0.
<mgrwt>
<rscale>  2 0.46733577E+03</rscale>
<asrwt>0</asrwt>
<pdfrwt beam="1">  1       21 0.16260029E+00 0.46733577E+03</pdfrwt>
<pdfrwt beam="2">  1       21 0.72620445E-02 0.46733577E+03</pdfrwt>
<totfact> 0.30567621E+04</totfact>
</mgrwt>
</event>
<event>
 7    0  0.4712189E-002  0.4543491E+03  0.7546771E-02  0.1026433E+00
         21   -1    0    0  502  501  0.00000000000E+00  0.00000000000E+00  0.43939243480E+03  0.43939243480E+03  0.00000000000E+00 0.  1.
         21   -1    0    0  501  502 -0.00000000000E+00 -0.00000000000E+00 -0.11745373736E+03  0.11745373736E+03  0.00000000000E+00 0.  1.
      99926    2    1    2    0    0 -0.71054273576E-14  0.00000000000E+00  0.32193869745E+03  0.55684617216E+03  0.45434913287E+03 0.  0.
      99925    2    3    3    0    0  0.59204137703E+02 -0.95348183321E+02  0.21268904696E+03  0.35639817338E+03  0.26303349845E+03 0.  0.
         25    1    4    4    0    0  0.20351531991E+02 -0.34378919949E+02  0.54543902021E+02  0.14219226540E+03  0.12509000000E+03 0.  0.
         25    1    4    4    0    0  0.38852605712E+02 -0.60969263372E+02  0.15814514494E+03  0.21420590798E+03  0.12509000000E+03 0.  0.
         25    1    3    3    0    0 -0.59204137703E+02  0.95348183321E+02  0.10924965049E+03  0.20044799878E+03  0.12509000000E+03 0.  0.
<mgrwt>
<rscale>  2 0.45434913E+03</rscale>
<asrwt>0</asrwt>
<pdfrwt beam="1">  1       21 0.64616534E-01 0.45434913E+03</pdfrwt>
<pdfrwt beam="2">  1       21 0.17272609E-01 0.45434913E+03</pdfrwt>
<totfact> 0.61733600E+04</totfact>
</mgrwt>
</event>
<event>
 7    0  0.4712189E-002  0.4543532E+03  0.7546771E-02  0.1026432E+00
         21   -1    0    0  502  501  0.00000000000E+00  0.00000000000E+00  0.35711119192E+03  0.35711119192E+03  0.00000000000E+00 0.  1.
         21   -1    0    0  501  502 -0.00000000000E+00 -0.00000000000E+00 -0.14451862094E+03  0.14451862094E+03  0.00000000000E+00 0.  1.
      99926    2    1    2    0    0  0.44408920985E-15  0.00000000000E+00  0.21259257099E+03  0.50162981286E+03  0.45435324133E+03 0.  0.
      99925    2    3    3    0    0 -0.33313826960E+01  0.31555728701E+02  0.25309084195E+03  0.36637272367E+03  0.26299645671E+03 0.  0.
         25    1    4    4    0    0 -0.88994668245E+01 -0.24196838760E+02  0.11658733264E+03  0.17293004871E+03  0.12509000000E+03 0.  0.
         25    1    3    3    0    0  0.33313826960E+01 -0.31555728701E+02 -0.40498270966E+02  0.13525708919E+03  0.12509000000E+03 0.  0.
         25    1    4    4    0    0  0.55680841285E+01  0.55752567461E+02  0.13650350932E+03  0.19344267496E+03  0.12509000000E+03 0.  0.
<mgrwt>
<rscale>  2 0.45435324E+03</rscale>
<asrwt>0</asrwt>
<pdfrwt beam="1">  1       21 0.52516352E-01 0.45435324E+03</pdfrwt>
<pdfrwt beam="2">  1       21 0.21252738E-01 0.45435324E+03</pdfrwt>
<totfact> 0.65491893E+04</totfact>
</mgrwt>
</event>
<event>
 7    0  0.4712189E-002  0.4550764E+03  0.7546771E-02  0.1026219E+00
         21   -1    0    0  502  501  0.00000000000E+00  0.00000000000E+00  0.15113105363E+03  0.15113105363E+03  0.00000000000E+00 0.  1.
         21   -1    0    0  501  502 -0.00000000000E+00 -0.00000000000E+00 -0.34257448653E+03  0.34257448653E+03  0.00000000000E+00 0.  1.
      99926    2    1    2    0    0 -0.22204460493E-14  0.00000000000E+00 -0.19144343289E+03  0.49370554016E+03  0.45507644675E+03 0.  0.
      99925    2    3    3    0    0  0.38410881099E+01 -0.10553542818E+03 -0.71292567433E+02  0.29063850904E+03  0.26121950961E+03 0.  0.
         25    1    3    3    0    0 -0.38410881099E+01  0.10553542818E+03 -0.12015086546E+03  0.20306703113E+03  0.12509000000E+03 0.  0.
         25    1    4    4    0    0 -0.17204462721E+02 -0.45946960590E+02 -0.67667838879E+02  0.15044454541E+03  0.12509000000E+03 0.  0.
         25    1    4    4    0    0  0.21045550831E+02 -0.59588467595E+02 -0.36247285539E+01  0.14019396363E+03  0.12509000000E+03 0.  0.
<mgrwt>
<rscale>  2 0.45507645E+03</rscale>
<asrwt>0</asrwt>
<pdfrwt beam="1">  1       21 0.22225155E-01 0.45507645E+03</pdfrwt>
<pdfrwt beam="2">  1       21 0.50378601E-01 0.45507645E+03</pdfrwt>
<totfact> 0.65675295E+04</totfact>
</mgrwt>
</event>
<event>
 7    0  0.4712189E-002  0.4477961E+03  0.7546771E-02  0.1028381E+00
         21   -1    0    0  502  501  0.00000000000E+00  0.00000000000E+00  0.18535106620E+03  0.18535106620E+03  0.00000000000E+00 0. -1.
         21   -1    0    0  501  502 -0.00000000000E+00 -0.00000000000E+00 -0.27046154503E+03  0.27046154503E+03  0.00000000000E+00 0. -1.
      99926    2    1    2    0    0  0.00000000000E+00  0.00000000000E+00 -0.85110478829E+02  0.45581261124E+03  0.44779609529E+03 0.  0.
      99925    2    3    3    0    0  0.90546758446E+02  0.55491915573E+02 -0.55013164303E+02  0.28898508173E+03  0.26307386997E+03 0.  0.
         25    1    4    4    0    0  0.45935637424E+02  0.42815831071E+02  0.10493369812E+02  0.14035988418E+03  0.12509000000E+03 0.  0.
         25    1    4    4    0    0  0.44611121022E+02  0.12676084502E+02 -0.65506534115E+02  0.14862519756E+03  0.12509000000E+03 0.  0.
         25    1    3    3    0    0 -0.90546758446E+02 -0.55491915573E+02 -0.30097314526E+02  0.16682752950E+03  0.12509000000E+03 0.  0.
<mgrwt>
<rscale>  2 0.44779610E+03</rscale>
<asrwt>0</asrwt>
<pdfrwt beam="1">  1       21 0.27257510E-01 0.44779610E+03</pdfrwt>
<pdfrwt beam="2">  1       21 0.39773756E-01 0.44779610E+03</pdfrwt>
<totfact> 0.72564999E+04</totfact>
</mgrwt>
</event>
<event>
 7    0  0.4712189E-002  0.4616548E+03  0.7546771E-02  0.1024302E+00
         21   -1    0    0  502  501  0.00000000000E+00  0.00000000000E+00  0.24831668919E+03  0.24831668919E+03  0.00000000000E+00 0. -1.
         21   -1    0    0  501  502 -0.00000000000E+00 -0.00000000000E+00 -0.21456990152E+03  0.21456990152E+03  0.00000000000E+00 0. -1.
      99926    2    1    2    0    0  0.00000000000E+00  0.00000000000E+00  0.33746787677E+02  0.46288659071E+03  0.46165479547E+03 0.  0.
      99925    2    3    3    0    0 -0.10750759754E+03 -0.49361998364E+02  0.94156975662E+01  0.28900732094E+03  0.26351866307E+03 0.  0.
         25    1    4    4    0    0 -0.46837888701E+02 -0.60616660119E+01 -0.32263872787E+02  0.13754634564E+03  0.12509000000E+03 0.  0.
         25    1    3    3    0    0  0.10750759754E+03  0.49361998364E+02  0.24331090111E+02  0.17387926977E+03  0.12509000000E+03 0.  0.
         25    1    4    4    0    0 -0.60669708836E+02 -0.43300332352E+02  0.41679570353E+02  0.15146097529E+03  0.12509000000E+03 0.  0.
<mgrwt>
<rscale>  2 0.46165480E+03</rscale>
<asrwt>0</asrwt>
<pdfrwt beam="1">  1       21 0.36517160E-01 0.46165480E+03</pdfrwt>
<pdfrwt beam="2">  1       21 0.31554397E-01 0.46165480E+03</pdfrwt>
<totfact> 0.64479596E+04</totfact>
</mgrwt>
</event>
<event>
 7    0  0.4712189E-002  0.4537064E+03  0.7546771E-02  0.1026622E+00
         21   -1    0    0  502  501  0.00000000000E+00  0.00000000000E+00  0.36951160703E+03  0.36951160703E+03  0.00000000000E+00 0. -1.
         21   -1    0    0  501  502 -0.00000000000E+00 -0.00000000000E+00 -0.13927136227E+03  0.13927136227E+03  0.00000000000E+00 0. -1.
      99926    2    1    2    0    0  0.00000000000E+00 -0.44408920985E-15  0.23024024476E+03  0.50878296930E+03  0.45370644644E+03 0.  0.
      99925    2    3    3    0    0 -0.20546450590E+02  0.23990218037E+01  0.21852156412E+02  0.26485466958E+03  0.26313982466E+03 0.  0.
         25    1    4    4    0    0 -0.78613257616E+01  0.11150240607E+02 -0.28692449183E+02  0.12906158626E+03  0.12509000000E+03 0.  0.
         25    1    4    4    0    0 -0.12685124829E+02 -0.87512188038E+01  0.50544605596E+02  0.13579308332E+03  0.12509000000E+03 0.  0.
         25    1    3    3    0    0  0.20546450590E+02 -0.23990218037E+01  0.20838808835E+03  0.24392829972E+03  0.12509000000E+03 0.  0.
<mgrwt>
<rscale>  2 0.45370645E+03</rscale>
<asrwt>0</asrwt>
<pdfrwt beam="1">  1       21 0.54339942E-01 0.45370645E+03</pdfrwt>
<pdfrwt beam="2">  1       21 0.20481083E-01 0.45370645E+03</pdfrwt>
<totfact> 0.65326006E+04</totfact>
</mgrwt>
</event>
<event>
 7    0  0.4712189E-002  0.4230984E+03  0.7546771E-02  0.1036063E+00
         21   -1    0    0  502  501  0.00000000000E+00  0.00000000000E+00  0.35608337584E+02  0.35608337584E+02  0.00000000000E+00 0. -1.
         21   -1    0    0  501  502 -0.00000000000E+00 -0.00000000000E+00 -0.12568143765E+04  0.12568143765E+04  0.00000000000E+00 0. -1.
      99926    2    1    2    0    0  0.00000000000E+00  0.00000000000E+00 -0.12212060389E+04  0.12924227141E+04  0.42309843109E+03 0.  0.
      99925    2    3    3    0    0  0.77536816560E+02  0.17697006906E+02 -0.78947680778E+03  0.83595499442E+03  0.26310070448E+03 0.  0.
         25    1    4    4    0    0  0.14340170905E+02  0.39763750534E+02 -0.41527447151E+03  0.43576047452E+03  0.12509000000E+03 0.  0.
         25    1    3    3    0    0 -0.77536816560E+02 -0.17697006906E+02 -0.43172923111E+03  0.45646771964E+03  0.12509000000E+03 0.  0.
         25    1    4    4    0    0  0.63196645656E+02 -0.22066743628E+02 -0.37420233627E+03  0.40019451991E+03  0.12509000000E+03 0.  0.
<mgrwt>
<rscale>  2 0.42309843E+03</rscale>
<asrwt>0</asrwt>
<pdfrwt beam="1">  1       21 0.52365195E-02 0.42309843E+03</pdfrwt>
<pdfrwt beam="2">  1       21 0.18482567E+00 0.42309843E+03</pdfrwt>
<totfact> 0.37903379E+04</totfact>
</mgrwt>
</event>
<event>
 7    0  0.4712189E-002  0.4597426E+03  0.7546771E-02  0.1024856E+00
         21   -1    0    0  502  501  0.00000000000E+00  0.00000000000E+00  0.45793743885E+02  0.45793743885E+02  0.00000000000E+00 0. -1.
         21   -1    0    0  501  502 -0.00000000000E+00 -0.00000000000E+00 -0.11538870017E+04  0.11538870017E+04  0.00000000000E+00 0. -1.
      99926    2    1    2    0    0  0.14210854715E-13 -0.88817841970E-15 -0.11080932578E+04  0.11996807456E+04  0.45974256200E+03 0.  0.
      99925    2    3    3    0    0  0.99435537110E+02 -0.59476212166E+01 -0.53151535464E+03  0.60133938251E+03  0.26301650234E+03 0.  0.
         25    1    4    4    0    0  0.17064033506E+02 -0.25691535811E+02 -0.27408367294E+03  0.30285409709E+03  0.12509000000E+03 0.  0.
         25    1    4    4    0    0  0.82371503604E+02  0.19743914595E+02 -0.25743168170E+03  0.29848528542E+03  0.12509000000E+03 0.  0.
         25    1    3    3    0    0 -0.99435537110E+02  0.59476212166E+01 -0.57657790320E+03  0.59834136310E+03  0.12509000000E+03 0.  0.
<mgrwt>
<rscale>  2 0.45974256E+03</rscale>
<asrwt>0</asrwt>
<pdfrwt beam="1">  1       21 0.67343750E-02 0.45974256E+03</pdfrwt>
<pdfrwt beam="2">  1       21 0.16968924E+00 0.45974256E+03</pdfrwt>
<totfact> 0.31004680E+04</totfact>
</mgrwt>
</event>
<event>
 7    0  0.4712189E-002  0.4574965E+03  0.7546771E-02  0.1025510E+00
         21   -1    0    0  502  501  0.00000000000E+00  0.00000000000E+00  0.15185617951E+03  0.15185617951E+03  0.00000000000E+00 0. -1.
         21   -1    0    0  501  502 -0.00000000000E+00 -0.00000000000E+00 -0.34457443353E+03  0.34457443353E+03  0.00000000000E+00 0. -1.
      99926    2    1    2    0    0  0.34416913763E-14  0.00000000000E+00 -0.19271825402E+03  0.49643061304E+03  0.45749647881E+03 0.  0.
      99925    2    3    3    0    0 -0.76271216652E+00  0.10608698274E+02  0.37043558259E+01  0.26331588599E+03  0.26307490825E+03 0.  0.
         25    1    4    4    0    0  0.32274247150E+02  0.23133087762E+02  0.18316472220E+02  0.13251327493E+03  0.12509000000E+03 0.  0.
         25    1    4    4    0    0 -0.33036959317E+02 -0.12524389488E+02 -0.14612116394E+02  0.13080261105E+03  0.12509000000E+03 0.  0.
         25    1    3    3    0    0  0.76271216652E+00 -0.10608698274E+02 -0.19642260985E+03  0.23311472705E+03  0.12509000000E+03 0.  0.
<mgrwt>
<rscale>  2 0.45749648E+03</rscale>
<asrwt>0</asrwt>
<pdfrwt beam="1">  1       21 0.22331791E-01 0.45749648E+03</pdfrwt>
<pdfrwt beam="2">  1       21 0.50672711E-01 0.45749648E+03</pdfrwt>
<totfact> 0.64239557E+04</totfact>
</mgrwt>
</event>
<event>
 7    0  0.4712189E-002  0.4665717E+03  0.7546771E-02  0.1022892E+00
         21   -1    0    0  502  501  0.00000000000E+00  0.00000000000E+00  0.33605308300E+03  0.33605308300E+03  0.00000000000E+00 0. -1.
         21   -1    0    0  501  502 -0.00000000000E+00 -0.00000000000E+00 -0.16194547700E+03  0.16194547700E+03  0.00000000000E+00 0. -1.
      99926    2    1    2    0    0  0.00000000000E+00  0.00000000000E+00  0.17410760600E+03  0.49799855999E+03  0.46657165290E+03 0.  0.
      99925    2    3    3    0    0 -0.24209114155E+02 -0.87765782097E+02  0.19032558386E+02  0.27894447487E+03  0.26298073707E+03 0.  0.
         25    1    3    3    0    0  0.24209114155E+02  0.87765782097E+02  0.15507504761E+03  0.21905408512E+03  0.12509000000E+03 0.  0.
         25    1    4    4    0    0 -0.25720751542E+02 -0.46950613719E+02  0.47857948032E+02  0.14423525394E+03  0.12509000000E+03 0.  0.
         25    1    4    4    0    0  0.15116373872E+01 -0.40815168378E+02 -0.28825389646E+02  0.13470922094E+03  0.12509000000E+03 0.  0.
<mgrwt>
<rscale>  2 0.46657165E+03</rscale>
<asrwt>0</asrwt>
<pdfrwt beam="1">  1       21 0.49419571E-01 0.46657165E+03</pdfrwt>
<pdfrwt beam="2">  1       21 0.23815511E-01 0.46657165E+03</pdfrwt>
<totfact> 0.59732803E+04</totfact>
</mgrwt>
</event>
<event>
 7    0  0.4712189E-002  0.4572498E+03  0.7546771E-02  0.1025582E+00
         21   -1    0    0  502  501  0.00000000000E+00  0.00000000000E+00  0.20660527373E+03  0.20660527373E+03  0.00000000000E+00 0.  1.
         21   -1    0    0  501  502 -0.00000000000E+00 -0.00000000000E+00 -0.25299133841E+03  0.25299133841E+03  0.00000000000E+00 0.  1.
      99926    2    1    2    0    0  0.00000000000E+00  0.00000000000E+00 -0.46386064682E+02  0.45959661214E+03  0.45724979922E+03 0.  0.
      99925    2    3    3    0    0 -0.10236477313E+03 -0.36281038219E+02  0.83835965254E+01  0.28512001084E+03  0.26349245792E+03 0.  0.
         25    1    3    3    0    0  0.10236477313E+03  0.36281038219E+02 -0.54769661207E+02  0.17447660130E+03  0.12509000000E+03 0.  0.
         25    1    4    4    0    0 -0.68513347056E+02 -0.31466209378E+02  0.40417757350E+02  0.15154307726E+03  0.12509000000E+03 0.  0.
         25    1    4    4    0    0 -0.33851426070E+02 -0.48148288419E+01 -0.32034160825E+02  0.13357693358E+03  0.12509000000E+03 0.  0.
<mgrwt>
<rscale>  2 0.45724980E+03</rscale>
<asrwt>0</asrwt>
<pdfrwt beam="1">  1       21 0.30383129E-01 0.45724980E+03</pdfrwt>
<pdfrwt beam="2">  1       21 0.37204608E-01 0.45724980E+03</pdfrwt>
<totfact> 0.66999584E+04</totfact>
</mgrwt>
</event>
<event>
 7    0  0.4712189E-002  0.4523232E+03  0.7546771E-02  0.1027031E+00
         21   -1    0    0  502  501  0.00000000000E+00  0.00000000000E+00  0.15853848644E+03  0.15853848644E+03  0.00000000000E+00 0. -1.
         21   -1    0    0  501  502 -0.00000000000E+00 -0.00000000000E+00 -0.32262879308E+03  0.32262879308E+03  0.00000000000E+00 0. -1.
      99926    2    1    2    0    0  0.00000000000E+00  0.88817841970E-15 -0.16409030664E+03  0.48116727951E+03  0.45232324961E+03 0.  0.
      99925    2    3    3    0    0 -0.76603549176E+02  0.66125168579E+01 -0.18814947497E+03  0.33237823151E+03  0.26298903917E+03 0.  0.
         25    1    4    4    0    0 -0.35280460482E+02  0.21574741102E+02 -0.50049648598E+02  0.14093493453E+03  0.12509000000E+03 0.  0.
         25    1    4    4    0    0 -0.41323088694E+02 -0.14962224244E+02 -0.13809982637E+03  0.19144329698E+03  0.12509000000E+03 0.  0.
         25    1    3    3    0    0  0.76603549176E+02 -0.66125168579E+01  0.24059168331E+02  0.14878904801E+03  0.12509000000E+03 0.  0.
<mgrwt>
<rscale>  2 0.45232325E+03</rscale>
<asrwt>0</asrwt>
<pdfrwt beam="1">  1       21 0.23314484E-01 0.45232325E+03</pdfrwt>
<pdfrwt beam="2">  1       21 0.47445410E-01 0.45232325E+03</pdfrwt>
<totfact> 0.68049702E+04</totfact>
</mgrwt>
</event>
<event>
 7    0  0.4712189E-002  0.4494529E+03  0.7546771E-02  0.1027885E+00
         21   -1    0    0  502  501  0.00000000000E+00  0.00000000000E+00  0.93996808437E+02  0.93996808437E+02  0.00000000000E+00 0.  1.
         21   -1    0    0  501  502 -0.00000000000E+00 -0.00000000000E+00 -0.53727341788E+03  0.53727341788E+03  0.00000000000E+00 0.  1.
      99926    2    1    2    0    0  0.00000000000E+00 -0.88817841970E-15 -0.44327660945E+03  0.63127022632E+03  0.44945294098E+03 0.  0.
      99925    2    3    3    0    0  0.59765362384E+02  0.44132031196E+01 -0.15450252020E+03  0.31091205548E+03  0.26306634637E+03 0.  0.
         25    1    4    4    0    0  0.15505616332E+02  0.30111639923E+02 -0.10563950628E+03  0.16719553936E+03  0.12509000000E+03 0.  0.
         25    1    4    4    0    0  0.44259746052E+02 -0.25698436804E+02 -0.48863013920E+02  0.14371651611E+03  0.12509000000E+03 0.  0.
         25    1    3    3    0    0 -0.59765362384E+02 -0.44132031196E+01 -0.28877408925E+03  0.32035817084E+03  0.12509000000E+03 0.  0.
<mgrwt>
<rscale>  2 0.44945294E+03</rscale>
<asrwt>0</asrwt>
<pdfrwt beam="1">  1       21 0.13823060E-01 0.44945294E+03</pdfrwt>
<pdfrwt beam="2">  1       21 0.79010798E-01 0.44945294E+03</pdfrwt>
<totfact> 0.59349902E+04</totfact>
</mgrwt>
</event>
<event>
 7    0  0.4712189E-002  0.4546309E+03  0.7546771E-02  0.1026350E+00
         21   -1    0    0  502  501  0.00000000000E+00  0.00000000000E+00  0.71917682785E+02  0.71917682785E+02  0.00000000000E+00 0.  1.
         21   -1    0    0  501  502 -0.00000000000E+00 -0.00000000000E+00 -0.71849240220E+03  0.71849240220E+03  0.00000000000E+00 0.  1.
      99926    2    1    2    0    0  0.00000000000E+00  0.71054273576E-14 -0.64657471942E+03  0.79041008499E+03  0.45463087737E+03 0.  0.
      99925    2    3    3    0    0 -0.94661479250E+02  0.59884506105E+02 -0.38419355760E+03  0.47890032286E+03  0.26304729576E+03 0.  0.
         25    1    4    4    0    0 -0.46046242463E+02  0.20200849930E+02 -0.12261403162E+03  0.18223621932E+03  0.12509000000E+03 0.  0.
         25    1    4    4    0    0 -0.48615236787E+02  0.39683656176E+02 -0.26157952598E+03  0.29666410353E+03  0.12509000000E+03 0.  0.
         25    1    3    3    0    0  0.94661479250E+02 -0.59884506105E+02 -0.26238116182E+03  0.31150976213E+03  0.12509000000E+03 0.  0.
<mgrwt>
<rscale>  2 0.45463088E+03</rscale>
<asrwt>0</asrwt>
<pdfrwt beam="1">  1       21 0.10576130E-01 0.45463088E+03</pdfrwt>
<pdfrwt beam="2">  1       21 0.10566064E+00 0.45463088E+03</pdfrwt>
<totfact> 0.48372163E+04</totfact>
</mgrwt>
</event>
<event>
 7    0  0.4712189E-002  0.4563214E+03  0.7546771E-02  0.1025854E+00
         21   -1    0    0  502  501  0.00000000000E+00  0.00000000000E+00  0.25792287016E+02  0.25792287016E+02  0.00000000000E+00 0. -1.
         21   -1    0    0  501  502 -0.00000000000E+00 -0.00000000000E+00 -0.20183279850E+04  0.20183279850E+04  0.00000000000E+00 0. -1.
      99926    2    1    2    0    0  0.00000000000E+00  0.17763568394E-14 -0.19925356980E+04  0.20441202721E+04  0.45632135467E+03 0.  0.
      99925    2    3    3    0    0  0.67893365229E+02 -0.11665057675E+02 -0.84910301242E+03  0.89180460471E+03  0.26380664256E+03 0.  0.
         25    1    4    4    0    0  0.54280677691E+02 -0.17339511855E+02 -0.32686258644E+03  0.35458949386E+03  0.12509000000E+03 0.  0.
         25    1    4    4    0    0  0.13612687538E+02  0.56744541800E+01 -0.52224042598E+03  0.53721511085E+03  0.12509000000E+03 0.  0.
         25    1    3    3    0    0 -0.67893365229E+02  0.11665057675E+02 -0.11434326856E+04  0.11523156674E+04  0.12509000000E+03 0.  0.
<mgrwt>
<rscale>  2 0.45632135E+03</rscale>
<asrwt>0</asrwt>
<pdfrwt beam="1">  1       21 0.37929835E-02 0.45632135E+03</pdfrwt>
<pdfrwt beam="2">  1       21 0.29681293E+00 0.45632135E+03</pdfrwt>
<totfact> 0.12870190E+04</totfact>
</mgrwt>
</event>
<event>
 7    0  0.4712189E-002  0.4509181E+03  0.7546771E-02  0.1027449E+00
         21   -1    0    0  502  501  0.00000000000E+00  0.00000000000E+00  0.11152866289E+04  0.11152866289E+04  0.00000000000E+00 0. -1.
         21   -1    0    0  501  502 -0.00000000000E+00 -0.00000000000E+00 -0.45577321388E+02  0.45577321388E+02  0.00000000000E+00 0. -1.
      99926    2    1    2    0    0  0.00000000000E+00  0.00000000000E+00  0.10697093075E+04  0.11608639503E+04  0.45091807293E+03 0.  0.
      99925    2    3    3    0    0 -0.56012469435E+02 -0.89846683470E+02  0.74677632375E+03  0.79872717589E+03  0.26283150599E+03 0.  0.
         25    1    3    3    0    0  0.56012469435E+02  0.89846683470E+02  0.32293298374E+03  0.36213677437E+03  0.12509000000E+03 0.  0.
         25    1    4    4    0    0 -0.60329263544E+02 -0.73058588364E+02  0.42654446824E+03  0.45449408012E+03  0.12509000000E+03 0.  0.
         25    1    4    4    0    0  0.43167941087E+01 -0.16788095107E+02  0.32023185550E+03  0.34423309578E+03  0.12509000000E+03 0.  0.
<mgrwt>
<rscale>  2 0.45091807E+03</rscale>
<asrwt>0</asrwt>
<pdfrwt beam="1">  1       21 0.16401272E+00 0.45091807E+03</pdfrwt>
<pdfrwt beam="2">  1       21 0.67025479E-02 0.45091807E+03</pdfrwt>
<totfact> 0.34506349E+04</totfact>
</mgrwt>
</event>
<event>
 7    0  0.4712189E-002  0.4478243E+03  0.7546771E-02  0.1028373E+00
         21   -1    0    0  502  501  0.00000000000E+00  0.00000000000E+00  0.10213734258E+03  0.10213734258E+03  0.00000000000E+00 0.  1.
         21   -1    0    0  501  502 -0.00000000000E+00 -0.00000000000E+00 -0.49087488502E+03  0.49087488502E+03  0.00000000000E+00 0.  1.
      99926    2    1    2    0    0  0.00000000000E+00 -0.14210854715E-13 -0.38873754244E+03  0.59301222760E+03  0.44782432401E+03 0.  0.
      99925    2    3    3    0    0 -0.23436860154E+02 -0.69180361850E+02 -0.14384341818E+03  0.30848481402E+03  0.26293866708E+03 0.  0.
         25    1    4    4    0    0  0.15201011832E+02 -0.59237337593E+02 -0.94219025893E+02  0.16812158061E+03  0.12509000000E+03 0.  0.
         25    1    3    3    0    0  0.23436860154E+02  0.69180361850E+02 -0.24489412426E+03  0.28452741358E+03  0.12509000000E+03 0.  0.
         25    1    4    4    0    0 -0.38637871986E+02 -0.99430242569E+01 -0.49624392285E+02  0.14036323341E+03  0.12509000000E+03 0.  0.
<mgrwt>
<rscale>  2 0.44782432E+03</rscale>
<asrwt>0</asrwt>
<pdfrwt beam="1">  1       21 0.15020198E-01 0.44782432E+03</pdfrwt>
<pdfrwt beam="2">  1       21 0.72187483E-01 0.44782432E+03</pdfrwt>
<totfact> 0.62584624E+04</totfact>
</mgrwt>
</event>
<event>
 7    0  0.4712189E-002  0.4592124E+03  0.7546771E-02  0.1025010E+00
         21   -1    0    0  502  501  0.00000000000E+00  0.00000000000E+00  0.22933935932E+02  0.22933935932E+02  0.00000000000E+00 0.  1.
         21   -1    0    0  501  502 -0.00000000000E+00 -0.00000000000E+00 -0.22987340054E+04  0.22987340054E+04  0.00000000000E+00 0.  1.
      99926    2    1    2    0    0  0.00000000000E+00  0.00000000000E+00 -0.22758000695E+04  0.23216679414E+04  0.45921244933E+03 0.  0.
      99925    2    3    3    0    0 -0.19053350586E+02  0.10872716583E+03 -0.12291977760E+04  0.12618526293E+04  0.26298338136E+03 0.  0.
         25    1    4    4    0    0  0.70366277230E+01  0.49568706739E+02 -0.43916284030E+03  0.45936704194E+03  0.12509000000E+03 0.  0.
         25    1    3    3    0    0  0.19053350586E+02 -0.10872716583E+03 -0.10466022935E+04  0.10598153121E+04  0.12509000000E+03 0.  0.
         25    1    4    4    0    0 -0.26089978309E+02  0.59158459087E+02 -0.79003493567E+03  0.80248558737E+03  0.12509000000E+03 0.  0.
<mgrwt>
<rscale>  2 0.45921245E+03</rscale>
<asrwt>0</asrwt>
<pdfrwt beam="1">  1       21 0.33726368E-02 0.45921245E+03</pdfrwt>
<pdfrwt beam="2">  1       21 0.33804920E+00 0.45921245E+03</pdfrwt>
<totfact> 0.88402355E+03</totfact>
</mgrwt>
</event>
<event>
 7    0  0.4712189E-002  0.4378107E+03  0.7546771E-02  0.1031421E+00
         21   -1    0    0  502  501  0.00000000000E+00  0.00000000000E+00  0.68041118614E+03  0.68041118614E+03  0.00000000000E+00 0. -1.
         21   -1    0    0  501  502 -0.00000000000E+00 -0.00000000000E+00 -0.70427345450E+02  0.70427345450E+02  0.00000000000E+00 0. -1.
      99926    2    1    2    0    0  0.00000000000E+00  0.71054273576E-14  0.60998384069E+03  0.75083853159E+03  0.43781070637E+03 0.  0.
      99925    2    3    3    0    0  0.71020630077E+02  0.45900838253E+02  0.46839220652E+03  0.54384453212E+03  0.26310606063E+03 0.  0.
         25    1    4    4    0    0  0.51467054768E+02 -0.12764523913E+02  0.20849433165E+03  0.24885575185E+03  0.12509000000E+03 0.  0.
         25    1    4    4    0    0  0.19553575309E+02  0.58665362166E+02  0.25989787487E+03  0.29498878027E+03  0.12509000000E+03 0.  0.
         25    1    3    3    0    0 -0.71020630077E+02 -0.45900838253E+02  0.14159163417E+03  0.20699399946E+03  0.12509000000E+03 0.  0.
<mgrwt>
<rscale>  2 0.43781071E+03</rscale>
<asrwt>0</asrwt>
<pdfrwt beam="1">  1       21 0.10006046E+00 0.43781071E+03</pdfrwt>
<pdfrwt beam="2">  1       21 0.10356963E-01 0.43781071E+03</pdfrwt>
<totfact> 0.57627203E+04</totfact>
</mgrwt>
</event>
<event>
 7    0  0.4712189E-002  0.4480530E+03  0.7546771E-02  0.1028304E+00
         21   -1    0    0  502  501  0.00000000000E+00  0.00000000000E+00  0.10718116598E+04  0.10718116598E+04  0.00000000000E+00 0.  1.
         21   -1    0    0  501  502 -0.00000000000E+00 -0.00000000000E+00 -0.46825262620E+02  0.46825262620E+02  0.00000000000E+00 0.  1.
      99926    2    1    2    0    0  0.00000000000E+00  0.00000000000E+00  0.10249863971E+04  0.11186369224E+04  0.44805295423E+03 0.  0.
      99925    2    3    3    0    0  0.79804567648E+02  0.67856053145E+02  0.60400023263E+03  0.66713933460E+03  0.26322119554E+03 0.  0.
         25    1    4    4    0    0  0.32667798373E+02  0.25457293520E+02  0.20013148622E+03  0.23961506364E+03  0.12509000000E+03 0.  0.
         25    1    3    3    0    0 -0.79804567648E+02 -0.67856053145E+02  0.42098616451E+03  0.45149758779E+03  0.12509000000E+03 0.  0.
         25    1    4    4    0    0  0.47136769274E+02  0.42398759625E+02  0.40386874641E+03  0.42752427096E+03  0.12509000000E+03 0.  0.
<mgrwt>
<rscale>  2 0.44805295E+03</rscale>
<asrwt>0</asrwt>
<pdfrwt beam="1">  1       21 0.15761935E+00 0.44805295E+03</pdfrwt>
<pdfrwt beam="2">  1       21 0.68860687E-02 0.44805295E+03</pdfrwt>
<totfact> 0.36800007E+04</totfact>
</mgrwt>
</event>
<event>
 7    0  0.4712189E-002  0.4561463E+03  0.7546771E-02  0.1025905E+00
         21   -1    0    0  502  501  0.00000000000E+00  0.00000000000E+00  0.28128500687E+02  0.28128500687E+02  0.00000000000E+00 0. -1.
         21   -1    0    0  501  502 -0.00000000000E+00 -0.00000000000E+00 -0.18492762700E+04  0.18492762700E+04  0.00000000000E+00 0. -1.
      99926    2    1    2    0    0 -0.35527136788E-14  0.00000000000E+00 -0.18211477693E+04  0.18774047707E+04  0.45614633105E+03 0.  0.
      99925    2    3    3    0    0 -0.17819108801E+02  0.52264021163E+02 -0.73333761445E+03  0.78103462805E+03  0.26302468496E+03 0.  0.
         25    1    3    3    0    0  0.17819108801E+02 -0.52264021163E+02 -0.10878101549E+04  0.10963701427E+04  0.12509000000E+03 0.  0.
         25    1    4    4    0    0  0.44818238594E+01  0.59318439535E+02 -0.43985338062E+03  0.46114777302E+03  0.12509000000E+03 0.  0.
         25    1    4    4    0    0 -0.22300932660E+02 -0.70544183728E+01 -0.29348423383E+03  0.31988685503E+03  0.12509000000E+03 0.  0.
<mgrwt>
<rscale>  2 0.45614633E+03</rscale>
<asrwt>0</asrwt>
<pdfrwt beam="1">  1       21 0.41365432E-02 0.45614633E+03</pdfrwt>
<pdfrwt beam="2">  1       21 0.27195246E+00 0.45614633E+03</pdfrwt>
<totfact> 0.15676479E+04</totfact>
</mgrwt>
</event>
<event>
 7    0  0.4712189E-002  0.4578870E+03  0.7546771E-02  0.1025396E+00
         21   -1    0    0  502  501  0.00000000000E+00  0.00000000000E+00  0.82517450421E+02  0.82517450421E+02  0.00000000000E+00 0. -1.
         21   -1    0    0  501  502 -0.00000000000E+00 -0.00000000000E+00 -0.63520037929E+03  0.63520037929E+03  0.00000000000E+00 0. -1.
      99926    2    1    2    0    0  0.00000000000E+00  0.44408920985E-15 -0.55268292887E+03  0.71771782971E+03  0.45788695463E+03 0.  0.
      99925    2    3    3    0    0  0.11550843887E+03  0.38017847444E+01 -0.34345600551E+03  0.44794002007E+03  0.26330890764E+03 0.  0.
         25    1    4    4    0    0  0.83785423124E+02 -0.62576678900E+01 -0.13365247812E+03  0.20141908684E+03  0.12509000000E+03 0.  0.
         25    1    4    4    0    0  0.31723015743E+02  0.10059452634E+02 -0.20980352739E+03  0.24652093323E+03  0.12509000000E+03 0.  0.
         25    1    3    3    0    0 -0.11550843887E+03 -0.38017847444E+01 -0.20922692336E+03  0.26977780964E+03  0.12509000000E+03 0.  0.
<mgrwt>
<rscale>  2 0.45788695E+03</rscale>
<asrwt>0</asrwt>
<pdfrwt beam="1">  1       21 0.12134919E-01 0.45788695E+03</pdfrwt>
<pdfrwt beam="2">  1       21 0.93411819E-01 0.45788695E+03</pdfrwt>
<totfact> 0.50788343E+04</totfact>
</mgrwt>
</event>
<event>
 7    0  0.4712189E-002  0.4480845E+03  0.7546771E-02  0.1028295E+00
         21   -1    0    0  502  501  0.00000000000E+00  0.00000000000E+00  0.38898277983E+02  0.38898277983E+02  0.00000000000E+00 0. -1.
         21   -1    0    0  501  502 -0.00000000000E+00 -0.00000000000E+00 -0.12904154703E+04  0.12904154703E+04  0.00000000000E+00 0. -1.
      99926    2    1    2    0    0  0.00000000000E+00  0.00000000000E+00 -0.12515171923E+04  0.13293137483E+04  0.44808454416E+03 0.  0.
      99925    2    3    3    0    0 -0.39371663292E+02 -0.95348020310E+02 -0.87347109109E+03  0.91796506943E+03  0.26280553431E+03 0.  0.
         25    1    4    4    0    0 -0.50787835854E+02 -0.76437835219E+02 -0.49543555715E+03  0.51915897980E+03  0.12509000000E+03 0.  0.
         25    1    4    4    0    0  0.11416172563E+02 -0.18910185091E+02 -0.37803553395E+03  0.39880608963E+03  0.12509000000E+03 0.  0.
         25    1    3    3    0    0  0.39371663292E+02  0.95348020310E+02 -0.37804610125E+03  0.41134867888E+03  0.12509000000E+03 0.  0.
<mgrwt>
<rscale>  2 0.44808454E+03</rscale>
<asrwt>0</asrwt>
<pdfrwt beam="1">  1       21 0.57203361E-02 0.44808454E+03</pdfrwt>
<pdfrwt beam="2">  1       21 0.18976694E+00 0.44808454E+03</pdfrwt>
<totfact> 0.29848156E+04</totfact>
</mgrwt>
</event>
<event>
 7    0  0.4712189E-002  0.4475405E+03  0.7546771E-02  0.1028458E+00
         21   -1    0    0  502  501  0.00000000000E+00  0.00000000000E+00  0.15689176137E+03  0.15689176137E+03  0.00000000000E+00 0. -1.
         21   -1    0    0  501  502 -0.00000000000E+00 -0.00000000000E+00 -0.31915717561E+03  0.31915717561E+03  0.00000000000E+00 0. -1.
      99926    2    1    2    0    0  0.00000000000E+00 -0.71054273576E-14 -0.16226541424E+03  0.47604893698E+03  0.44754052972E+03 0.  0.
      99925    2    3    3    0    0 -0.76273094307E+02 -0.44763165257E+02 -0.40635669944E+02  0.28044058165E+03  0.26301014483E+03 0.  0.
         25    1    3    3    0    0  0.76273094307E+02  0.44763165257E+02 -0.12162974430E+03  0.19560835533E+03  0.12509000000E+03 0.  0.
         25    1    4    4    0    0 -0.49632807282E+02  0.16020585747E+02 -0.12842416995E+02  0.13613416361E+03  0.12509000000E+03 0.  0.
         25    1    4    4    0    0 -0.26640287024E+02 -0.60783751003E+02 -0.27793252950E+02  0.14430641804E+03  0.12509000000E+03 0.  0.
<mgrwt>
<rscale>  2 0.44754053E+03</rscale>
<asrwt>0</asrwt>
<pdfrwt beam="1">  1       21 0.23072318E-01 0.44754053E+03</pdfrwt>
<pdfrwt beam="2">  1       21 0.46934878E-01 0.44754053E+03</pdfrwt>
<totfact> 0.71106687E+04</totfact>
</mgrwt>
</event>
<event>
 7    0  0.4712189E-002  0.4556462E+03  0.7546771E-02  0.1026052E+00
         21   -1    0    0  502  501  0.00000000000E+00  0.00000000000E+00  0.35481071069E+02  0.35481071069E+02  0.00000000000E+00 0.  1.
         21   -1    0    0  501  502 -0.00000000000E+00 -0.00000000000E+00 -0.14628464307E+04  0.14628464307E+04  0.00000000000E+00 0.  1.
      99926    2    1    2    0    0 -0.71054273576E-14  0.00000000000E+00 -0.14273653597E+04  0.14983275018E+04  0.45564617050E+03 0.  0.
      99925    2    3    3    0    0 -0.40198027938E+02 -0.53977626030E+02 -0.59597704356E+03  0.65489196436E+03  0.26299312343E+03 0.  0.
         25    1    4    4    0    0  0.16551865006E+02 -0.72977143902E+01 -0.27674476224E+03  0.30424068170E+03  0.12509000000E+03 0.  0.
         25    1    4    4    0    0 -0.56749892945E+02 -0.46679911640E+02 -0.31923228132E+03  0.35065128267E+03  0.12509000000E+03 0.  0.
         25    1    3    3    0    0  0.40198027938E+02  0.53977626030E+02 -0.83138831610E+03  0.84343553744E+03  0.12509000000E+03 0.  0.
<mgrwt>
<rscale>  2 0.45564617E+03</rscale>
<asrwt>0</asrwt>
<pdfrwt beam="1">  1       21 0.52178040E-02 0.45564617E+03</pdfrwt>
<pdfrwt beam="2">  1       21 0.21512450E+00 0.45564617E+03</pdfrwt>
<totfact> 0.23700957E+04</totfact>
</mgrwt>
</event>
<event>
 7    0  0.4712189E-002  0.4768182E+03  0.7546771E-02  0.1020013E+00
         21   -1    0    0  502  501  0.00000000000E+00  0.00000000000E+00  0.59332555664E+03  0.59332555664E+03  0.00000000000E+00 0.  1.
         21   -1    0    0  501  502 -0.00000000000E+00 -0.00000000000E+00 -0.95797145563E+02  0.95797145563E+02  0.00000000000E+00 0.  1.
      99926    2    1    2    0    0  0.71054273576E-14  0.00000000000E+00  0.49752841107E+03  0.68912270220E+03  0.47681818218E+03 0.  0.
      99925    2    3    3    0    0 -0.53147386115E+02  0.89127931633E+02  0.18808492497E+03  0.33959271487E+03  0.26301870684E+03 0.  0.
         25    1    4    4    0    0 -0.32441758598E+02  0.24775713120E+02  0.48205334478E+02  0.14013410018E+03  0.12509000000E+03 0.  0.
         25    1    3    3    0    0  0.53147386115E+02 -0.89127931633E+02  0.30944348611E+03  0.34952998733E+03  0.12509000000E+03 0.  0.
         25    1    4    4    0    0 -0.20705627517E+02  0.64352218513E+02  0.13987959049E+03  0.19945861469E+03  0.12509000000E+03 0.  0.
<mgrwt>
<rscale>  2 0.47681818E+03</rscale>
<asrwt>0</asrwt>
<pdfrwt beam="1">  1       21 0.87253757E-01 0.47681818E+03</pdfrwt>
<pdfrwt beam="2">  1       21 0.14087816E-01 0.47681818E+03</pdfrwt>
<totfact> 0.45210388E+04</totfact>
</mgrwt>
</event>
<event>
 7    0  0.4712189E-002  0.4529276E+03  0.7546771E-02  0.1026853E+00
         21   -1    0    0  502  501  0.00000000000E+00  0.00000000000E+00  0.18033866530E+03  0.18033866530E+03  0.00000000000E+00 0.  1.
         21   -1    0    0  501  502 -0.00000000000E+00 -0.00000000000E+00 -0.28438629826E+03  0.28438629826E+03  0.00000000000E+00 0.  1.
      99926    2    1    2    0    0  0.14210854715E-13 -0.71054273576E-14 -0.10404763297E+03  0.46472496356E+03  0.45292756797E+03 0.  0.
      99925    2    3    3    0    0  0.83696933637E+02 -0.49157498139E+02 -0.12083271354E+03  0.30550535625E+03  0.26327047254E+03 0.  0.
         25    1    4    4    0    0  0.52620658018E+02  0.15149276012E+02 -0.58910624787E+02  0.14871584995E+03  0.12509000000E+03 0.  0.
         25    1    3    3    0    0 -0.83696933637E+02  0.49157498139E+02  0.16785080575E+02  0.15921960731E+03  0.12509000000E+03 0.  0.
         25    1    4    4    0    0  0.31076275619E+02 -0.64306774151E+02 -0.61922088757E+02  0.15678950629E+03  0.12509000000E+03 0.  0.
<mgrwt>
<rscale>  2 0.45292757E+03</rscale>
<asrwt>0</asrwt>
<pdfrwt beam="1">  1       21 0.26520392E-01 0.45292757E+03</pdfrwt>
<pdfrwt beam="2">  1       21 0.41821514E-01 0.45292757E+03</pdfrwt>
<totfact> 0.68956988E+04</totfact>
</mgrwt>
</event>
<event>
 7    0  0.4712189E-002  0.4624132E+03  0.7546771E-02  0.1024084E+00
         21   -1    0    0  502  501  0.00000000000E+00  0.00000000000E+00  0.11460926829E+04  0.11460926829E+04  0.00000000000E+00 0.  1.
         21   -1    0    0  501  502 -0.00000000000E+00 -0.00000000000E+00 -0.46642376057E+02  0.46642376057E+02  0.00000000000E+00 0.  1.
      99926    2    1    2    0    0 -0.22204460493E-14  0.14210854715E-13  0.10994503069E+04  0.11927350590E+04  0.46241317418E+03 0.  0.
      99925    2    3    3    0    0  0.38465369248E+01 -0.71701567315E+02  0.93528376369E+03  0.97420800665E+03  0.26300116160E+03 0.  0.
         25    1    4    4    0    0  0.36299451980E+02 -0.58259769309E+02  0.48486959526E+03  0.50542841574E+03  0.12509000000E+03 0.  0.
         25    1    3    3    0    0 -0.38465369248E+01  0.71701567315E+02  0.16416654319E+03  0.21852705234E+03  0.12509000000E+03 0.  0.
         25    1    4    4    0    0 -0.32452915055E+02 -0.13441798006E+02  0.45041416843E+03  0.46877959091E+03  0.12509000000E+03 0.  0.
<mgrwt>
<rscale>  2 0.46241317E+03</rscale>
<asrwt>0</asrwt>
<pdfrwt beam="1">  1       21 0.16854302E+00 0.46241317E+03</pdfrwt>
<pdfrwt beam="2">  1       21 0.68591737E-02 0.46241317E+03</pdfrwt>
<totfact> 0.30582304E+04</totfact>
</mgrwt>
</event>
<event>
 7    0  0.4712189E-002  0.4579549E+03  0.7546771E-02  0.1025376E+00
         21   -1    0    0  502  501  0.00000000000E+00  0.00000000000E+00  0.13284672585E+03  0.13284672585E+03  0.00000000000E+00 0.  1.
         21   -1    0    0  501  502 -0.00000000000E+00 -0.00000000000E+00 -0.39467045110E+03  0.39467045110E+03  0.00000000000E+00 0.  1.
      99926    2    1    2    0    0  0.00000000000E+00  0.00000000000E+00 -0.26182372525E+03  0.52751717695E+03  0.45795492013E+03 0.  0.
      99925    2    3    3    0    0 -0.81574655797E+02 -0.70397458394E+02 -0.11524095083E+03  0.30673618937E+03  0.26305206045E+03 0.  0.
         25    1    4    4    0    0 -0.78807364716E+02 -0.32254885928E+02 -0.80470754949E+02  0.17138853200E+03  0.12509000000E+03 0.  0.
         25    1    3    3    0    0  0.81574655797E+02  0.70397458394E+02 -0.14658277443E+03  0.22078098758E+03  0.12509000000E+03 0.  0.
         25    1    4    4    0    0 -0.27672910810E+01 -0.38142572465E+02 -0.34770195879E+02  0.13534765737E+03  0.12509000000E+03 0.  0.
<mgrwt>
<rscale>  2 0.45795492E+03</rscale>
<asrwt>0</asrwt>
<pdfrwt beam="1">  1       21 0.19536283E-01 0.45795492E+03</pdfrwt>
<pdfrwt beam="2">  1       21 0.58039772E-01 0.45795492E+03</pdfrwt>
<totfact> 0.61911942E+04</totfact>
</mgrwt>
</event>
<event>
 7    0  0.4712189E-002  0.4628216E+03  0.7546771E-02  0.1023966E+00
         21   -1    0    0  502  501  0.00000000000E+00  0.00000000000E+00  0.16353169788E+03  0.16353169788E+03  0.00000000000E+00 0. -1.
         21   -1    0    0  501  502 -0.00000000000E+00 -0.00000000000E+00 -0.32746533776E+03  0.32746533776E+03  0.00000000000E+00 0. -1.
      99926    2    1    2    0    0 -0.71054273576E-14  0.00000000000E+00 -0.16393363988E+03  0.49099703564E+03  0.46282161869E+03 0.  0.
      99925    2    3    3    0    0  0.56079818062E+02  0.65819658737E+02 -0.13647952105E+02  0.27719696661E+03  0.26301087093E+03 0.  0.
         25    1    3    3    0    0 -0.56079818062E+02 -0.65819658737E+02 -0.15028568777E+03  0.21380006903E+03  0.12509000000E+03 0.  0.
         25    1    4    4    0    0  0.23567402398E+01  0.23914941548E+02  0.24551683057E+02  0.12972190214E+03  0.12509000000E+03 0.  0.
         25    1    4    4    0    0  0.53723077822E+02  0.41904717189E+02 -0.38199635162E+02  0.14747506447E+03  0.12509000000E+03 0.  0.
<mgrwt>
<rscale>  2 0.46282162E+03</rscale>
<asrwt>0</asrwt>
<pdfrwt beam="1">  1       21 0.24048779E-01 0.46282162E+03</pdfrwt>
<pdfrwt beam="2">  1       21 0.48156667E-01 0.46282162E+03</pdfrwt>
<totfact> 0.61969776E+04</totfact>
</mgrwt>
</event>
<event>
 7    0  0.4712189E-002  0.4536830E+03  0.7546771E-02  0.1026629E+00
         21   -1    0    0  502  501  0.00000000000E+00  0.00000000000E+00  0.62236294496E+03  0.62236294496E+03  0.00000000000E+00 0. -1.
         21   -1    0    0  501  502 -0.00000000000E+00 -0.00000000000E+00 -0.82680141217E+02  0.82680141217E+02  0.00000000000E+00 0. -1.
      99926    2    1    2    0    0  0.00000000000E+00 -0.14210854715E-13  0.53968280374E+03  0.70504308617E+03  0.45368295616E+03 0.  0.
      99925    2    3    3    0    0 -0.34037436159E+02 -0.10647002323E+03  0.32780073823E+03  0.43479147990E+03  0.26286097867E+03 0.  0.
         25    1    3    3    0    0  0.34037436159E+02  0.10647002323E+03  0.21188206551E+03  0.27025160627E+03  0.12509000000E+03 0.  0.
         25    1    4    4    0    0 -0.95792922417E+01 -0.37619062326E+02  0.99816267514E+02  0.16467468552E+03  0.12509000000E+03 0.  0.
         25    1    4    4    0    0 -0.24458143917E+02 -0.68850960905E+02  0.22798447072E+03  0.27011679439E+03  0.12509000000E+03 0.  0.
<mgrwt>
<rscale>  2 0.45368296E+03</rscale>
<asrwt>0</asrwt>
<pdfrwt beam="1">  1       21 0.91523961E-01 0.45368296E+03</pdfrwt>
<pdfrwt beam="2">  1       21 0.12158845E-01 0.45368296E+03</pdfrwt>
<totfact> 0.53178980E+04</totfact>
</mgrwt>
</event>
<event>
 7    0  0.4712189E-002  0.4508190E+03  0.7546771E-02  0.1027478E+00
         21   -1    0    0  502  501  0.00000000000E+00  0.00000000000E+00  0.21325828388E+03  0.21325828388E+03  0.00000000000E+00 0.  1.
         21   -1    0    0  501  502 -0.00000000000E+00 -0.00000000000E+00 -0.23825311361E+03  0.23825311361E+03  0.00000000000E+00 0.  1.
      99926    2    1    2    0    0  0.00000000000E+00  0.00000000000E+00 -0.24994829729E+02  0.45151139750E+03  0.45081903305E+03 0.  0.
      99925    2    3    3    0    0  0.57117282905E+02 -0.59377601672E+02  0.56087163295E+02  0.28118852387E+03  0.26293180197E+03 0.  0.
         25    1    4    4    0    0  0.50088941019E+02 -0.53922300651E+02  0.56602463105E+02  0.15578146054E+03  0.12509000000E+03 0.  0.
         25    1    3    3    0    0 -0.57117282905E+02  0.59377601672E+02 -0.81081993023E+02  0.17032287362E+03  0.12509000000E+03 0.  0.
         25    1    4    4    0    0  0.70283418860E+01 -0.54553010212E+01 -0.51529981029E+00  0.12540706333E+03  0.12509000000E+03 0.  0.
<mgrwt>
<rscale>  2 0.45081903E+03</rscale>
<asrwt>0</asrwt>
<pdfrwt beam="1">  1       21 0.31361512E-01 0.45081903E+03</pdfrwt>
<pdfrwt beam="2">  1       21 0.35037223E-01 0.45081903E+03</pdfrwt>
<totfact> 0.71146077E+04</totfact>
</mgrwt>
</event>
<event>
 7    0  0.4712189E-002  0.4567413E+03  0.7546771E-02  0.1025731E+00
         21   -1    0    0  502  501  0.00000000000E+00  0.00000000000E+00  0.91178263449E+02  0.91178263449E+02  0.00000000000E+00 0. -1.
         21   -1    0    0  501  502 -0.00000000000E+00 -0.00000000000E+00 -0.57199112138E+03  0.57199112138E+03  0.00000000000E+00 0. -1.
      99926    2    1    2    0    0 -0.35527136788E-14  0.00000000000E+00 -0.48081285793E+03  0.66316938483E+03  0.45674131478E+03 0.  0.
      99925    2    3    3    0    0  0.30227700762E+02  0.68504379390E+02 -0.42826647823E+03  0.50820102029E+03  0.26315306717E+03 0.  0.
         25    1    4    4    0    0  0.36882093838E+02  0.95464981821E+01 -0.16290855346E+03  0.20889741350E+03  0.12509000000E+03 0.  0.
         25    1    4    4    0    0 -0.66543930760E+01  0.58957881208E+02 -0.26535792477E+03  0.29930360679E+03  0.12509000000E+03 0.  0.
         25    1    3    3    0    0 -0.30227700762E+02 -0.68504379390E+02 -0.52546379703E+02  0.15496836454E+03  0.12509000000E+03 0.  0.
<mgrwt>
<rscale>  2 0.45674131E+03</rscale>
<asrwt>0</asrwt>
<pdfrwt beam="1">  1       21 0.13408568E-01 0.45674131E+03</pdfrwt>
<pdfrwt beam="2">  1       21 0.84116340E-01 0.45674131E+03</pdfrwt>
<totfact> 0.54200331E+04</totfact>
</mgrwt>
</event>
<event>
 7    0  0.4712189E-002  0.4551648E+03  0.7546771E-02  0.1026193E+00
         21   -1    0    0  502  501  0.00000000000E+00  0.00000000000E+00  0.57742036451E+03  0.57742036451E+03  0.00000000000E+00 0.  1.
         21   -1    0    0  501  502 -0.00000000000E+00 -0.00000000000E+00 -0.89698517646E+02  0.89698517646E+02  0.00000000000E+00 0.  1.
      99926    2    1    2    0    0  0.00000000000E+00  0.00000000000E+00  0.48772184686E+03  0.66711888215E+03  0.45516480864E+03 0.  0.
      99925    2    3    3    0    0  0.10539503996E+03 -0.20973770116E+02  0.35934754357E+03  0.45813208035E+03  0.26307096476E+03 0.  0.
         25    1    4    4    0    0  0.11251394732E+02 -0.19750281676E+02  0.17421930896E+03  0.21567694180E+03  0.12509000000E+03 0.  0.
         25    1    3    3    0    0 -0.10539503996E+03  0.20973770116E+02  0.12837430329E+03  0.20898680180E+03  0.12509000000E+03 0.  0.
         25    1    4    4    0    0  0.94143645230E+02 -0.12234884393E+01  0.18512823461E+03  0.24245513855E+03  0.12509000000E+03 0.  0.
<mgrwt>
<rscale>  2 0.45516481E+03</rscale>
<asrwt>0</asrwt>
<pdfrwt beam="1">  1       21 0.84914758E-01 0.45516481E+03</pdfrwt>
<pdfrwt beam="2">  1       21 0.13190959E-01 0.45516481E+03</pdfrwt>
<totfact> 0.54653674E+04</totfact>
</mgrwt>
</event>
<event>
 7    0  0.4712189E-002  0.4672859E+03  0.7546771E-02  0.1022689E+00
         21   -1    0    0  502  501  0.00000000000E+00  0.00000000000E+00  0.21826414309E+03  0.21826414309E+03  0.00000000000E+00 0.  1.
         21   -1    0    0  501  502 -0.00000000000E+00 -0.00000000000E+00 -0.25010532039E+03  0.25010532039E+03  0.00000000000E+00 0.  1.
      99926    2    1    2    0    0  0.00000000000E+00  0.71054273576E-14 -0.31841177303E+02  0.46836946348E+03  0.46728588011E+03 0.  0.
      99925    2    3    3    0    0  0.95418856201E+02 -0.53642567259E+02  0.39682830851E+02  0.28741235535E+03  0.26277148210E+03 0.  0.
         25    1    4    4    0    0  0.18453407208E+02 -0.45700766732E+02  0.40183083326E+02  0.14032560922E+03  0.12509000000E+03 0.  0.
         25    1    3    3    0    0 -0.95418856201E+02  0.53642567259E+02 -0.71524008154E+02  0.18095710813E+03  0.12509000000E+03 0.  0.
         25    1    4    4    0    0  0.76965448993E+02 -0.79418005274E+01 -0.50025247544E+00  0.14708674613E+03  0.12509000000E+03 0.  0.
<mgrwt>
<rscale>  2 0.46728588E+03</rscale>
<asrwt>0</asrwt>
<pdfrwt beam="1">  1       21 0.32097668E-01 0.46728588E+03</pdfrwt>
<pdfrwt beam="2">  1       21 0.36780194E-01 0.46728588E+03</pdfrwt>
<totfact> 0.61340179E+04</totfact>
</mgrwt>
</event>
<event>
 7    0  0.4712189E-002  0.4626608E+03  0.7546771E-02  0.1024012E+00
         21   -1    0    0  502  501  0.00000000000E+00  0.00000000000E+00  0.22059523189E+03  0.22059523189E+03  0.00000000000E+00 0.  1.
         21   -1    0    0  501  502 -0.00000000000E+00 -0.00000000000E+00 -0.24258801911E+03  0.24258801911E+03  0.00000000000E+00 0.  1.
      99926    2    1    2    0    0  0.00000000000E+00  0.00000000000E+00 -0.21992787218E+02  0.46318325099E+03  0.46266082751E+03 0.  0.
      99925    2    3    3    0    0  0.30637607180E+02 -0.48700791135E+02  0.91793880215E+02  0.28456258081E+03  0.26313364650E+03 0.  0.
         25    1    3    3    0    0 -0.30637607180E+02  0.48700791135E+02 -0.11378666743E+03  0.17862067018E+03  0.12509000000E+03 0.  0.
         25    1    4    4    0    0  0.27155457099E+01 -0.22636899766E+01  0.78201348581E+02  0.14756509581E+03  0.12509000000E+03 0.  0.
         25    1    4    4    0    0  0.27922061470E+02 -0.46437101158E+02  0.13592531634E+02  0.13699748500E+03  0.12509000000E+03 0.  0.
<mgrwt>
<rscale>  2 0.46266083E+03</rscale>
<asrwt>0</asrwt>
<pdfrwt beam="1">  1       21 0.32440475E-01 0.46266083E+03</pdfrwt>
<pdfrwt beam="2">  1       21 0.35674709E-01 0.46266083E+03</pdfrwt>
<totfact> 0.63951125E+04</totfact>
</mgrwt>
</event>
<event>
 7    0  0.4712189E-002  0.4545498E+03  0.7546771E-02  0.1026374E+00
         21   -1    0    0  502  501  0.00000000000E+00  0.00000000000E+00  0.29858287226E+03  0.29858287226E+03  0.00000000000E+00 0.  1.
         21   -1    0    0  501  502 -0.00000000000E+00 -0.00000000000E+00 -0.17299676389E+03  0.17299676389E+03  0.00000000000E+00 0.  1.
      99926    2    1    2    0    0  0.14210854715E-13  0.00000000000E+00  0.12558610837E+03  0.47157963615E+03  0.45454975813E+03 0.  0.
      99925    2    3    3    0    0 -0.10446139334E+03  0.87067822046E+01  0.12018035077E+03  0.30828627722E+03  0.26383540561E+03 0.  0.
         25    1    3    3    0    0  0.10446139334E+03 -0.87067822046E+01  0.54057575950E+01  0.16329335893E+03  0.12509000000E+03 0.  0.
         25    1    4    4    0    0 -0.59255960928E+02 -0.19098484977E+02  0.23912583569E+02  0.14175803606E+03  0.12509000000E+03 0.  0.
         25    1    4    4    0    0 -0.45205432414E+02  0.27805267182E+02  0.96267767202E+02  0.16652824116E+03  0.12509000000E+03 0.  0.
<mgrwt>
<rscale>  2 0.45454976E+03</rscale>
<asrwt>0</asrwt>
<pdfrwt beam="1">  1       21 0.43909246E-01 0.45454976E+03</pdfrwt>
<pdfrwt beam="2">  1       21 0.25440700E-01 0.45454976E+03</pdfrwt>
<totfact> 0.67559438E+04</totfact>
</mgrwt>
</event>
<event>
 7    0  0.4712189E-002  0.4519071E+03  0.7546771E-02  0.1027155E+00
         21   -1    0    0  502  501  0.00000000000E+00  0.00000000000E+00  0.74800924290E+03  0.74800924290E+03  0.00000000000E+00 0. -1.
         21   -1    0    0  501  502 -0.00000000000E+00 -0.00000000000E+00 -0.68254524117E+02  0.68254524117E+02  0.00000000000E+00 0. -1.
      99926    2    1    2    0    0  0.00000000000E+00  0.00000000000E+00  0.67975471879E+03  0.81626376702E+03  0.45190713608E+03 0.  0.
      99925    2    3    3    0    0 -0.98900045709E+01 -0.67381091235E+02  0.27277717132E+03  0.38508369340E+03  0.26314262688E+03 0.  0.
         25    1    3    3    0    0  0.98900045709E+01  0.67381091235E+02  0.40697754746E+03  0.43118007362E+03  0.12509000000E+03 0.  0.
         25    1    4    4    0    0  0.31964279209E+02 -0.40114705964E+02  0.11379503430E+03  0.17671367438E+03  0.12509000000E+03 0.  0.
         25    1    4    4    0    0 -0.41854283780E+02 -0.27266385270E+02  0.15898213702E+03  0.20837001903E+03  0.12509000000E+03 0.  0.
<mgrwt>
<rscale>  2 0.45190714E+03</rscale>
<asrwt>0</asrwt>
<pdfrwt beam="1">  1       21 0.11000135E+00 0.45190714E+03</pdfrwt>
<pdfrwt beam="2">  1       21 0.10037430E-01 0.45190714E+03</pdfrwt>
<totfact> 0.48146078E+04</totfact>
</mgrwt>
</event>
<event>
 7    0  0.4712189E-002  0.4551969E+03  0.7546771E-02  0.1026184E+00
         21   -1    0    0  502  501  0.00000000000E+00  0.00000000000E+00  0.10421467631E+03  0.10421467631E+03  0.00000000000E+00 0.  1.
         21   -1    0    0  501  502 -0.00000000000E+00 -0.00000000000E+00 -0.49706099246E+03  0.49706099246E+03  0.00000000000E+00 0.  1.
      99926    2    1    2    0    0 -0.71054273576E-14  0.14210854715E-13 -0.39284631615E+03  0.60127566877E+03  0.45519688239E+03 0.  0.
      99925    2    3    3    0    0 -0.44003113855E+02  0.86598334317E+02 -0.32438773030E+03  0.42873688585E+03  0.26296838627E+03 0.  0.
         25    1    3    3    0    0  0.44003113855E+02 -0.86598334317E+02 -0.68458585847E+02  0.17253878292E+03  0.12509000000E+03 0.  0.
         25    1    4    4    0    0 -0.20715065189E+02  0.48054914419E+02 -0.22517660132E+03  0.26285052522E+03  0.12509000000E+03 0.  0.
         25    1    4    4    0    0 -0.23288048665E+02  0.38543419898E+02 -0.99211128982E+02  0.16588636063E+03  0.12509000000E+03 0.  0.
<mgrwt>
<rscale>  2 0.45519688E+03</rscale>
<asrwt>0</asrwt>
<pdfrwt beam="1">  1       21 0.15325688E-01 0.45519688E+03</pdfrwt>
<pdfrwt beam="2">  1       21 0.73097204E-01 0.45519688E+03</pdfrwt>
<totfact> 0.58508748E+04</totfact>
</mgrwt>
</event>
<event>
 7    0  0.4712189E-002  0.4557785E+03  0.7546771E-02  0.1026013E+00
         21   -1    0    0  502  501  0.00000000000E+00  0.00000000000E+00  0.46086073298E+02  0.46086073298E+02  0.00000000000E+00 0. -1.
         21   -1    0    0  501  502 -0.00000000000E+00 -0.00000000000E+00 -0.11268807660E+04  0.11268807660E+04  0.00000000000E+00 0. -1.
      99926    2    1    2    0    0  0.00000000000E+00  0.66613381478E-15 -0.10807946927E+04  0.11729668393E+04  0.45577849699E+03 0.  0.
      99925    2    3    3    0    0 -0.10079813056E+03  0.76812988672E+00 -0.54450853605E+03  0.61313543337E+03  0.26321979537E+03 0.  0.
         25    1    3    3    0    0  0.10079813056E+03 -0.76812988672E+00 -0.53628615664E+03  0.55983140592E+03  0.12509000000E+03 0.  0.
         25    1    4    4    0    0 -0.26595492270E+02 -0.75977149128E+01 -0.18309200109E+03  0.22346193063E+03  0.12509000000E+03 0.  0.
         25    1    4    4    0    0 -0.74202638287E+02  0.83658447995E+01 -0.36141653496E+03  0.38967350273E+03  0.12509000000E+03 0.  0.
<mgrwt>
<rscale>  2 0.45577850E+03</rscale>
<asrwt>0</asrwt>
<pdfrwt beam="1">  1       21 0.67773634E-02 0.45577850E+03</pdfrwt>
<pdfrwt beam="2">  1       21 0.16571777E+00 0.45577850E+03</pdfrwt>
<totfact> 0.32825167E+04</totfact>
</mgrwt>
</event>
<event>
 7    0  0.4712189E-002  0.4579046E+03  0.7546771E-02  0.1025391E+00
         21   -1    0    0  502  501  0.00000000000E+00  0.00000000000E+00  0.36335444022E+03  0.36335444022E+03  0.00000000000E+00 0. -1.
         21   -1    0    0  501  502 -0.00000000000E+00 -0.00000000000E+00 -0.14426454336E+03  0.14426454336E+03  0.00000000000E+00 0. -1.
      99926    2    1    2    0    0 -0.14210854715E-13  0.00000000000E+00  0.21908989686E+03  0.50761898359E+03  0.45790462936E+03 0.  0.
      99925    2    3    3    0    0 -0.10711439712E+03  0.43355037261E+02  0.14626209607E+03  0.32240410839E+03  0.26305637235E+03 0.  0.
         25    1    3    3    0    0  0.10711439712E+03 -0.43355037261E+02  0.72827800788E+02  0.18521487520E+03  0.12509000000E+03 0.  0.
         25    1    4    4    0    0 -0.12417183201E+02  0.21206223045E+02  0.49543530035E+02  0.13676973277E+03  0.12509000000E+03 0.  0.
         25    1    4    4    0    0 -0.94697213918E+02  0.22148814216E+02  0.96718566037E+02  0.18563437562E+03  0.12509000000E+03 0.  0.
<mgrwt>
<rscale>  2 0.45790463E+03</rscale>
<asrwt>0</asrwt>
<pdfrwt beam="1">  1       21 0.53434476E-01 0.45790463E+03</pdfrwt>
<pdfrwt beam="2">  1       21 0.21215374E-01 0.45790463E+03</pdfrwt>
<totfact> 0.63267431E+04</totfact>
</mgrwt>
</event>
<event>
 7    0  0.4712189E-002  0.4556797E+03  0.7546771E-02  0.1026042E+00
         21   -1    0    0  502  501  0.00000000000E+00  0.00000000000E+00  0.13769269612E+03  0.13769269612E+03  0.00000000000E+00 0. -1.
         21   -1    0    0  501  502 -0.00000000000E+00 -0.00000000000E+00 -0.37700625929E+03  0.37700625929E+03  0.00000000000E+00 0. -1.
      99926    2    1    2    0    0  0.00000000000E+00  0.35527136788E-14 -0.23931356317E+03  0.51469895541E+03  0.45567974849E+03 0.  0.
      99925    2    3    3    0    0  0.76398772345E+02 -0.17942399019E+02 -0.24362563287E+03  0.36696675126E+03  0.26296852556E+03 0.  0.
         25    1    4    4    0    0  0.66416996808E+02 -0.38257614274E+02 -0.14260532020E+03  0.20459386101E+03  0.12509000000E+03 0.  0.
         25    1    3    3    0    0 -0.76398772345E+02  0.17942399019E+02  0.43120697017E+01  0.14773220415E+03  0.12509000000E+03 0.  0.
         25    1    4    4    0    0  0.99817755377E+01  0.20315215254E+02 -0.10102031267E+03  0.16237289025E+03  0.12509000000E+03 0.  0.
<mgrwt>
<rscale>  2 0.45567975E+03</rscale>
<asrwt>0</asrwt>
<pdfrwt beam="1">  1       21 0.20248926E-01 0.45567975E+03</pdfrwt>
<pdfrwt beam="2">  1       21 0.55442097E-01 0.45567975E+03</pdfrwt>
<totfact> 0.63904475E+04</totfact>
</mgrwt>
</event>
<event>
 7    0  0.4712189E-002  0.4515879E+03  0.7546771E-02  0.1027250E+00
         21   -1    0    0  502  501  0.00000000000E+00  0.00000000000E+00  0.72783185092E+02  0.72783185092E+02  0.00000000000E+00 0. -1.
         21   -1    0    0  501  502 -0.00000000000E+00 -0.00000000000E+00 -0.70047649325E+03  0.70047649325E+03  0.00000000000E+00 0. -1.
      99926    2    1    2    0    0  0.00000000000E+00  0.00000000000E+00 -0.62769330816E+03  0.77325967834E+03  0.45158791065E+03 0.  0.
      99925    2    3    3    0    0 -0.69226414582E+02 -0.70588638562E+02 -0.31445125838E+03  0.42177263417E+03  0.26313021238E+03 0.  0.
         25    1    4    4    0    0  0.59787412232E+01 -0.42579758762E+02 -0.15599902733E+03  0.20452869195E+03  0.12509000000E+03 0.  0.
         25    1    4    4    0    0 -0.75205155805E+02 -0.28008879800E+02 -0.15845223104E+03  0.21724394222E+03  0.12509000000E+03 0.  0.
         25    1    3    3    0    0  0.69226414582E+02  0.70588638562E+02 -0.31324204978E+03  0.35148704418E+03  0.12509000000E+03 0.  0.
<mgrwt>
<rscale>  2 0.45158791E+03</rscale>
<asrwt>0</asrwt>
<pdfrwt beam="1">  1       21 0.10703409E-01 0.45158791E+03</pdfrwt>
<pdfrwt beam="2">  1       21 0.10301125E+00 0.45158791E+03</pdfrwt>
<totfact> 0.50422431E+04</totfact>
</mgrwt>
</event>
<event>
 7    0  0.4712189E-002  0.4495582E+03  0.7546771E-02  0.1027854E+00
         21   -1    0    0  502  501  0.00000000000E+00  0.00000000000E+00  0.60857366585E+02  0.60857366585E+02  0.00000000000E+00 0. -1.
         21   -1    0    0  501  502 -0.00000000000E+00 -0.00000000000E+00 -0.83023061037E+03  0.83023061037E+03  0.00000000000E+00 0. -1.
      99926    2    1    2    0    0  0.00000000000E+00  0.71054273576E-14 -0.76937324379E+03  0.89108797696E+03  0.44955822139E+03 0.  0.
      99925    2    3    3    0    0 -0.42181869913E+02 -0.34004307032E+02 -0.30181318706E+03  0.40406075206E+03  0.26313169407E+03 0.  0.
         25    1    4    4    0    0  0.58013424032E+01 -0.43477200771E+02 -0.12669046427E+03  0.18336276720E+03  0.12509000000E+03 0.  0.
         25    1    3    3    0    0  0.42181869913E+02  0.34004307032E+02 -0.46756005673E+03  0.48702722490E+03  0.12509000000E+03 0.  0.
         25    1    4    4    0    0 -0.47983212316E+02  0.94728937395E+01 -0.17512272279E+03  0.22069798485E+03  0.12509000000E+03 0.  0.
<mgrwt>
<rscale>  2 0.44955822E+03</rscale>
<asrwt>0</asrwt>
<pdfrwt beam="1">  1       21 0.89496135E-02 0.44955822E+03</pdfrwt>
<pdfrwt beam="2">  1       21 0.12209273E+00 0.44955822E+03</pdfrwt>
<totfact> 0.45530608E+04</totfact>
</mgrwt>
</event>
<event>
 7    0  0.4712189E-002  0.4428834E+03  0.7546771E-02  0.1029866E+00
         21   -1    0    0  502  501  0.00000000000E+00  0.00000000000E+00  0.13252503182E+03  0.13252503182E+03  0.00000000000E+00 0.  1.
         21   -1    0    0  501  502 -0.00000000000E+00 -0.00000000000E+00 -0.37001625690E+03  0.37001625690E+03  0.00000000000E+00 0.  1.
      99926    2    1    2    0    0  0.00000000000E+00  0.00000000000E+00 -0.23749122508E+03  0.50254128872E+03  0.44288335358E+03 0.  0.
      99925    2    3    3    0    0  0.23553415118E+02  0.42164037141E+02 -0.49801881200E+02  0.27187406673E+03  0.26287394584E+03 0.  0.
         25    1    3    3    0    0 -0.23553415118E+02 -0.42164037141E+02 -0.18768934388E+03  0.23066722199E+03  0.12509000000E+03 0.  0.
         25    1    4    4    0    0  0.37425215821E+02  0.38996717357E+02  0.58430106427E+00  0.13626899960E+03  0.12509000000E+03 0.  0.
         25    1    4    4    0    0 -0.13871800703E+02  0.31673197842E+01 -0.50386182264E+02  0.13560506713E+03  0.12509000000E+03 0.  0.
<mgrwt>
<rscale>  2 0.44288335E+03</rscale>
<asrwt>0</asrwt>
<pdfrwt beam="1">  1       21 0.19488976E-01 0.44288335E+03</pdfrwt>
<pdfrwt beam="2">  1       21 0.54414155E-01 0.44288335E+03</pdfrwt>
<totfact> 0.71747593E+04</totfact>
</mgrwt>
</event>
<event>
 7    0  0.4712189E-002  0.4499208E+03  0.7546771E-02  0.1027746E+00
         21   -1    0    0  502  501  0.00000000000E+00  0.00000000000E+00  0.48774064447E+03  0.48774064447E+03  0.00000000000E+00 0.  1.
         21   -1    0    0  501  502 -0.00000000000E+00 -0.00000000000E+00 -0.10375839269E+03  0.10375839269E+03  0.00000000000E+00 0.  1.
      99926    2    1    2    0    0  0.14210854715E-13  0.88817841970E-15  0.38398225179E+03  0.59149903716E+03  0.44992081668E+03 0.  0.
      99925    2    3    3    0    0 -0.10712080291E+03 -0.25378741766E+01  0.22128510736E+03  0.35998407841E+03  0.26294510976E+03 0.  0.
         25    1    3    3    0    0  0.10712080291E+03  0.25378741766E+01  0.16269714443E+03  0.23151495875E+03  0.12509000000E+03 0.  0.
         25    1    4    4    0    0 -0.14013853497E+02  0.13865161936E+02  0.10960782445E+03  0.16748138430E+03  0.12509000000E+03 0.  0.
         25    1    4    4    0    0 -0.93106949414E+02 -0.16403036112E+02  0.11167728291E+03  0.19250269411E+03  0.12509000000E+03 0.  0.
<mgrwt>
<rscale>  2 0.44992082E+03</rscale>
<asrwt>0</asrwt>
<pdfrwt beam="1">  1       21 0.71726564E-01 0.44992082E+03</pdfrwt>
<pdfrwt beam="2">  1       21 0.15258587E-01 0.44992082E+03</pdfrwt>
<totfact> 0.61641945E+04</totfact>
</mgrwt>
</event>
<event>
 7    0  0.4712189E-002  0.4880734E+03  0.7546771E-02  0.1016940E+00
         21   -1    0    0  502  501  0.00000000000E+00  0.00000000000E+00  0.48668599768E+03  0.48668599768E+03  0.00000000000E+00 0.  1.
         21   -1    0    0  501  502 -0.00000000000E+00 -0.00000000000E+00 -0.12236620662E+03  0.12236620662E+03  0.00000000000E+00 0.  1.
      99926    2    1    2    0    0  0.14210854715E-13 -0.71054273576E-14  0.36431979107E+03  0.60905220430E+03  0.48807343443E+03 0.  0.
      99925    2    3    3    0    0  0.12624745954E+03 -0.43577098590E+02  0.28311247169E+03  0.40885349955E+03  0.26300404542E+03 0.  0.
         25    1    4    4    0    0  0.10472149918E+03 -0.21404635504E+02  0.17959735429E+03  0.24357230667E+03  0.12509000000E+03 0.  0.
         25    1    4    4    0    0  0.21525960358E+02 -0.22172463086E+02  0.10351511741E+03  0.16528119288E+03  0.12509000000E+03 0.  0.
         25    1    3    3    0    0 -0.12624745954E+03  0.43577098590E+02  0.81207319375E+02  0.20019870475E+03  0.12509000000E+03 0.  0.
<mgrwt>
<rscale>  2 0.48807343E+03</rscale>
<asrwt>0</asrwt>
<pdfrwt beam="1">  1       21 0.71571469E-01 0.48807343E+03</pdfrwt>
<pdfrwt beam="2">  1       21 0.17995031E-01 0.48807343E+03</pdfrwt>
<totfact> 0.45125539E+04</totfact>
</mgrwt>
</event>
<event>
 7    0  0.4712189E-002  0.4587063E+03  0.7546771E-02  0.1025157E+00
         21   -1    0    0  502  501  0.00000000000E+00  0.00000000000E+00  0.13749195698E+04  0.13749195698E+04  0.00000000000E+00 0.  1.
         21   -1    0    0  501  502 -0.00000000000E+00 -0.00000000000E+00 -0.38258864083E+02  0.38258864083E+02  0.00000000000E+00 0.  1.
      99926    2    1    2    0    0  0.35527136788E-14  0.00000000000E+00  0.13366607057E+04  0.14131784339E+04  0.45870627180E+03 0.  0.
      99925    2    3    3    0    0 -0.16944814363E+02 -0.11431449684E+03  0.88641368327E+03  0.93180039092E+03  0.26299775611E+03 0.  0.
         25    1    4    4    0    0 -0.83860736147E+00 -0.98145938385E+02  0.53287574368E+03  0.55609117489E+03  0.12509000000E+03 0.  0.
         25    1    3    3    0    0  0.16944814363E+02  0.11431449684E+03  0.45024702248E+03  0.48137804299E+03  0.12509000000E+03 0.  0.
         25    1    4    4    0    0 -0.16106207001E+02 -0.16168558455E+02  0.35353793958E+03  0.37570921603E+03  0.12509000000E+03 0.  0.
<mgrwt>
<rscale>  2 0.45870627E+03</rscale>
<asrwt>0</asrwt>
<pdfrwt beam="1">  1       21 0.20219402E+00 0.45870627E+03</pdfrwt>
<pdfrwt beam="2">  1       21 0.56263044E-02 0.45870627E+03</pdfrwt>
<totfact> 0.25247924E+04</totfact>
</mgrwt>
</event>
<event>
 7    0  0.4712189E-002  0.4544724E+03  0.7546771E-02  0.1026397E+00
         21   -1    0    0  502  501  0.00000000000E+00  0.00000000000E+00  0.10339856654E+03  0.10339856654E+03  0.00000000000E+00 0. -1.
         21   -1    0    0  501  502 -0.00000000000E+00 -0.00000000000E+00 -0.49939085143E+03  0.49939085143E+03  0.00000000000E+00 0. -1.
      99926    2    1    2    0    0 -0.14210854715E-13  0.00000000000E+00 -0.39599228489E+03  0.60278941797E+03  0.45447243340E+03 0.  0.
      99925    2    3    3    0    0 -0.10663025004E+03  0.32664732254E+02 -0.22786849014E+03  0.36540762966E+03  0.26298610621E+03 0.  0.
         25    1    4    4    0    0 -0.20243718210E+02  0.23800385539E+02 -0.72775940710E+02  0.14805442285E+03  0.12509000000E+03 0.  0.
         25    1    4    4    0    0 -0.86386531827E+02  0.88643467152E+01 -0.15509254943E+03  0.21735320682E+03  0.12509000000E+03 0.  0.
         25    1    3    3    0    0  0.10663025004E+03 -0.32664732254E+02 -0.16812379475E+03  0.23738178830E+03  0.12509000000E+03 0.  0.
<mgrwt>
<rscale>  2 0.45447243E+03</rscale>
<asrwt>0</asrwt>
<pdfrwt beam="1">  1       21 0.15205672E-01 0.45447243E+03</pdfrwt>
<pdfrwt beam="2">  1       21 0.73439831E-01 0.45447243E+03</pdfrwt>
<totfact> 0.58751398E+04</totfact>
</mgrwt>
</event>
<event>
 7    0  0.4712189E-002  0.4428546E+03  0.7546771E-02  0.1029875E+00
         21   -1    0    0  502  501  0.00000000000E+00  0.00000000000E+00  0.10383347986E+04  0.10383347986E+04  0.00000000000E+00 0.  1.
         21   -1    0    0  501  502 -0.00000000000E+00 -0.00000000000E+00 -0.47219894032E+02  0.47219894032E+02  0.00000000000E+00 0.  1.
      99926    2    1    2    0    0  0.00000000000E+00  0.00000000000E+00  0.99111490459E+03  0.10855546927E+04  0.44285464505E+03 0.  0.
      99925    2    3    3    0    0  0.77145003000E+02 -0.65495192196E+02  0.61758008363E+03  0.67884012166E+03  0.26301669033E+03 0.  0.
         25    1    3    3    0    0 -0.77145003000E+02  0.65495192196E+02  0.37353482096E+03  0.40671457099E+03  0.12509000000E+03 0.  0.
         25    1    4    4    0    0  0.10100253232E+01 -0.15804968323E+02  0.30724284655E+03  0.33210915680E+03  0.12509000000E+03 0.  0.
         25    1    4    4    0    0  0.76134977676E+02 -0.49690223872E+02  0.31033723708E+03  0.34673096486E+03  0.12509000000E+03 0.  0.
<mgrwt>
<rscale>  2 0.44285465E+03</rscale>
<asrwt>0</asrwt>
<pdfrwt beam="1">  1       21 0.15269628E+00 0.44285465E+03</pdfrwt>
<pdfrwt beam="2">  1       21 0.69441027E-02 0.44285465E+03</pdfrwt>
<totfact> 0.39622782E+04</totfact>
</mgrwt>
</event>
<event>
 7    0  0.4712189E-002  0.4554556E+03  0.7546771E-02  0.1026108E+00
         21   -1    0    0  502  501  0.00000000000E+00  0.00000000000E+00  0.10311689131E+04  0.10311689131E+04  0.00000000000E+00 0.  1.
         21   -1    0    0  501  502 -0.00000000000E+00 -0.00000000000E+00 -0.50292393446E+02  0.50292393446E+02  0.00000000000E+00 0.  1.
      99926    2    1    2    0    0  0.00000000000E+00 -0.14210854715E-13  0.98087651966E+03  0.10814613066E+04  0.45545560788E+03 0.  0.
      99925    2    3    3    0    0 -0.36156470222E+02 -0.10346310086E+03  0.54638674870E+03  0.61622935069E+03  0.26303655626E+03 0.  0.
         25    1    4    4    0    0  0.12848992260E+01 -0.85720019302E+02  0.32400788220E+03  0.35774039261E+03  0.12509000000E+03 0.  0.
         25    1    3    3    0    0  0.36156470222E+02  0.10346310086E+03  0.43448977096E+03  0.46523195586E+03  0.12509000000E+03 0.  0.
         25    1    4    4    0    0 -0.37441369448E+02 -0.17743081556E+02  0.22237886650E+03  0.25848895809E+03  0.12509000000E+03 0.  0.
<mgrwt>
<rscale>  2 0.45545561E+03</rscale>
<asrwt>0</asrwt>
<pdfrwt beam="1">  1       21 0.15164247E+00 0.45545561E+03</pdfrwt>
<pdfrwt beam="2">  1       21 0.73959409E-02 0.45545561E+03</pdfrwt>
<totfact> 0.36015520E+04</totfact>
</mgrwt>
</event>
<event>
 7    0  0.4712189E-002  0.4795475E+03  0.7546771E-02  0.1019260E+00
         21   -1    0    0  502  501  0.00000000000E+00  0.00000000000E+00  0.80528789708E+02  0.80528789708E+02  0.00000000000E+00 0.  1.
         21   -1    0    0  501  502 -0.00000000000E+00 -0.00000000000E+00 -0.71392413193E+03  0.71392413193E+03  0.00000000000E+00 0.  1.
      99926    2    1    2    0    0  0.00000000000E+00  0.00000000000E+00 -0.63339534222E+03  0.79445292164E+03  0.47954747956E+03 0.  0.
      99925    2    3    3    0    0 -0.16725054076E+02 -0.15570195785E+02 -0.16994009489E+03  0.31386949204E+03  0.26289211428E+03 0.  0.
         25    1    4    4    0    0 -0.46745795068E+02 -0.31001469943E+01 -0.10043135008E+03  0.16711895298E+03  0.12509000000E+03 0.  0.
         25    1    3    3    0    0  0.16725054076E+02  0.15570195785E+02 -0.46345524733E+03  0.48058342960E+03  0.12509000000E+03 0.  0.
         25    1    4    4    0    0  0.30020740992E+02 -0.12470048791E+02 -0.69508744818E+02  0.14675053905E+03  0.12509000000E+03 0.  0.
<mgrwt>
<rscale>  2 0.47954748E+03</rscale>
<asrwt>0</asrwt>
<pdfrwt beam="1">  1       21 0.11842470E-01 0.47954748E+03</pdfrwt>
<pdfrwt beam="2">  1       21 0.10498884E+00 0.47954748E+03</pdfrwt>
<totfact> 0.39795665E+04</totfact>
</mgrwt>
</event>
<event>
 7    0  0.4712189E-002  0.4574391E+03  0.7546771E-02  0.1025527E+00
         21   -1    0    0  502  501  0.00000000000E+00  0.00000000000E+00  0.76530943898E+02  0.76530943898E+02  0.00000000000E+00 0.  1.
         21   -1    0    0  501  502 -0.00000000000E+00 -0.00000000000E+00 -0.68354875899E+03  0.68354875899E+03  0.00000000000E+00 0.  1.
      99926    2    1    2    0    0  0.14210854715E-13  0.71054273576E-14 -0.60701781509E+03  0.76007970289E+03  0.45743909639E+03 0.  0.
      99925    2    3    3    0    0 -0.64795919895E+02 -0.21798994717E+02 -0.53576505537E+03  0.60071166571E+03  0.26293840222E+03 0.  0.
         25    1    4    4    0    0 -0.13885373186E+02  0.17577620856E+02 -0.30547048234E+03  0.33084966378E+03  0.12509000000E+03 0.  0.
         25    1    4    4    0    0 -0.50910546709E+02 -0.39376615573E+02 -0.23029457303E+03  0.26986200193E+03  0.12509000000E+03 0.  0.
         25    1    3    3    0    0  0.64795919895E+02  0.21798994717E+02 -0.71252759728E+02  0.15936803718E+03  0.12509000000E+03 0.  0.
<mgrwt>
<rscale>  2 0.45743910E+03</rscale>
<asrwt>0</asrwt>
<pdfrwt beam="1">  1       21 0.11254550E-01 0.45743910E+03</pdfrwt>
<pdfrwt beam="2">  1       21 0.10052188E+00 0.45743910E+03</pdfrwt>
<totfact> 0.48814333E+04</totfact>
</mgrwt>
</event>
<event>
 6    0  0.4712189E-002  0.4601043E+03  0.7546771E-02  0.1024751E+00
         21   -1    0    0  502  501  0.00000000000E+00  0.00000000000E+00  0.42693193457E+02  0.42693193457E+02  0.00000000000E+00 0. -1.
         21   -1    0    0  501  502 -0.00000000000E+00 -0.00000000000E+00 -0.12396354045E+04  0.12396354045E+04  0.00000000000E+00 0. -1.
      99926    2    1    2    0    0  0.88817841970E-15 -0.14210854715E-13 -0.11969422110E+04  0.12823285979E+04  0.46010431051E+03 0.  0.
         25    1    3    3    0    0  0.29391166920E+02 -0.19219783359E+02 -0.34838953688E+03  0.37182794176E+03  0.12509000000E+03 0.  0.
         25    1    3    3    0    0 -0.69591208083E+01  0.11011622056E+03 -0.53116122515E+03  0.55673491591E+03  0.12509000000E+03 0.  0.
         25    1    3    3    0    0 -0.22432046112E+02 -0.90896437206E+02 -0.31739144897E+03  0.35376574024E+03  0.12509000000E+03 0.  0.
<mgrwt>
<rscale>  2 0.46010431E+03</rscale>
<asrwt>0</asrwt>
<pdfrwt beam="1">  1       21 0.62784097E-02 0.46010431E+03</pdfrwt>
<pdfrwt beam="2">  1       21 0.18229936E+00 0.46010431E+03</pdfrwt>
<totfact> 0.28483970E+04</totfact>
</mgrwt>
</event>
<event>
 7    0  0.4712189E-002  0.4360883E+03  0.7546771E-02  0.1031954E+00
         21   -1    0    0  502  501  0.00000000000E+00  0.00000000000E+00  0.17999743446E+02  0.17999743446E+02  0.00000000000E+00 0. -1.
         21   -1    0    0  501  502 -0.00000000000E+00 -0.00000000000E+00 -0.26413296452E+04  0.26413296452E+04  0.00000000000E+00 0. -1.
      99926    2    1    2    0    0  0.00000000000E+00  0.00000000000E+00 -0.26233299017E+04  0.26593293886E+04  0.43608832119E+03 0.  0.
      99925    2    3    3    0    0  0.10854330366E+02  0.93157400534E+02 -0.16164923629E+04  0.16404253424E+04  0.26296696908E+03 0.  0.
         25    1    3    3    0    0 -0.10854330366E+02 -0.93157400534E+02 -0.10068375388E+04  0.10189040462E+04  0.12509000000E+03 0.  0.
         25    1    4    4    0    0  0.73467805290E+01  0.84966077681E+02 -0.77624842562E+03  0.79087441223E+03  0.12509000000E+03 0.  0.
         25    1    4    4    0    0  0.35075498370E+01  0.81913228537E+01 -0.84024393732E+03  0.84955093019E+03  0.12509000000E+03 0.  0.
<mgrwt>
<rscale>  2 0.43608832E+03</rscale>
<asrwt>0</asrwt>
<pdfrwt beam="1">  1       21 0.26470242E-02 0.43608832E+03</pdfrwt>
<pdfrwt beam="2">  1       21 0.38843037E+00 0.43608832E+03</pdfrwt>
<totfact> 0.65461071E+03</totfact>
</mgrwt>
</event>
<event>
 7    0  0.4712189E-002  0.4552547E+03  0.7546771E-02  0.1026167E+00
         21   -1    0    0  502  501  0.00000000000E+00  0.00000000000E+00  0.26942568571E+02  0.26942568571E+02  0.00000000000E+00 0.  1.
         21   -1    0    0  501  502 -0.00000000000E+00 -0.00000000000E+00 -0.19231350976E+04  0.19231350976E+04  0.00000000000E+00 0.  1.
      99926    2    1    2    0    0  0.00000000000E+00  0.00000000000E+00 -0.18961925291E+04  0.19500776662E+04  0.45525465067E+03 0.  0.
      99925    2    3    3    0    0 -0.34256932173E+02  0.97453969524E+02 -0.99143409931E+03  0.10308899063E+04  0.26290989357E+03 0.  0.
         25    1    4    4    0    0 -0.26399091897E+02  0.69267529375E+02 -0.65055891151E+03  0.66661031204E+03  0.12509000000E+03 0.  0.
         25    1    4    4    0    0 -0.78578402754E+01  0.28186440150E+02 -0.34087518781E+03  0.36427959430E+03  0.12509000000E+03 0.  0.
         25    1    3    3    0    0  0.34256932173E+02 -0.97453969524E+02 -0.90475842977E+03  0.91918775988E+03  0.12509000000E+03 0.  0.
<mgrwt>
<rscale>  2 0.45525465E+03</rscale>
<asrwt>0</asrwt>
<pdfrwt beam="1">  1       21 0.39621428E-02 0.45525465E+03</pdfrwt>
<pdfrwt beam="2">  1       21 0.28281396E+00 0.45525465E+03</pdfrwt>
<totfact> 0.14513551E+04</totfact>
</mgrwt>
</event>
<event>
 7    0  0.4712189E-002  0.4536684E+03  0.7546771E-02  0.1026634E+00
         21   -1    0    0  502  501  0.00000000000E+00  0.00000000000E+00  0.63906345888E+03  0.63906345888E+03  0.00000000000E+00 0.  1.
         21   -1    0    0  501  502 -0.00000000000E+00 -0.00000000000E+00 -0.80514309769E+02  0.80514309769E+02  0.00000000000E+00 0.  1.
      99926    2    1    2    0    0  0.14210854715E-13 -0.14210854715E-13  0.55854914911E+03  0.71957776865E+03  0.45366839560E+03 0.  0.
      99925    2    3    3    0    0 -0.86665815936E+02  0.68793847993E+02  0.37536857369E+03  0.47169435153E+03  0.26334471321E+03 0.  0.
         25    1    3    3    0    0  0.86665815936E+02 -0.68793847993E+02  0.18318057542E+03  0.24788341712E+03  0.12509000000E+03 0.  0.
         25    1    4    4    0    0 -0.18503322304E+02  0.61997761161E+02  0.21571475046E+03  0.25761688026E+03  0.12509000000E+03 0.  0.
         25    1    4    4    0    0 -0.68162493632E+02  0.67960868321E+01  0.15965382323E+03  0.21407747127E+03  0.12509000000E+03 0.  0.
<mgrwt>
<rscale>  2 0.45366840E+03</rscale>
<asrwt>0</asrwt>
<pdfrwt beam="1">  1       21 0.93979918E-01 0.45366840E+03</pdfrwt>
<pdfrwt beam="2">  1       21 0.11840340E-01 0.45366840E+03</pdfrwt>
<totfact> 0.52399585E+04</totfact>
</mgrwt>
</event>
<event>
 7    0  0.4712189E-002  0.4572037E+03  0.7546771E-02  0.1025595E+00
         21   -1    0    0  502  501  0.00000000000E+00  0.00000000000E+00  0.31320970048E+03  0.31320970048E+03  0.00000000000E+00 0. -1.
         21   -1    0    0  501  502 -0.00000000000E+00 -0.00000000000E+00 -0.16684925477E+03  0.16684925477E+03  0.00000000000E+00 0. -1.
      99926    2    1    2    0    0  0.88817841970E-15  0.14210854715E-13  0.14636044571E+03  0.48005895525E+03  0.45720369689E+03 0.  0.
      99925    2    3    3    0    0  0.73656605750E+01  0.10882056198E+03  0.13094972347E+03  0.31338212385E+03  0.26299117439E+03 0.  0.
         25    1    4    4    0    0  0.15932145319E+01  0.59702809735E+02  0.11061545109E+03  0.17734218320E+03  0.12509000000E+03 0.  0.
         25    1    4    4    0    0  0.57724460431E+01  0.49117752244E+02  0.20334272377E+02  0.13603994065E+03  0.12509000000E+03 0.  0.
         25    1    3    3    0    0 -0.73656605750E+01 -0.10882056198E+03  0.15410722244E+02  0.16667683140E+03  0.12509000000E+03 0.  0.
<mgrwt>
<rscale>  2 0.45720370E+03</rscale>
<asrwt>0</asrwt>
<pdfrwt beam="1">  1       21 0.46060250E-01 0.45720370E+03</pdfrwt>
<pdfrwt beam="2">  1       21 0.24536655E-01 0.45720370E+03</pdfrwt>
<totfact> 0.65541888E+04</totfact>
</mgrwt>
</event>
<event>
 7    0  0.4712189E-002  0.4570795E+03  0.7546771E-02  0.1025632E+00
         21   -1    0    0  502  501  0.00000000000E+00  0.00000000000E+00  0.17549281359E+03  0.17549281359E+03  0.00000000000E+00 0.  1.
         21   -1    0    0  501  502 -0.00000000000E+00 -0.00000000000E+00 -0.29762141458E+03  0.29762141458E+03  0.00000000000E+00 0.  1.
      99926    2    1    2    0    0  0.00000000000E+00  0.35527136788E-14 -0.12212860098E+03  0.47311422817E+03  0.45707950919E+03 0.  0.
      99925    2    3    3    0    0 -0.58968770348E+02  0.22498905852E+02  0.23023481103E+02  0.27137144224E+03  0.26292368159E+03 0.  0.
         25    1    3    3    0    0  0.58968770348E+02 -0.22498905852E+02 -0.14515208209E+03  0.20174278593E+03  0.12509000000E+03 0.  0.
         25    1    4    4    0    0 -0.19028554250E+02 -0.25836158227E+02  0.24476155626E+02  0.13143889547E+03  0.12509000000E+03 0.  0.
         25    1    4    4    0    0 -0.39940216097E+02  0.48335064080E+02 -0.14526745227E+01  0.13993254677E+03  0.12509000000E+03 0.  0.
<mgrwt>
<rscale>  2 0.45707951E+03</rscale>
<asrwt>0</asrwt>
<pdfrwt beam="1">  1       21 0.25807767E-01 0.45707951E+03</pdfrwt>
<pdfrwt beam="2">  1       21 0.43767855E-01 0.45707951E+03</pdfrwt>
<totfact> 0.66107426E+04</totfact>
</mgrwt>
</event>
<event>
 7    0  0.4712189E-002  0.4584105E+03  0.7546771E-02  0.1025243E+00
         21   -1    0    0  502  501  0.00000000000E+00  0.00000000000E+00  0.39376480920E+03  0.39376480920E+03  0.00000000000E+00 0.  1.
         21   -1    0    0  501  502 -0.00000000000E+00 -0.00000000000E+00 -0.13341731760E+03  0.13341731760E+03  0.00000000000E+00 0.  1.
      99926    2    1    2    0    0 -0.14210854715E-13  0.00000000000E+00  0.26034749160E+03  0.52718212680E+03  0.45841049119E+03 0.  0.
      99925    2    3    3    0    0  0.99504925010E+02  0.20659679116E+01  0.93984070055E+02  0.29646629628E+03  0.26297102707E+03 0.  0.
         25    1    3    3    0    0 -0.99504925010E+02 -0.20659679116E+01  0.16636342155E+03  0.23071583052E+03  0.12509000000E+03 0.  0.
         25    1    4    4    0    0  0.82511741762E+02 -0.98944683517E+01  0.25427661386E+02  0.15231599422E+03  0.12509000000E+03 0.  0.
         25    1    4    4    0    0  0.16993183248E+02  0.11960436263E+02  0.68556408668E+02  0.14415030205E+03  0.12509000000E+03 0.  0.
<mgrwt>
<rscale>  2 0.45841049E+03</rscale>
<asrwt>0</asrwt>
<pdfrwt beam="1">  1       21 0.57906589E-01 0.45841049E+03</pdfrwt>
<pdfrwt beam="2">  1       21 0.19620194E-01 0.45841049E+03</pdfrwt>
<totfact> 0.61712295E+04</totfact>
</mgrwt>
</event>
<event>
 7    0  0.4712189E-002  0.4553181E+03  0.7546771E-02  0.1026148E+00
         21   -1    0    0  502  501  0.00000000000E+00  0.00000000000E+00  0.19705130845E+03  0.19705130845E+03  0.00000000000E+00 0.  1.
         21   -1    0    0  501  502 -0.00000000000E+00 -0.00000000000E+00 -0.26302109058E+03  0.26302109058E+03  0.00000000000E+00 0.  1.
      99926    2    1    2    0    0  0.00000000000E+00  0.00000000000E+00 -0.65969782128E+02  0.46007239903E+03  0.45531813076E+03 0.  0.
      99925    2    3    3    0    0  0.19084534024E+02 -0.76063150833E+02  0.41299847959E+02  0.27757827860E+03  0.26304790620E+03 0.  0.
         25    1    4    4    0    0  0.27328011554E+02 -0.41628978480E+02 -0.15848687621E+02  0.13556725661E+03  0.12509000000E+03 0.  0.
         25    1    4    4    0    0 -0.82434775306E+01 -0.34434172353E+02  0.57148535580E+02  0.14201102199E+03  0.12509000000E+03 0.  0.
         25    1    3    3    0    0 -0.19084534024E+02  0.76063150833E+02 -0.10726963009E+03  0.18249412043E+03  0.12509000000E+03 0.  0.
<mgrwt>
<rscale>  2 0.45531813E+03</rscale>
<asrwt>0</asrwt>
<pdfrwt beam="1">  1       21 0.28978134E-01 0.45531813E+03</pdfrwt>
<pdfrwt beam="2">  1       21 0.38679572E-01 0.45531813E+03</pdfrwt>
<totfact> 0.68002613E+04</totfact>
</mgrwt>
</event>
<event>
 7    0  0.4712189E-002  0.4536218E+03  0.7546771E-02  0.1026647E+00
         21   -1    0    0  502  501  0.00000000000E+00  0.00000000000E+00  0.24088897253E+03  0.24088897253E+03  0.00000000000E+00 0. -1.
         21   -1    0    0  501  502 -0.00000000000E+00 -0.00000000000E+00 -0.21355556534E+03  0.21355556534E+03  0.00000000000E+00 0. -1.
      99926    2    1    2    0    0  0.00000000000E+00  0.00000000000E+00  0.27333407194E+02  0.45444453787E+03  0.45362178392E+03 0.  0.
      99925    2    3    3    0    0 -0.22330448036E+02 -0.56539447731E+02 -0.76771085490E+02  0.28071885883E+03  0.26308538552E+03 0.  0.
         25    1    4    4    0    0 -0.76015984537E+00  0.39169045244E+01 -0.11414895755E+02  0.12567309946E+03  0.12509000000E+03 0.  0.
         25    1    4    4    0    0 -0.21570288191E+02 -0.60456352255E+02 -0.65356189735E+02  0.15504575937E+03  0.12509000000E+03 0.  0.
         25    1    3    3    0    0  0.22330448036E+02  0.56539447731E+02  0.10410449268E+03  0.17372567903E+03  0.12509000000E+03 0.  0.
<mgrwt>
<rscale>  2 0.45362178E+03</rscale>
<asrwt>0</asrwt>
<pdfrwt beam="1">  1       21 0.35424849E-01 0.45362178E+03</pdfrwt>
<pdfrwt beam="2">  1       21 0.31405230E-01 0.45362178E+03</pdfrwt>
<totfact> 0.69345972E+04</totfact>
</mgrwt>
</event>
<event>
 7    0  0.4712189E-002  0.4744782E+03  0.7546771E-02  0.1020664E+00
         21   -1    0    0  502  501  0.00000000000E+00  0.00000000000E+00  0.20198812267E+03  0.20198812267E+03  0.00000000000E+00 0.  1.
         21   -1    0    0  501  502 -0.00000000000E+00 -0.00000000000E+00 -0.27864202163E+03  0.27864202163E+03  0.00000000000E+00 0.  1.
      99926    2    1    2    0    0  0.17763568394E-14  0.88817841970E-15 -0.76653898960E+02  0.48063014431E+03  0.47447815060E+03 0.  0.
      99925    2    3    3    0    0 -0.15531084062E+02 -0.43555831040E+01  0.83847000778E+02  0.27650216339E+03  0.26298848101E+03 0.  0.
         25    1    4    4    0    0 -0.85179387646E+01 -0.21987391661E+02  0.79149801446E+02  0.14989396199E+03  0.12509000000E+03 0.  0.
         25    1    3    3    0    0  0.15531084062E+02  0.43555831040E+01 -0.16050089974E+03  0.20412798092E+03  0.12509000000E+03 0.  0.
         25    1    4    4    0    0 -0.70131452974E+01  0.17631808557E+02  0.46971993314E+01  0.12660820140E+03  0.12509000000E+03 0.  0.
<mgrwt>
<rscale>  2 0.47447815E+03</rscale>
<asrwt>0</asrwt>
<pdfrwt beam="1">  1       21 0.29704136E-01 0.47447815E+03</pdfrwt>
<pdfrwt beam="2">  1       21 0.40976768E-01 0.47447815E+03</pdfrwt>
<totfact> 0.57270582E+04</totfact>
</mgrwt>
</event>
<event>
 7    0  0.4712189E-002  0.4506936E+03  0.7546771E-02  0.1027515E+00
         21   -1    0    0  502  501  0.00000000000E+00  0.00000000000E+00  0.16937786744E+03  0.16937786744E+03  0.00000000000E+00 0.  1.
         21   -1    0    0  501  502 -0.00000000000E+00 -0.00000000000E+00 -0.29981005630E+03  0.29981005630E+03  0.00000000000E+00 0.  1.
      99926    2    1    2    0    0  0.00000000000E+00  0.00000000000E+00 -0.13043218886E+03  0.46918792374E+03  0.45069363418E+03 0.  0.
      99925    2    3    3    0    0  0.78124738328E+02  0.76140442552E+02 -0.77667967759E+02  0.29502589326E+03  0.26288233632E+03 0.  0.
         25    1    4    4    0    0  0.25480403252E+02  0.72012290529E+02 -0.21711817059E+02  0.14816859329E+03  0.12509000000E+03 0.  0.
         25    1    4    4    0    0  0.52644335076E+02  0.41281520226E+01 -0.55956150700E+02  0.14685729997E+03  0.12509000000E+03 0.  0.
         25    1    3    3    0    0 -0.78124738328E+02 -0.76140442552E+02 -0.52764221096E+02  0.17416203047E+03  0.12509000000E+03 0.  0.
<mgrwt>
<rscale>  2 0.45069363E+03</rscale>
<asrwt>0</asrwt>
<pdfrwt beam="1">  1       21 0.24908510E-01 0.45069363E+03</pdfrwt>
<pdfrwt beam="2">  1       21 0.44089714E-01 0.45069363E+03</pdfrwt>
<totfact> 0.69852435E+04</totfact>
</mgrwt>
</event>
<event>
 7    0  0.4712189E-002  0.4540786E+03  0.7546771E-02  0.1026513E+00
         21   -1    0    0  502  501  0.00000000000E+00  0.00000000000E+00  0.43060969691E+03  0.43060969691E+03  0.00000000000E+00 0.  1.
         21   -1    0    0  501  502 -0.00000000000E+00 -0.00000000000E+00 -0.11970662729E+03  0.11970662729E+03  0.00000000000E+00 0.  1.
      99926    2    1    2    0    0  0.00000000000E+00  0.71054273576E-14  0.31090306962E+03  0.55031632419E+03  0.45407855926E+03 0.  0.
      99925    2    3    3    0    0 -0.62623853029E+02 -0.49280757272E+02  0.29172486130E+03  0.40076482210E+03  0.26298043259E+03 0.  0.
         25    1    4    4    0    0 -0.69663282158E+02 -0.41829930094E+02  0.16418266019E+03  0.22182463781E+03  0.12509000000E+03 0.  0.
         25    1    3    3    0    0  0.62623853029E+02  0.49280757272E+02  0.19178208314E+02  0.14955150210E+03  0.12509000000E+03 0.  0.
         25    1    4    4    0    0  0.70394291292E+01 -0.74508271776E+01  0.12754220111E+03  0.17894018429E+03  0.12509000000E+03 0.  0.
<mgrwt>
<rscale>  2 0.45407856E+03</rscale>
<asrwt>0</asrwt>
<pdfrwt beam="1">  1       21 0.63324955E-01 0.45407856E+03</pdfrwt>
<pdfrwt beam="2">  1       21 0.17603916E-01 0.45407856E+03</pdfrwt>
<totfact> 0.62298547E+04</totfact>
</mgrwt>
</event>
<event>
 7    0  0.4712189E-002  0.4567537E+03  0.7546771E-02  0.1025727E+00
         21   -1    0    0  502  501  0.00000000000E+00  0.00000000000E+00  0.40249896141E+03  0.40249896141E+03  0.00000000000E+00 0.  1.
         21   -1    0    0  501  502 -0.00000000000E+00 -0.00000000000E+00 -0.12958044369E+03  0.12958044369E+03  0.00000000000E+00 0.  1.
      99926    2    1    2    0    0  0.00000000000E+00  0.00000000000E+00  0.27291851772E+03  0.53207940510E+03  0.45675373673E+03 0.  0.
      99925    2    3    3    0    0 -0.37903438180E+02 -0.10313910772E+03  0.13302575313E+03  0.31461253440E+03  0.26307955002E+03 0.  0.
         25    1    4    4    0    0 -0.23988209291E+02 -0.79153571894E+02  0.36895024712E+02  0.15443274613E+03  0.12509000000E+03 0.  0.
         25    1    3    3    0    0  0.37903438180E+02  0.10313910772E+03  0.13989276459E+03  0.21746687070E+03  0.12509000000E+03 0.  0.
         25    1    4    4    0    0 -0.13915228888E+02 -0.23985535825E+02  0.96130728420E+02  0.16017978827E+03  0.12509000000E+03 0.  0.
<mgrwt>
<rscale>  2 0.45675374E+03</rscale>
<asrwt>0</asrwt>
<pdfrwt beam="1">  1       21 0.59191023E-01 0.45675374E+03</pdfrwt>
<pdfrwt beam="2">  1       21 0.19055948E-01 0.45675374E+03</pdfrwt>
<totfact> 0.62196948E+04</totfact>
</mgrwt>
</event>
<event>
 7    0  0.4712189E-002  0.4554579E+03  0.7546771E-02  0.1026107E+00
         21   -1    0    0  502  501  0.00000000000E+00  0.00000000000E+00  0.24267149784E+04  0.24267149784E+04  0.00000000000E+00 0. -1.
         21   -1    0    0  501  502 -0.00000000000E+00 -0.00000000000E+00 -0.21370647984E+02  0.21370647984E+02  0.00000000000E+00 0. -1.
      99926    2    1    2    0    0  0.00000000000E+00 -0.88817841970E-15  0.24053443305E+04  0.24480856264E+04  0.45545788636E+03 0.  0.
      99925    2    3    3    0    0  0.81388284714E+02 -0.27541830008E+01  0.19385820708E+04  0.19580385332E+04  0.26302626097E+03 0.  0.
         25    1    3    3    0    0 -0.81388284714E+02  0.27541830008E+01  0.46676225971E+03  0.49004709325E+03  0.12509000000E+03 0.  0.
         25    1    4    4    0    0  0.66926295581E+02 -0.26970161894E+02  0.11623289320E+04  0.11712653725E+04  0.12509000000E+03 0.  0.
         25    1    4    4    0    0  0.14461989133E+02  0.24215978893E+02  0.77625313878E+03  0.78677316065E+03  0.12509000000E+03 0.  0.
<mgrwt>
<rscale>  2 0.45545789E+03</rscale>
<asrwt>0</asrwt>
<pdfrwt beam="1">  1       21 0.35686966E+00 0.45545789E+03</pdfrwt>
<pdfrwt beam="2">  1       21 0.31427440E-02 0.45545789E+03</pdfrwt>
<totfact> 0.76504871E+03</totfact>
</mgrwt>
</event>
<event>
 7    0  0.4712189E-002  0.4518091E+03  0.7546771E-02  0.1027184E+00
         21   -1    0    0  502  501  0.00000000000E+00  0.00000000000E+00  0.30051862308E+02  0.30051862308E+02  0.00000000000E+00 0. -1.
         21   -1    0    0  501  502 -0.00000000000E+00 -0.00000000000E+00 -0.16981596703E+04  0.16981596703E+04  0.00000000000E+00 0. -1.
      99926    2    1    2    0    0  0.14210854715E-13  0.00000000000E+00 -0.16681078080E+04  0.17282115326E+04  0.45180907733E+03 0.  0.
      99925    2    3    3    0    0 -0.83721413816E+02 -0.71108389856E+02 -0.10810702065E+04  0.11180260428E+04  0.26306608083E+03 0.  0.
         25    1    3    3    0    0  0.83721413816E+02  0.71108389856E+02 -0.58703760154E+03  0.61018548980E+03  0.12509000000E+03 0.  0.
         25    1    4    4    0    0 -0.62278073215E+02 -0.35116680644E+00 -0.53880140703E+03  0.55662657684E+03  0.12509000000E+03 0.  0.
         25    1    4    4    0    0 -0.21443340602E+02 -0.70757223050E+02 -0.54226879943E+03  0.56139946598E+03  0.12509000000E+03 0.  0.
<mgrwt>
<rscale>  2 0.45180908E+03</rscale>
<asrwt>0</asrwt>
<pdfrwt beam="1">  1       21 0.44193912E-02 0.45180908E+03</pdfrwt>
<pdfrwt beam="2">  1       21 0.24972938E+00 0.45180908E+03</pdfrwt>
<totfact> 0.19150569E+04</totfact>
</mgrwt>
</event>
<event>
 7    0  0.4712189E-002  0.4629600E+03  0.7546771E-02  0.1023926E+00
         21   -1    0    0  502  501  0.00000000000E+00  0.00000000000E+00  0.58802411971E+03  0.58802411971E+03  0.00000000000E+00 0.  1.
         21   -1    0    0  501  502 -0.00000000000E+00 -0.00000000000E+00 -0.91123782037E+02  0.91123782037E+02  0.00000000000E+00 0.  1.
      99926    2    1    2    0    0  0.00000000000E+00  0.00000000000E+00  0.49690033768E+03  0.67914790175E+03  0.46295996249E+03 0.  0.
      99925    2    3    3    0    0 -0.43742938482E+02  0.32610497217E+02  0.15263915756E+03  0.30882350689E+03  0.26286185876E+03 0.  0.
         25    1    4    4    0    0 -0.29254759510E+02  0.26126401259E+02  0.12195625647E+03  0.17905101616E+03  0.12509000000E+03 0.  0.
         25    1    4    4    0    0 -0.14488178972E+02  0.64840959588E+01  0.30682901097E+02  0.12977249073E+03  0.12509000000E+03 0.  0.
         25    1    3    3    0    0  0.43742938482E+02 -0.32610497217E+02  0.34426118011E+03  0.37032439486E+03  0.12509000000E+03 0.  0.
<mgrwt>
<rscale>  2 0.46295996E+03</rscale>
<asrwt>0</asrwt>
<pdfrwt beam="1">  1       21 0.86474133E-01 0.46295996E+03</pdfrwt>
<pdfrwt beam="2">  1       21 0.13400556E-01 0.46295996E+03</pdfrwt>
<totfact> 0.50788516E+04</totfact>
</mgrwt>
</event>
<event>
 7    0  0.4712189E-002  0.4584986E+03  0.7546771E-02  0.1025218E+00
         21   -1    0    0  502  501  0.00000000000E+00  0.00000000000E+00  0.77140697196E+02  0.77140697196E+02  0.00000000000E+00 0. -1.
         21   -1    0    0  501  502 -0.00000000000E+00 -0.00000000000E+00 -0.68129074004E+03  0.68129074004E+03  0.00000000000E+00 0. -1.
      99926    2    1    2    0    0  0.00000000000E+00 -0.14210854715E-13 -0.60415004284E+03  0.75843143724E+03  0.45849860493E+03 0.  0.
      99925    2    3    3    0    0  0.16719319464E+02 -0.10940081576E+03 -0.31926718857E+03  0.42819845449E+03  0.26301008460E+03 0.  0.
         25    1    3    3    0    0 -0.16719319464E+02  0.10940081576E+03 -0.28488285427E+03  0.33023298274E+03  0.12509000000E+03 0.  0.
         25    1    4    4    0    0  0.66446729883E+01 -0.95567630499E+02 -0.15503040134E+03  0.22104130183E+03  0.12509000000E+03 0.  0.
         25    1    4    4    0    0  0.10074646475E+02 -0.13833185263E+02 -0.16423678724E+03  0.20715715266E+03  0.12509000000E+03 0.  0.
<mgrwt>
<rscale>  2 0.45849860E+03</rscale>
<asrwt>0</asrwt>
<pdfrwt beam="1">  1       21 0.11344220E-01 0.45849860E+03</pdfrwt>
<pdfrwt beam="2">  1       21 0.10018981E+00 0.45849860E+03</pdfrwt>
<totfact> 0.48494684E+04</totfact>
</mgrwt>
</event>
<event>
 7    0  0.4712189E-002  0.4568431E+03  0.7546771E-02  0.1025701E+00
         21   -1    0    0  502  501  0.00000000000E+00  0.00000000000E+00  0.93497563133E+02  0.93497563133E+02  0.00000000000E+00 0.  1.
         21   -1    0    0  501  502 -0.00000000000E+00 -0.00000000000E+00 -0.55805098011E+03  0.55805098011E+03  0.00000000000E+00 0.  1.
      99926    2    1    2    0    0  0.00000000000E+00  0.00000000000E+00 -0.46455341698E+03  0.65154854324E+03  0.45684310981E+03 0.  0.
      99925    2    3    3    0    0 -0.70136530258E+02  0.57366546502E+02 -0.39252513420E+03  0.48112074283E+03  0.26304207775E+03 0.  0.
         25    1    3    3    0    0  0.70136530258E+02 -0.57366546502E+02 -0.72028282776E+02  0.17042780041E+03  0.12509000000E+03 0.  0.
         25    1    4    4    0    0 -0.13608902465E+02  0.35367561058E+02 -0.24950776031E+03  0.28166948212E+03  0.12509000000E+03 0.  0.
         25    1    4    4    0    0 -0.56527627793E+02  0.21998985443E+02 -0.14301737389E+03  0.19945126071E+03  0.12509000000E+03 0.  0.
<mgrwt>
<rscale>  2 0.45684311E+03</rscale>
<asrwt>0</asrwt>
<pdfrwt beam="1">  1       21 0.13749641E-01 0.45684311E+03</pdfrwt>
<pdfrwt beam="2">  1       21 0.82066322E-01 0.45684311E+03</pdfrwt>
<totfact> 0.54811073E+04</totfact>
</mgrwt>
</event>
<event>
 7    0  0.4712189E-002  0.4283900E+03  0.7546771E-02  0.1034370E+00
         21   -1    0    0  502  501  0.00000000000E+00  0.00000000000E+00  0.40793765346E+03  0.40793765346E+03  0.00000000000E+00 0.  1.
         21   -1    0    0  501  502 -0.00000000000E+00 -0.00000000000E+00 -0.11246694157E+03  0.11246694157E+03  0.00000000000E+00 0.  1.
      99926    2    1    2    0    0  0.00000000000E+00  0.00000000000E+00  0.29547071190E+03  0.52040459503E+03  0.42839001032E+03 0.  0.
      99925    2    3    3    0    0  0.38039635626E+02 -0.61538889532E+02  0.13461253615E+03  0.30417113414E+03  0.26299333671E+03 0.  0.
         25    1    3    3    0    0 -0.38039635626E+02  0.61538889532E+02  0.16085817574E+03  0.21623346088E+03  0.12509000000E+03 0.  0.
         25    1    4    4    0    0 -0.10109745445E+02 -0.34322208088E+02  0.34287261942E+02  0.13454867280E+03  0.12509000000E+03 0.  0.
         25    1    4    4    0    0  0.48149381070E+02 -0.27216681444E+02  0.10032527421E+03  0.16962246134E+03  0.12509000000E+03 0.  0.
<mgrwt>
<rscale>  2 0.42839001E+03</rscale>
<asrwt>0</asrwt>
<pdfrwt beam="1">  1       21 0.59990831E-01 0.42839001E+03</pdfrwt>
<pdfrwt beam="2">  1       21 0.16539256E-01 0.42839001E+03</pdfrwt>
<totfact> 0.79298550E+04</totfact>
</mgrwt>
</event>
<event>
 7    0  0.4712189E-002  0.4498370E+03  0.7546771E-02  0.1027771E+00
         21   -1    0    0  502  501  0.00000000000E+00  0.00000000000E+00  0.49060995244E+03  0.49060995244E+03  0.00000000000E+00 0.  1.
         21   -1    0    0  501  502 -0.00000000000E+00 -0.00000000000E+00 -0.10311312870E+03  0.10311312870E+03  0.00000000000E+00 0.  1.
      99926    2    1    2    0    0  0.00000000000E+00  0.00000000000E+00  0.38749682373E+03  0.59372308114E+03  0.44983698011E+03 0.  0.
      99925    2    3    3    0    0 -0.53332610685E+02 -0.66831896019E+02  0.15720789200E+03  0.31805775893E+03  0.26293639349E+03 0.  0.
         25    1    4    4    0    0 -0.23070500556E+02 -0.52064582102E+02  0.39452594937E+02  0.14299295106E+03  0.12509000000E+03 0.  0.
         25    1    3    3    0    0  0.53332610685E+02  0.66831896019E+02  0.23028893173E+03  0.27566532221E+03  0.12509000000E+03 0.  0.
         25    1    4    4    0    0 -0.30262110129E+02 -0.14767313917E+02  0.11775529706E+03  0.17506480787E+03  0.12509000000E+03 0.  0.
<mgrwt>
<rscale>  2 0.44983698E+03</rscale>
<asrwt>0</asrwt>
<pdfrwt beam="1">  1       21 0.72148521E-01 0.44983698E+03</pdfrwt>
<pdfrwt beam="2">  1       21 0.15163696E-01 0.44983698E+03</pdfrwt>
<totfact> 0.61538967E+04</totfact>
</mgrwt>
</event>
<event>
 7    0  0.4712189E-002  0.4495705E+03  0.7546771E-02  0.1027850E+00
         21   -1    0    0  502  501  0.00000000000E+00  0.00000000000E+00  0.72261580593E+02  0.72261580593E+02  0.00000000000E+00 0.  1.
         21   -1    0    0  501  502 -0.00000000000E+00 -0.00000000000E+00 -0.69924308373E+03  0.69924308373E+03  0.00000000000E+00 0.  1.
      99926    2    1    2    0    0  0.00000000000E+00  0.00000000000E+00 -0.62698150313E+03  0.77150466432E+03  0.44957050815E+03 0.  0.
      99925    2    3    3    0    0  0.33410977723E+02  0.97050032796E+02 -0.45441126733E+03  0.53493966969E+03  0.26293696590E+03 0.  0.
         25    1    4    4    0    0  0.30334924412E+02  0.28690976876E+02 -0.15641444175E+03  0.20458828285E+03  0.12509000000E+03 0.  0.
         25    1    3    3    0    0 -0.33410977723E+02 -0.97050032796E+02 -0.17257023580E+03  0.23656499463E+03  0.12509000000E+03 0.  0.
         25    1    4    4    0    0  0.30760533113E+01  0.68359055920E+02 -0.29799682558E+03  0.33035138684E+03  0.12509000000E+03 0.  0.
<mgrwt>
<rscale>  2 0.44957051E+03</rscale>
<asrwt>0</asrwt>
<pdfrwt beam="1">  1       21 0.10626703E-01 0.44957051E+03</pdfrwt>
<pdfrwt beam="2">  1       21 0.10282987E+00 0.44957051E+03</pdfrwt>
<totfact> 0.51326879E+04</totfact>
</mgrwt>
</event>
<event>
 7    0  0.4712189E-002  0.4541097E+03  0.7546771E-02  0.1026504E+00
         21   -1    0    0  502  501  0.00000000000E+00  0.00000000000E+00  0.77684441897E+03  0.77684441897E+03  0.00000000000E+00 0.  1.
         21   -1    0    0  501  502 -0.00000000000E+00 -0.00000000000E+00 -0.66363231820E+02  0.66363231820E+02  0.00000000000E+00 0.  1.
      99926    2    1    2    0    0  0.00000000000E+00  0.71054273576E-14  0.71048118715E+03  0.84320765079E+03  0.45410970597E+03 0.  0.
      99925    2    3    3    0    0  0.18614163449E+02  0.61562544089E+02  0.27673286853E+03  0.38722349983E+03  0.26310553849E+03 0.  0.
         25    1    3    3    0    0 -0.18614163449E+02 -0.61562544089E+02  0.43374831863E+03  0.45598415096E+03  0.12509000000E+03 0.  0.
         25    1    4    4    0    0  0.33124254796E+01  0.50517240406E+02  0.19306987899E+03  0.23555561979E+03  0.12509000000E+03 0.  0.
         25    1    4    4    0    0  0.15301737969E+02  0.11045303683E+02  0.83662989532E+02  0.15166788004E+03  0.12509000000E+03 0.  0.
<mgrwt>
<rscale>  2 0.45410971E+03</rscale>
<asrwt>0</asrwt>
<pdfrwt beam="1">  1       21 0.11424182E+00 0.45410971E+03</pdfrwt>
<pdfrwt beam="2">  1       21 0.97592992E-02 0.45410971E+03</pdfrwt>
<totfact> 0.46065671E+04</totfact>
</mgrwt>
</event>
<event>
 7    0  0.4712189E-002  0.4724899E+03  0.7546771E-02  0.1021220E+00
         21   -1    0    0  502  501  0.00000000000E+00  0.00000000000E+00  0.74275393494E+02  0.74275393494E+02  0.00000000000E+00 0.  1.
         21   -1    0    0  501  502 -0.00000000000E+00 -0.00000000000E+00 -0.75141537136E+03  0.75141537136E+03  0.00000000000E+00 0.  1.
      99926    2    1    2    0    0  0.00000000000E+00  0.00000000000E+00 -0.67713997787E+03  0.82569076486E+03  0.47248988300E+03 0.  0.
      99925    2    3    3    0    0 -0.70089352396E+02  0.76415800818E+02 -0.28609579991E+03  0.40223480593E+03  0.26304018788E+03 0.  0.
         25    1    4    4    0    0 -0.46817932080E+02  0.48349060843E+02 -0.94778094309E+02  0.17076283468E+03  0.12509000000E+03 0.  0.
         25    1    3    3    0    0  0.70089352396E+02 -0.76415800818E+02 -0.39104417796E+03  0.42345595892E+03  0.12509000000E+03 0.  0.
         25    1    4    4    0    0 -0.23271420316E+02  0.28066739976E+02 -0.19131770560E+03  0.23147197125E+03  0.12509000000E+03 0.  0.
<mgrwt>
<rscale>  2 0.47248988E+03</rscale>
<asrwt>0</asrwt>
<pdfrwt beam="1">  1       21 0.10922852E-01 0.47248988E+03</pdfrwt>
<pdfrwt beam="2">  1       21 0.11050226E+00 0.47248988E+03</pdfrwt>
<totfact> 0.40671687E+04</totfact>
</mgrwt>
</event>
<event>
 7    0  0.4712189E-002  0.4565168E+03  0.7546771E-02  0.1025796E+00
         21   -1    0    0  502  501  0.00000000000E+00  0.00000000000E+00  0.22731639654E+04  0.22731639654E+04  0.00000000000E+00 0. -1.
         21   -1    0    0  501  502 -0.00000000000E+00 -0.00000000000E+00 -0.22920432425E+02  0.22920432425E+02  0.00000000000E+00 0. -1.
      99926    2    1    2    0    0  0.00000000000E+00 -0.35527136788E-14  0.22502435329E+04  0.22960843978E+04  0.45651681703E+03 0.  0.
      99925    2    3    3    0    0  0.99832618884E+02 -0.20557856582E+02  0.11535759599E+04  0.11876095668E+04  0.26322957745E+03 0.  0.
         25    1    3    3    0    0 -0.99832618884E+02  0.20557856582E+02  0.10966675730E+04  0.11084748310E+04  0.12509000000E+03 0.  0.
         25    1    4    4    0    0  0.52714126355E+02 -0.49051408589E+02  0.64855950264E+03  0.66442588478E+03  0.12509000000E+03 0.  0.
         25    1    4    4    0    0  0.47118492528E+02  0.28493552007E+02  0.50501645730E+03  0.52318368198E+03  0.12509000000E+03 0.  0.
<mgrwt>
<rscale>  2 0.45651682E+03</rscale>
<asrwt>0</asrwt>
<pdfrwt beam="1">  1       21 0.33428866E+00 0.45651682E+03</pdfrwt>
<pdfrwt beam="2">  1       21 0.33706534E-02 0.45651682E+03</pdfrwt>
<totfact> 0.93394455E+03</totfact>
</mgrwt>
</event>
<event>
 7    0  0.4712189E-002  0.4635139E+03  0.7546771E-02  0.1023767E+00
         21   -1    0    0  502  501  0.00000000000E+00  0.00000000000E+00  0.14921089500E+03  0.14921089500E+03  0.00000000000E+00 0.  1.
         21   -1    0    0  501  502 -0.00000000000E+00 -0.00000000000E+00 -0.35996886827E+03  0.35996886827E+03  0.00000000000E+00 0.  1.
      99926    2    1    2    0    0  0.14210854715E-13  0.00000000000E+00 -0.21075797326E+03  0.50917976327E+03  0.46351387037E+03 0.  0.
      99925    2    3    3    0    0  0.92980840970E+02  0.53882661870E+02 -0.70541481778E+02  0.29271509959E+03  0.26297766224E+03 0.  0.
         25    1    3    3    0    0 -0.92980840970E+02 -0.53882661870E+02 -0.14021649149E+03  0.21646466368E+03  0.12509000000E+03 0.  0.
         25    1    4    4    0    0  0.47274613249E+02  0.66896274796E+02 -0.26599054083E+02  0.15187171698E+03  0.12509000000E+03 0.  0.
         25    1    4    4    0    0  0.45706227721E+02 -0.13013612926E+02 -0.43942427695E+02  0.14084338261E+03  0.12509000000E+03 0.  0.
<mgrwt>
<rscale>  2 0.46351387E+03</rscale>
<asrwt>0</asrwt>
<pdfrwt beam="1">  1       21 0.21942779E-01 0.46351387E+03</pdfrwt>
<pdfrwt beam="2">  1       21 0.52936598E-01 0.46351387E+03</pdfrwt>
<totfact> 0.60441500E+04</totfact>
</mgrwt>
</event>
<event>
 7    0  0.4712189E-002  0.4433180E+03  0.7546771E-02  0.1029734E+00
         21   -1    0    0  502  501  0.00000000000E+00  0.00000000000E+00  0.17855848646E+03  0.17855848646E+03  0.00000000000E+00 0. -1.
         21   -1    0    0  501  502 -0.00000000000E+00 -0.00000000000E+00 -0.27516318411E+03  0.27516318411E+03  0.00000000000E+00 0. -1.
      99926    2    1    2    0    0 -0.35527136788E-14  0.00000000000E+00 -0.96604697649E+02  0.45372167056E+03  0.44331804242E+03 0.  0.
      99925    2    3    3    0    0 -0.21558968837E+02 -0.66571755928E+02  0.14259711492E+02  0.27251732972E+03  0.26299385507E+03 0.  0.
         25    1    4    4    0    0  0.13262961498E+02 -0.64664317338E+02 -0.32873165996E+01  0.14147683427E+03  0.12509000000E+03 0.  0.
         25    1    3    3    0    0  0.21558968837E+02  0.66571755928E+02 -0.11086440914E+03  0.18120434084E+03  0.12509000000E+03 0.  0.
         25    1    4    4    0    0 -0.34821930336E+02 -0.19074385893E+01  0.17547028092E+02  0.13104049546E+03  0.12509000000E+03 0.  0.
<mgrwt>
<rscale>  2 0.44331804E+03</rscale>
<asrwt>0</asrwt>
<pdfrwt beam="1">  1       21 0.26258601E-01 0.44331804E+03</pdfrwt>
<pdfrwt beam="2">  1       21 0.40465174E-01 0.44331804E+03</pdfrwt>
<totfact> 0.75415523E+04</totfact>
</mgrwt>
</event>
<event>
 7    0  0.4712189E-002  0.4512317E+03  0.7546771E-02  0.1027355E+00
         21   -1    0    0  502  501  0.00000000000E+00  0.00000000000E+00  0.27967360287E+03  0.27967360287E+03  0.00000000000E+00 0. -1.
         21   -1    0    0  501  502 -0.00000000000E+00 -0.00000000000E+00 -0.18200684821E+03  0.18200684821E+03  0.00000000000E+00 0. -1.
      99926    2    1    2    0    0 -0.14210854715E-13  0.39968028887E-14  0.97666754663E+02  0.46168045108E+03  0.45123169652E+03 0.  0.
      99925    2    3    3    0    0  0.10932725773E+03 -0.27088839865E+01  0.70176531080E+02  0.29326724546E+03  0.26290900405E+03 0.  0.
         25    1    4    4    0    0  0.81098054370E+02  0.30689748616E+02  0.35433211489E+02  0.15627468019E+03  0.12509000000E+03 0.  0.
         25    1    4    4    0    0  0.28229203365E+02 -0.33398632603E+02  0.34743319591E+02  0.13699256527E+03  0.12509000000E+03 0.  0.
         25    1    3    3    0    0 -0.10932725773E+03  0.27088839865E+01  0.27490223584E+02  0.16841320563E+03  0.12509000000E+03 0.  0.
<mgrwt>
<rscale>  2 0.45123170E+03</rscale>
<asrwt>0</asrwt>
<pdfrwt beam="1">  1       21 0.41128471E-01 0.45123170E+03</pdfrwt>
<pdfrwt beam="2">  1       21 0.26765713E-01 0.45123170E+03</pdfrwt>
<totfact> 0.70133025E+04</totfact>
</mgrwt>
</event>
<event>
 7    0  0.4712189E-002  0.4582868E+03  0.7546771E-02  0.1025279E+00
         21   -1    0    0  502  501  0.00000000000E+00  0.00000000000E+00  0.76508584339E+02  0.76508584339E+02  0.00000000000E+00 0. -1.
         21   -1    0    0  501  502 -0.00000000000E+00 -0.00000000000E+00 -0.68628511579E+03  0.68628511579E+03  0.00000000000E+00 0. -1.
      99926    2    1    2    0    0  0.00000000000E+00  0.00000000000E+00 -0.60977653145E+03  0.76279370013E+03  0.45828682138E+03 0.  0.
      99925    2    3    3    0    0  0.71265146473E+02  0.76640322490E+01 -0.23035225563E+03  0.35690239981E+03  0.26302034679E+03 0.  0.
         25    1    4    4    0    0  0.45518389843E+01  0.28878592161E+02 -0.12258305422E+03  0.17756352555E+03  0.12509000000E+03 0.  0.
         25    1    4    4    0    0  0.66713307488E+02 -0.21214559912E+02 -0.10776920140E+03  0.17933887426E+03  0.12509000000E+03 0.  0.
         25    1    3    3    0    0 -0.71265146473E+02 -0.76640322490E+01 -0.37942427582E+03  0.40589130032E+03  0.12509000000E+03 0.  0.
<mgrwt>
<rscale>  2 0.45828682E+03</rscale>
<asrwt>0</asrwt>
<pdfrwt beam="1">  1       21 0.11251263E-01 0.45828682E+03</pdfrwt>
<pdfrwt beam="2">  1       21 0.10092427E+00 0.45828682E+03</pdfrwt>
<totfact> 0.48356832E+04</totfact>
</mgrwt>
</event>
<event>
 7    0  0.4712189E-002  0.4553225E+03  0.7546771E-02  0.1026147E+00
         21   -1    0    0  502  501  0.00000000000E+00  0.00000000000E+00  0.30459184543E+03  0.30459184543E+03  0.00000000000E+00 0.  1.
         21   -1    0    0  501  502 -0.00000000000E+00 -0.00000000000E+00 -0.17016099609E+03  0.17016099609E+03  0.00000000000E+00 0.  1.
      99926    2    1    2    0    0  0.00000000000E+00  0.00000000000E+00  0.13443084934E+03  0.47475284152E+03  0.45532253104E+03 0.  0.
      99925    2    3    3    0    0 -0.67963447638E+02  0.65547613129E+02  0.19079172118E+02  0.28015315667E+03  0.26307082047E+03 0.  0.
         25    1    3    3    0    0  0.67963447638E+02 -0.65547613129E+02  0.11535167723E+03  0.19459968484E+03  0.12509000000E+03 0.  0.
         25    1    4    4    0    0 -0.11812755935E+02  0.44598876040E+02  0.41523148693E+02  0.13964340630E+03  0.12509000000E+03 0.  0.
         25    1    4    4    0    0 -0.56150691702E+02  0.20948737089E+02 -0.22443976576E+02  0.14050975037E+03  0.12509000000E+03 0.  0.
<mgrwt>
<rscale>  2 0.45532253E+03</rscale>
<asrwt>0</asrwt>
<pdfrwt beam="1">  1       21 0.44792918E-01 0.45532253E+03</pdfrwt>
<pdfrwt beam="2">  1       21 0.25023676E-01 0.45532253E+03</pdfrwt>
<totfact> 0.66912668E+04</totfact>
</mgrwt>
</event>
<event>
 7    0  0.4712189E-002  0.4566977E+03  0.7546771E-02  0.1025743E+00
         21   -1    0    0  502  501  0.00000000000E+00  0.00000000000E+00  0.11685383982E+03  0.11685383982E+03  0.00000000000E+00 0. -1.
         21   -1    0    0  501  502 -0.00000000000E+00 -0.00000000000E+00 -0.44622577251E+03  0.44622577251E+03  0.00000000000E+00 0. -1.
      99926    2    1    2    0    0  0.14210854715E-13 -0.35527136788E-14 -0.32937193270E+03  0.56307961233E+03  0.45669768969E+03 0.  0.
      99925    2    3    3    0    0  0.89417732499E+02 -0.17465989622E+02 -0.12096981624E+03  0.30350391639E+03  0.26302155642E+03 0.  0.
         25    1    4    4    0    0  0.79231158499E+02 -0.32559443513E+02 -0.58521514731E+02  0.16251144460E+03  0.12509000000E+03 0.  0.
         25    1    3    3    0    0 -0.89417732499E+02  0.17465989622E+02 -0.20840211646E+03  0.25957569594E+03  0.12509000000E+03 0.  0.
         25    1    4    4    0    0  0.10186574000E+02  0.15093453891E+02 -0.62448301508E+02  0.14099247179E+03  0.12509000000E+03 0.  0.
<mgrwt>
<rscale>  2 0.45669769E+03</rscale>
<asrwt>0</asrwt>
<pdfrwt beam="1">  1       21 0.17184388E-01 0.45669769E+03</pdfrwt>
<pdfrwt beam="2">  1       21 0.65621436E-01 0.45669769E+03</pdfrwt>
<totfact> 0.60197996E+04</totfact>
</mgrwt>
</event>
<event>
 7    0  0.4712189E-002  0.4503893E+03  0.7546771E-02  0.1027606E+00
         21   -1    0    0  502  501  0.00000000000E+00  0.00000000000E+00  0.13202325547E+04  0.13202325547E+04  0.00000000000E+00 0. -1.
         21   -1    0    0  501  502 -0.00000000000E+00 -0.00000000000E+00 -0.38411898775E+02  0.38411898775E+02  0.00000000000E+00 0. -1.
      99926    2    1    2    0    0 -0.71054273576E-14 -0.14210854715E-13  0.12818206560E+04  0.13586444535E+04  0.45038933936E+03 0.  0.
      99925    2    3    3    0    0 -0.46887336847E+02  0.95407297816E+02  0.74045800741E+03  0.79293958331E+03  0.26300978536E+03 0.  0.
         25    1    4    4    0    0 -0.59401271496E+02  0.46230733480E+02  0.32991844612E+03  0.36077622006E+03  0.12509000000E+03 0.  0.
         25    1    3    3    0    0  0.46887336847E+02 -0.95407297816E+02  0.54136264856E+03  0.56570487022E+03  0.12509000000E+03 0.  0.
         25    1    4    4    0    0  0.12513934649E+02  0.49176564336E+02  0.41053956130E+03  0.43216336325E+03  0.12509000000E+03 0.  0.
<mgrwt>
<rscale>  2 0.45038934E+03</rscale>
<asrwt>0</asrwt>
<pdfrwt beam="1">  1       21 0.19415182E+00 0.45038934E+03</pdfrwt>
<pdfrwt beam="2">  1       21 0.56488095E-02 0.45038934E+03</pdfrwt>
<totfact> 0.28461642E+04</totfact>
</mgrwt>
</event>
<event>
 7    0  0.4712189E-002  0.4129937E+03  0.7546771E-02  0.1039371E+00
         21   -1    0    0  502  501  0.00000000000E+00  0.00000000000E+00  0.31982954263E+03  0.31982954263E+03  0.00000000000E+00 0. -1.
         21   -1    0    0  501  502 -0.00000000000E+00 -0.00000000000E+00 -0.13332399256E+03  0.13332399256E+03  0.00000000000E+00 0. -1.
      99926    2    1    2    0    0  0.35527136788E-14  0.00000000000E+00  0.18650555006E+03  0.45315353519E+03  0.41299371212E+03 0.  0.
      99925    2    3    3    0    0  0.21449835171E+02 -0.40990772260E+02  0.17518047188E+03  0.31930248239E+03  0.26291736096E+03 0.  0.
         25    1    4    4    0    0 -0.95749309876E+01  0.17441091033E+01  0.11709314236E+03  0.17161886058E+03  0.12509000000E+03 0.  0.
         25    1    3    3    0    0 -0.21449835171E+02  0.40990772260E+02  0.11325078181E+02  0.13385105280E+03  0.12509000000E+03 0.  0.
         25    1    4    4    0    0  0.31024766158E+02 -0.42734881363E+02  0.58087329522E+02  0.14768362181E+03  0.12509000000E+03 0.  0.
<mgrwt>
<rscale>  2 0.41299371E+03</rscale>
<asrwt>0</asrwt>
<pdfrwt beam="1">  1       21 0.47033756E-01 0.41299371E+03</pdfrwt>
<pdfrwt beam="2">  1       21 0.19606470E-01 0.41299371E+03</pdfrwt>
<totfact> 0.97330175E+04</totfact>
</mgrwt>
</event>
<event>
 7    0  0.4712189E-002  0.4544475E+03  0.7546771E-02  0.1026404E+00
         21   -1    0    0  502  501  0.00000000000E+00  0.00000000000E+00  0.10076100718E+03  0.10076100718E+03  0.00000000000E+00 0. -1.
         21   -1    0    0  501  502 -0.00000000000E+00 -0.00000000000E+00 -0.51240684057E+03  0.51240684057E+03  0.00000000000E+00 0. -1.
      99926    2    1    2    0    0  0.17763568394E-14  0.00000000000E+00 -0.41164583339E+03  0.61316784776E+03  0.45444748583E+03 0.  0.
      99925    2    3    3    0    0 -0.99891788790E+01 -0.54544256315E+02 -0.39140130739E+03  0.47484862088E+03  0.26308053849E+03 0.  0.
         25    1    4    4    0    0 -0.22982730950E+02 -0.63640292195E+02 -0.22259323438E+03  0.26414683190E+03  0.12509000000E+03 0.  0.
         25    1    3    3    0    0  0.99891788790E+01  0.54544256315E+02 -0.20244525998E+02  0.13831922688E+03  0.12509000000E+03 0.  0.
         25    1    4    4    0    0  0.12993552072E+02  0.90960358803E+01 -0.16880807301E+03  0.21070178898E+03  0.12509000000E+03 0.  0.
<mgrwt>
<rscale>  2 0.45444749E+03</rscale>
<asrwt>0</asrwt>
<pdfrwt beam="1">  1       21 0.14817795E-01 0.45444749E+03</pdfrwt>
<pdfrwt beam="2">  1       21 0.75353948E-01 0.45444749E+03</pdfrwt>
<totfact> 0.58128235E+04</totfact>
</mgrwt>
</event>
<event>
 7    0  0.4712189E-002  0.4567019E+03  0.7546771E-02  0.1025742E+00
         21   -1    0    0  502  501  0.00000000000E+00  0.00000000000E+00  0.42961135713E+02  0.42961135713E+02  0.00000000000E+00 0.  1.
         21   -1    0    0  501  502 -0.00000000000E+00 -0.00000000000E+00 -0.12137518005E+04  0.12137518005E+04  0.00000000000E+00 0.  1.
      99926    2    1    2    0    0  0.00000000000E+00  0.00000000000E+00 -0.11707906648E+04  0.12567129363E+04  0.45670189763E+03 0.  0.
      99925    2    3    3    0    0  0.79471534953E+02  0.28513760896E+02 -0.52140095549E+03  0.59001715697E+03  0.26293065569E+03 0.  0.
         25    1    3    3    0    0 -0.79471534953E+02 -0.28513760896E+02 -0.64938970934E+03  0.66669577929E+03  0.12509000000E+03 0.  0.
         25    1    4    4    0    0  0.50881869196E+01  0.36414821948E+02 -0.24235852174E+03  0.27520372465E+03  0.12509000000E+03 0.  0.
         25    1    4    4    0    0  0.74383348033E+02 -0.79010610519E+01 -0.27904243376E+03  0.31481343232E+03  0.12509000000E+03 0.  0.
<mgrwt>
<rscale>  2 0.45670190E+03</rscale>
<asrwt>0</asrwt>
<pdfrwt beam="1">  1       21 0.63178157E-02 0.45670190E+03</pdfrwt>
<pdfrwt beam="2">  1       21 0.17849287E+00 0.45670190E+03</pdfrwt>
<totfact> 0.29998821E+04</totfact>
</mgrwt>
</event>
<event>
 7    0  0.4712189E-002  0.4602928E+03  0.7546771E-02  0.1024696E+00
         21   -1    0    0  502  501  0.00000000000E+00  0.00000000000E+00  0.24733389915E+02  0.24733389915E+02  0.00000000000E+00 0.  1.
         21   -1    0    0  501  502 -0.00000000000E+00 -0.00000000000E+00 -0.21415330256E+04  0.21415330256E+04  0.00000000000E+00 0.  1.
      99926    2    1    2    0    0  0.00000000000E+00  0.00000000000E+00 -0.21167996357E+04  0.21662664155E+04  0.46029282566E+03 0.  0.
      99925    2    3    3    0    0 -0.48166774815E+02 -0.39026871790E+02 -0.17984103558E+04  0.18186137490E+04  0.26312169263E+03 0.  0.
         25    1    3    3    0    0  0.48166774815E+02  0.39026871790E+02 -0.31838927988E+03  0.34765266655E+03  0.12509000000E+03 0.  0.
         25    1    4    4    0    0 -0.93715341699E+01 -0.23839237945E+02 -0.11402857473E+04  0.11474124056E+04  0.12509000000E+03 0.  0.
         25    1    4    4    0    0 -0.38795240645E+02 -0.15187633845E+02 -0.65812460847E+03  0.67120134333E+03  0.12509000000E+03 0.  0.
<mgrwt>
<rscale>  2 0.46029283E+03</rscale>
<asrwt>0</asrwt>
<pdfrwt beam="1">  1       21 0.36372630E-02 0.46029283E+03</pdfrwt>
<pdfrwt beam="2">  1       21 0.31493134E+00 0.46029283E+03</pdfrwt>
<totfact> 0.10732291E+04</totfact>
</mgrwt>
</event>
<event>
 7    0  0.4712189E-002  0.4623773E+03  0.7546771E-02  0.1024094E+00
         21   -1    0    0  502  501  0.00000000000E+00  0.00000000000E+00  0.55128789116E+02  0.55128789116E+02  0.00000000000E+00 0.  1.
         21   -1    0    0  501  502 -0.00000000000E+00 -0.00000000000E+00 -0.96951513000E+03  0.96951513000E+03  0.00000000000E+00 0.  1.
      99926    2    1    2    0    0 -0.88817841970E-15 -0.14210854715E-13 -0.91438634088E+03  0.10246439191E+04  0.46237731409E+03 0.  0.
      99925    2    3    3    0    0 -0.67146368025E+01 -0.11513299667E+03 -0.64497858610E+03  0.70600817142E+03  0.26296286491E+03 0.  0.
         25    1    3    3    0    0  0.67146368025E+01  0.11513299667E+03 -0.26940775478E+03  0.31863574769E+03  0.12509000000E+03 0.  0.
         25    1    4    4    0    0  0.12897159106E+02 -0.93153050613E+02 -0.39642519407E+03  0.42619745440E+03  0.12509000000E+03 0.  0.
         25    1    4    4    0    0 -0.19611795909E+02 -0.21979946055E+02 -0.24855339203E+03  0.27981071702E+03  0.12509000000E+03 0.  0.
<mgrwt>
<rscale>  2 0.46237731E+03</rscale>
<asrwt>0</asrwt>
<pdfrwt beam="1">  1       21 0.81071754E-02 0.46237731E+03</pdfrwt>
<pdfrwt beam="2">  1       21 0.14257574E+00 0.46237731E+03</pdfrwt>
<totfact> 0.36097357E+04</totfact>
</mgrwt>
</event>
<event>
 7    0  0.4712189E-002  0.4520086E+03  0.7546771E-02  0.1027125E+00
         21   -1    0    0  502  501  0.00000000000E+00  0.00000000000E+00  0.11647112355E+03  0.11647112355E+03  0.00000000000E+00 0.  1.
         21   -1    0    0  501  502 -0.00000000000E+00 -0.00000000000E+00 -0.43854597089E+03  0.43854597089E+03  0.00000000000E+00 0.  1.
      99926    2    1    2    0    0  0.00000000000E+00 -0.17763568394E-14 -0.32207484734E+03  0.55501709444E+03  0.45200859265E+03 0.  0.
      99925    2    3    3    0    0 -0.54445821028E+02  0.12211145628E+02 -0.86284110090E+02  0.28233002218E+03  0.26296736350E+03 0.  0.
         25    1    4    4    0    0 -0.60057728331E+01 -0.26549200186E+02 -0.54461493259E+02  0.13912042153E+03  0.12509000000E+03 0.  0.
         25    1    4    4    0    0 -0.48440048194E+02  0.38760345814E+02 -0.31822616832E+02  0.14320960065E+03  0.12509000000E+03 0.  0.
         25    1    3    3    0    0  0.54445821028E+02 -0.12211145628E+02 -0.23579073725E+03  0.27268707226E+03  0.12509000000E+03 0.  0.
<mgrwt>
<rscale>  2 0.45200859E+03</rscale>
<asrwt>0</asrwt>
<pdfrwt beam="1">  1       21 0.17128107E-01 0.45200859E+03</pdfrwt>
<pdfrwt beam="2">  1       21 0.64492054E-01 0.45200859E+03</pdfrwt>
<totfact> 0.63014208E+04</totfact>
</mgrwt>
</event>
<event>
 7    0  0.4712189E-002  0.4551215E+03  0.7546771E-02  0.1026206E+00
         21   -1    0    0  502  501  0.00000000000E+00  0.00000000000E+00  0.82072840338E+03  0.82072840338E+03  0.00000000000E+00 0.  1.
         21   -1    0    0  501  502 -0.00000000000E+00 -0.00000000000E+00 -0.63095042079E+02  0.63095042079E+02  0.00000000000E+00 0.  1.
      99926    2    1    2    0    0  0.14210854715E-13  0.00000000000E+00  0.75763336130E+03  0.88382344546E+03  0.45512149212E+03 0.  0.
      99925    2    3    3    0    0 -0.71957196413E+02  0.87082932171E+02  0.45924158428E+03  0.54111885564E+03  0.26295533462E+03 0.  0.
         25    1    4    4    0    0 -0.66884267557E+02  0.66403228551E+02  0.29000932574E+03  0.32959947076E+03  0.12509000000E+03 0.  0.
         25    1    3    3    0    0  0.71957196413E+02 -0.87082932171E+02  0.29839177702E+03  0.34270458982E+03  0.12509000000E+03 0.  0.
         25    1    4    4    0    0 -0.50729288557E+01  0.20679703620E+02  0.16923225855E+03  0.21151938488E+03  0.12509000000E+03 0.  0.
<mgrwt>
<rscale>  2 0.45512149E+03</rscale>
<asrwt>0</asrwt>
<pdfrwt beam="1">  1       21 0.12069535E+00 0.45512149E+03</pdfrwt>
<pdfrwt beam="2">  1       21 0.92786831E-02 0.45512149E+03</pdfrwt>
<totfact> 0.43898736E+04</totfact>
</mgrwt>
</event>
<event>
 6    0  0.4712189E-002  0.4509250E+03  0.7546771E-02  0.1027447E+00
         21   -1    0    0  502  501  0.00000000000E+00  0.00000000000E+00  0.12581619970E+04  0.12581619970E+04  0.00000000000E+00 0.  1.
         21   -1    0    0  501  502 -0.00000000000E+00 -0.00000000000E+00 -0.40402859654E+02  0.40402859654E+02  0.00000000000E+00 0.  1.
      99926    2    1    2    0    0  0.00000000000E+00  0.00000000000E+00  0.12177591374E+04  0.12985648567E+04  0.45092501633E+03 0.  0.
         25    1    3    3    0    0 -0.97734282531E+01  0.22409285964E+02  0.69796772344E+03  0.70950979349E+03  0.12509000000E+03 0.  0.
         25    1    3    3    0    0  0.17559800026E+02 -0.46473464130E+02  0.17078560758E+03  0.21744737594E+03  0.12509000000E+03 0.  0.
         25    1    3    3    0    0 -0.77863717726E+01  0.24064178167E+02  0.34900580635E+03  0.37160768724E+03  0.12509000000E+03 0.  0.
<mgrwt>
<rscale>  2 0.45092502E+03</rscale>
<asrwt>0</asrwt>
<pdfrwt beam="1">  1       21 0.18502380E+00 0.45092502E+03</pdfrwt>
<pdfrwt beam="2">  1       21 0.59415978E-02 0.45092502E+03</pdfrwt>
<totfact> 0.30099050E+04</totfact>
</mgrwt>
</event>
<event>
 7    0  0.4712189E-002  0.4579218E+03  0.7546771E-02  0.1025386E+00
         21   -1    0    0  502  501  0.00000000000E+00  0.00000000000E+00  0.27174660589E+04  0.27174660589E+04  0.00000000000E+00 0. -1.
         21   -1    0    0  501  502 -0.00000000000E+00 -0.00000000000E+00 -0.19291171794E+02  0.19291171794E+02  0.00000000000E+00 0. -1.
      99926    2    1    2    0    0 -0.35527136788E-14  0.00000000000E+00  0.26981748871E+04  0.27367572307E+04  0.45792184742E+03 0.  0.
      99925    2    3    3    0    0 -0.25443470293E+02 -0.37838463954E+02  0.23303599867E+04  0.23455866431E+04  0.26290666243E+03 0.  0.
         25    1    4    4    0    0 -0.31524875081E+02 -0.53939298641E+02  0.11371029907E+04  0.11456674846E+04  0.12509000000E+03 0.  0.
         25    1    4    4    0    0  0.60814047889E+01  0.16100834687E+02  0.11932569960E+04  0.11999191585E+04  0.12509000000E+03 0.  0.
         25    1    3    3    0    0  0.25443470293E+02  0.37838463954E+02  0.36781490036E+03  0.39117058755E+03  0.12509000000E+03 0.  0.
<mgrwt>
<rscale>  2 0.45792185E+03</rscale>
<asrwt>0</asrwt>
<pdfrwt beam="1">  1       21 0.39962710E+00 0.45792185E+03</pdfrwt>
<pdfrwt beam="2">  1       21 0.28369389E-02 0.45792185E+03</pdfrwt>
<totfact> 0.48882264E+03</totfact>
</mgrwt>
</event>
<event>
 7    0  0.4712189E-002  0.4561490E+03  0.7546771E-02  0.1025904E+00
         21   -1    0    0  502  501  0.00000000000E+00  0.00000000000E+00  0.11205641366E+03  0.11205641366E+03  0.00000000000E+00 0.  1.
         21   -1    0    0  501  502 -0.00000000000E+00 -0.00000000000E+00 -0.46421231656E+03  0.46421231656E+03  0.00000000000E+00 0.  1.
      99926    2    1    2    0    0  0.71054273576E-14  0.00000000000E+00 -0.35215590290E+03  0.57626873022E+03  0.45614895536E+03 0.  0.
      99925    2    3    3    0    0 -0.53411893691E+02 -0.91345398542E+02 -0.27567958526E+03  0.39545681832E+03  0.26304001446E+03 0.  0.
         25    1    4    4    0    0 -0.51285324343E+02 -0.41721957700E+02 -0.18611773115E+03  0.23379098399E+03  0.12509000000E+03 0.  0.
         25    1    4    4    0    0 -0.21265693479E+01 -0.49623440842E+02 -0.89561854116E+02  0.16166583433E+03  0.12509000000E+03 0.  0.
         25    1    3    3    0    0  0.53411893691E+02  0.91345398542E+02 -0.76476317641E+02  0.18081191189E+03  0.12509000000E+03 0.  0.
<mgrwt>
<rscale>  2 0.45614896E+03</rscale>
<asrwt>0</asrwt>
<pdfrwt beam="1">  1       21 0.16478884E-01 0.45614896E+03</pdfrwt>
<pdfrwt beam="2">  1       21 0.68266518E-01 0.45614896E+03</pdfrwt>
<totfact> 0.59619844E+04</totfact>
</mgrwt>
</event>
<event>
 7    0  0.4712189E-002  0.4685268E+03  0.7546771E-02  0.1022337E+00
         21   -1    0    0  502  501  0.00000000000E+00  0.00000000000E+00  0.22366464420E+03  0.22366464420E+03  0.00000000000E+00 0.  1.
         21   -1    0    0  501  502 -0.00000000000E+00 -0.00000000000E+00 -0.24536440336E+03  0.24536440336E+03  0.00000000000E+00 0.  1.
      99926    2    1    2    0    0  0.00000000000E+00 -0.32057689836E-14 -0.21699759164E+02  0.46902904756E+03  0.46852680596E+03 0.  0.
      99925    2    3    3    0    0  0.11937952468E+03  0.64963363240E-01 -0.51867522320E+02  0.29350390073E+03  0.26306429773E+03 0.  0.
         25    1    4    4    0    0  0.32230670573E+02 -0.26639079852E+02 -0.58141180516E+01  0.13202184959E+03  0.12509000000E+03 0.  0.
         25    1    4    4    0    0  0.87148854109E+02  0.26704043215E+02 -0.46053404269E+02  0.16148205114E+03  0.12509000000E+03 0.  0.
         25    1    3    3    0    0 -0.11937952468E+03 -0.64963363240E-01  0.30167763157E+02  0.17552514682E+03  0.12509000000E+03 0.  0.
<mgrwt>
<rscale>  2 0.46852681E+03</rscale>
<asrwt>0</asrwt>
<pdfrwt beam="1">  1       21 0.32891860E-01 0.46852681E+03</pdfrwt>
<pdfrwt beam="2">  1       21 0.36083000E-01 0.46852681E+03</pdfrwt>
<totfact> 0.60708485E+04</totfact>
</mgrwt>
</event>
<event>
 6    0  0.4712189E-002  0.4535477E+03  0.7546771E-02  0.1026669E+00
         21   -1    0    0  502  501  0.00000000000E+00  0.00000000000E+00  0.47149216209E+03  0.47149216209E+03  0.00000000000E+00 0.  1.
         21   -1    0    0  501  502 -0.00000000000E+00 -0.00000000000E+00 -0.10907154236E+03  0.10907154236E+03  0.00000000000E+00 0.  1.
      99926    2    1    2    0    0  0.00000000000E+00 -0.71054273576E-14  0.36242061973E+03  0.58056370445E+03  0.45354769244E+03 0.  0.
         25    1    3    3    0    0 -0.48255437017E+02 -0.71519761156E+01  0.84574613283E+02  0.15868242271E+03  0.12509000000E+03 0.  0.
         25    1    3    3    0    0  0.15724985238E+02 -0.51634319228E+02  0.35149544064E+02  0.14069959712E+03  0.12509000000E+03 0.  0.
         25    1    3    3    0    0  0.32530451779E+02  0.58786295343E+02  0.24269646238E+03  0.28118168462E+03  0.12509000000E+03 0.  0.
<mgrwt>
<rscale>  2 0.45354769E+03</rscale>
<asrwt>0</asrwt>
<pdfrwt beam="1">  1       21 0.69337082E-01 0.45354769E+03</pdfrwt>
<pdfrwt beam="2">  1       21 0.16039933E-01 0.45354769E+03</pdfrwt>
<totfact> 0.60583445E+04</totfact>
</mgrwt>
</event>
<event>
 7    0  0.4712189E-002  0.4540679E+03  0.7546771E-02  0.1026516E+00
         21   -1    0    0  502  501  0.00000000000E+00  0.00000000000E+00  0.83551659351E+02  0.83551659351E+02  0.00000000000E+00 0. -1.
         21   -1    0    0  501  502 -0.00000000000E+00 -0.00000000000E+00 -0.61691665184E+03  0.61691665184E+03  0.00000000000E+00 0. -1.
      99926    2    1    2    0    0 -0.14210854715E-13  0.00000000000E+00 -0.53336499249E+03  0.70046831119E+03  0.45406788013E+03 0.  0.
      99925    2    3    3    0    0 -0.85991465073E+02  0.38965564057E+02 -0.24179483934E+03  0.36944941512E+03  0.26289784851E+03 0.  0.
         25    1    4    4    0    0 -0.51274227429E+02  0.59493883565E+02 -0.13493109711E+03  0.20005618623E+03  0.12509000000E+03 0.  0.
         25    1    4    4    0    0 -0.34717237643E+02 -0.20528319508E+02 -0.10686374222E+03  0.16939322889E+03  0.12509000000E+03 0.  0.
         25    1    3    3    0    0  0.85991465073E+02 -0.38965564057E+02 -0.29157015315E+03  0.33101889607E+03  0.12509000000E+03 0.  0.
<mgrwt>
<rscale>  2 0.45406788E+03</rscale>
<asrwt>0</asrwt>
<pdfrwt beam="1">  1       21 0.12287009E-01 0.45406788E+03</pdfrwt>
<pdfrwt beam="2">  1       21 0.90723034E-01 0.45406788E+03</pdfrwt>
<totfact> 0.53267203E+04</totfact>
</mgrwt>
</event>
<event>
 7    0  0.4712189E-002  0.4330617E+03  0.7546771E-02  0.1032897E+00
         21   -1    0    0  502  501  0.00000000000E+00  0.00000000000E+00  0.67873543659E+02  0.67873543659E+02  0.00000000000E+00 0.  1.
         21   -1    0    0  501  502 -0.00000000000E+00 -0.00000000000E+00 -0.69077875926E+03  0.69077875926E+03  0.00000000000E+00 0.  1.
      99926    2    1    2    0    0  0.00000000000E+00  0.00000000000E+00 -0.62290521561E+03  0.75865230292E+03  0.43306166894E+03 0.  0.
      99925    2    3    3    0    0 -0.65944929106E+02  0.49106305364E+02 -0.46893463679E+03  0.54390917697E+03  0.26301584803E+03 0.  0.
         25    1    4    4    0    0 -0.11336078268E+02  0.49224251635E+02 -0.28028750973E+03  0.31106290333E+03  0.12509000000E+03 0.  0.
         25    1    3    3    0    0  0.65944929106E+02 -0.49106305364E+02 -0.15397057882E+03  0.21474312595E+03  0.12509000000E+03 0.  0.
         25    1    4    4    0    0 -0.54608850837E+02 -0.11794627136E+00 -0.18864712706E+03  0.23284627364E+03  0.12509000000E+03 0.  0.
<mgrwt>
<rscale>  2 0.43306167E+03</rscale>
<asrwt>0</asrwt>
<pdfrwt beam="1">  1       21 0.99814036E-02 0.43306167E+03</pdfrwt>
<pdfrwt beam="2">  1       21 0.10158511E+00 0.43306167E+03</pdfrwt>
<totfact> 0.59422908E+04</totfact>
</mgrwt>
</event>
<event>
 7    0  0.4712189E-002  0.4384952E+03  0.7546771E-02  0.1031210E+00
         21   -1    0    0  502  501  0.00000000000E+00  0.00000000000E+00  0.27165947279E+03  0.27165947279E+03  0.00000000000E+00 0. -1.
         21   -1    0    0  501  502 -0.00000000000E+00 -0.00000000000E+00 -0.17694767864E+03  0.17694767864E+03  0.00000000000E+00 0. -1.
      99926    2    1    2    0    0  0.00000000000E+00  0.00000000000E+00  0.94711794160E+02  0.44860715143E+03  0.43849521361E+03 0.  0.
      99925    2    3    3    0    0 -0.31776722228E+02 -0.27195359064E+02 -0.28907803721E+02  0.26783475113E+03  0.26296472229E+03 0.  0.
         25    1    4    4    0    0 -0.12667233895E+02 -0.37014767927E+01  0.25090667205E+02  0.12826226813E+03  0.12509000000E+03 0.  0.
         25    1    4    4    0    0 -0.19109488334E+02 -0.23493882271E+02 -0.53998470926E+02  0.13957248300E+03  0.12509000000E+03 0.  0.
         25    1    3    3    0    0  0.31776722228E+02  0.27195359064E+02  0.12361959788E+03  0.18077240030E+03  0.12509000000E+03 0.  0.
<mgrwt>
<rscale>  2 0.43849521E+03</rscale>
<asrwt>0</asrwt>
<pdfrwt beam="1">  1       21 0.39949923E-01 0.43849521E+03</pdfrwt>
<pdfrwt beam="2">  1       21 0.26021717E-01 0.43849521E+03</pdfrwt>
<totfact> 0.78893703E+04</totfact>
</mgrwt>
</event>
<event>
 7    0  0.4712189E-002  0.4513120E+03  0.7546771E-02  0.1027332E+00
         21   -1    0    0  502  501  0.00000000000E+00  0.00000000000E+00  0.14785212826E+03  0.14785212826E+03  0.00000000000E+00 0. -1.
         21   -1    0    0  501  502 -0.00000000000E+00 -0.00000000000E+00 -0.34440239317E+03  0.34440239317E+03  0.00000000000E+00 0. -1.
      99926    2    1    2    0    0  0.00000000000E+00  0.00000000000E+00 -0.19655026491E+03  0.49225452143E+03  0.45131198436E+03 0.  0.
      99925    2    3    3    0    0  0.81690322061E+02  0.21015495548E+02 -0.20056208978E+03  0.34132883571E+03  0.26299289431E+03 0.  0.
         25    1    3    3    0    0 -0.81690322061E+02 -0.21015495548E+02  0.40118248684E+01  0.15092568572E+03  0.12509000000E+03 0.  0.
         25    1    4    4    0    0  0.62356515297E+02  0.35028886964E+02 -0.74809027967E+02  0.16235534080E+03  0.12509000000E+03 0.  0.
         25    1    4    4    0    0  0.19333806764E+02 -0.14013391416E+02 -0.12575306181E+03  0.17897349490E+03  0.12509000000E+03 0.  0.
<mgrwt>
<rscale>  2 0.45131198E+03</rscale>
<asrwt>0</asrwt>
<pdfrwt beam="1">  1       21 0.21742961E-01 0.45131198E+03</pdfrwt>
<pdfrwt beam="2">  1       21 0.50647409E-01 0.45131198E+03</pdfrwt>
<totfact> 0.67781135E+04</totfact>
</mgrwt>
</event>
<event>
 7    0  0.4712189E-002  0.4589991E+03  0.7546771E-02  0.1025072E+00
         21   -1    0    0  502  501  0.00000000000E+00  0.00000000000E+00  0.69171796340E+02  0.69171796340E+02  0.00000000000E+00 0.  1.
         21   -1    0    0  501  502 -0.00000000000E+00 -0.00000000000E+00 -0.76143802134E+03  0.76143802134E+03  0.00000000000E+00 0.  1.
      99926    2    1    2    0    0 -0.35527136788E-14  0.00000000000E+00 -0.69226622500E+03  0.83060981768E+03  0.45899906639E+03 0.  0.
      99925    2    3    3    0    0 -0.29180832117E+02  0.10985267983E+03 -0.48222249923E+03  0.56100824672E+03  0.26319685009E+03 0.  0.
         25    1    3    3    0    0  0.29180832117E+02 -0.10985267983E+03 -0.21004372577E+03  0.26960157096E+03  0.12509000000E+03 0.  0.
         25    1    4    4    0    0  0.60411711922E+01  0.87203463087E+02 -0.29275722019E+03  0.33014426816E+03  0.12509000000E+03 0.  0.
         25    1    4    4    0    0 -0.35222003309E+02  0.22649216742E+02 -0.18946527904E+03  0.23086397856E+03  0.12509000000E+03 0.  0.
<mgrwt>
<rscale>  2 0.45899907E+03</rscale>
<asrwt>0</asrwt>
<pdfrwt beam="1">  1       21 0.10172324E-01 0.45899907E+03</pdfrwt>
<pdfrwt beam="2">  1       21 0.11197617E+00 0.45899907E+03</pdfrwt>
<totfact> 0.44894309E+04</totfact>
</mgrwt>
</event>
<event>
 7    0  0.4712189E-002  0.4402110E+03  0.7546771E-02  0.1030682E+00
         21   -1    0    0  502  501  0.00000000000E+00  0.00000000000E+00  0.49557634527E+02  0.49557634527E+02  0.00000000000E+00 0.  1.
         21   -1    0    0  501  502 -0.00000000000E+00 -0.00000000000E+00 -0.97757767117E+03  0.97757767117E+03  0.00000000000E+00 0.  1.
      99926    2    1    2    0    0  0.00000000000E+00  0.17763568394E-14 -0.92802003665E+03  0.10271353057E+04  0.44021102644E+03 0.  0.
      99925    2    3    3    0    0  0.23336298019E+02  0.11502138425E+02 -0.37014701167E+03  0.45481834624E+03  0.26300957365E+03 0.  0.
         25    1    4    4    0    0  0.10460995310E+02 -0.30720748632E+02 -0.21335132106E+03  0.24943835133E+03  0.12509000000E+03 0.  0.
         25    1    3    3    0    0 -0.23336298019E+02 -0.11502138425E+02 -0.55787302498E+03  0.57231695946E+03  0.12509000000E+03 0.  0.
         25    1    4    4    0    0  0.12875302709E+02  0.42222887057E+02 -0.15679569061E+03  0.20537999490E+03  0.12509000000E+03 0.  0.
<mgrwt>
<rscale>  2 0.44021103E+03</rscale>
<asrwt>0</asrwt>
<pdfrwt beam="1">  1       21 0.72878875E-02 0.44021103E+03</pdfrwt>
<pdfrwt beam="2">  1       21 0.14376142E+00 0.44021103E+03</pdfrwt>
<totfact> 0.42867363E+04</totfact>
</mgrwt>
</event>
<event>
 7    0  0.4712189E-002  0.3955467E+03  0.7546771E-02  0.1045333E+00
         21   -1    0    0  502  501  0.00000000000E+00  0.00000000000E+00  0.57330338542E+03  0.57330338542E+03  0.00000000000E+00 0.  1.
         21   -1    0    0  501  502 -0.00000000000E+00 -0.00000000000E+00 -0.68226189723E+02  0.68226189723E+02  0.00000000000E+00 0.  1.
      99926    2    1    2    0    0  0.17763568394E-14 -0.35527136788E-14  0.50507719570E+03  0.64152957514E+03  0.39554673829E+03 0.  0.
      99925    2    3    3    0    0 -0.14536043929E+02  0.74291722210E+01  0.28769235727E+03  0.39019281848E+03  0.26309134153E+03 0.  0.
         25    1    3    3    0    0  0.14536043929E+02 -0.74291722210E+01  0.21738483842E+03  0.25133675666E+03  0.12509000000E+03 0.  0.
         25    1    4    4    0    0 -0.29037436781E+02 -0.30672941317E+02  0.14316308677E+03  0.19474901689E+03  0.12509000000E+03 0.  0.
         25    1    4    4    0    0  0.14501392852E+02  0.38102113538E+02  0.14452927050E+03  0.19544380160E+03  0.12509000000E+03 0.  0.
<mgrwt>
<rscale>  2 0.39554674E+03</rscale>
<asrwt>0</asrwt>
<pdfrwt beam="1">  1       21 0.84309319E-01 0.39554674E+03</pdfrwt>
<pdfrwt beam="2">  1       21 0.10033263E-01 0.39554674E+03</pdfrwt>
<totfact> 0.92518681E+04</totfact>
</mgrwt>
</event>
<event>
 7    0  0.4712189E-002  0.4383210E+03  0.7546771E-02  0.1031263E+00
         21   -1    0    0  502  501  0.00000000000E+00  0.00000000000E+00  0.23914595122E+03  0.23914595122E+03  0.00000000000E+00 0.  1.
         21   -1    0    0  501  502 -0.00000000000E+00 -0.00000000000E+00 -0.20084528036E+03  0.20084528036E+03  0.00000000000E+00 0.  1.
      99926    2    1    2    0    0  0.00000000000E+00  0.00000000000E+00  0.38300670852E+02  0.43999123158E+03  0.43832104955E+03 0.  0.
      99925    2    3    3    0    0 -0.28146917351E+02 -0.46843455374E+02  0.10457709114E+03  0.28824595075E+03  0.26298821621E+03 0.  0.
         25    1    4    4    0    0 -0.21402187272E+02  0.68766060027E+01  0.22303386467E+02  0.12903600458E+03  0.12509000000E+03 0.  0.
         25    1    3    3    0    0  0.28146917351E+02  0.46843455374E+02 -0.66276420289E+02  0.15174528083E+03  0.12509000000E+03 0.  0.
         25    1    4    4    0    0 -0.67447300793E+01 -0.53720061377E+02  0.82273704674E+02  0.15920994617E+03  0.12509000000E+03 0.  0.
<mgrwt>
<rscale>  2 0.43832105E+03</rscale>
<asrwt>0</asrwt>
<pdfrwt beam="1">  1       21 0.35168522E-01 0.43832105E+03</pdfrwt>
<pdfrwt beam="2">  1       21 0.29536071E-01 0.43832105E+03</pdfrwt>
<totfact> 0.79756445E+04</totfact>
</mgrwt>
</event>
<event>
 7    0  0.4712189E-002  0.4090778E+03  0.7546771E-02  0.1040681E+00
         21   -1    0    0  502  501  0.00000000000E+00  0.00000000000E+00  0.10581852023E+03  0.10581852023E+03  0.00000000000E+00 0. -1.
         21   -1    0    0  501  502 -0.00000000000E+00 -0.00000000000E+00 -0.39535755776E+03  0.39535755776E+03  0.00000000000E+00 0. -1.
      99926    2    1    2    0    0  0.71054273576E-14  0.00000000000E+00 -0.28953903753E+03  0.50117607800E+03  0.40907775166E+03 0.  0.
      99925    2    3    3    0    0 -0.44115588611E+02  0.12227191400E+02 -0.24063241829E+03  0.35927803406E+03  0.26283275225E+03 0.  0.
         25    1    4    4    0    0 -0.42097953094E+02  0.41400748257E+02 -0.12405155902E+03  0.18580246771E+03  0.12509000000E+03 0.  0.
         25    1    3    3    0    0  0.44115588611E+02 -0.12227191400E+02 -0.48906619242E+02  0.14189804394E+03  0.12509000000E+03 0.  0.
         25    1    4    4    0    0 -0.20176355171E+01 -0.29173556856E+02 -0.11658085927E+03  0.17347556635E+03  0.12509000000E+03 0.  0.
<mgrwt>
<rscale>  2 0.40907775E+03</rscale>
<asrwt>0</asrwt>
<pdfrwt beam="1">  1       21 0.15561547E-01 0.40907775E+03</pdfrwt>
<pdfrwt beam="2">  1       21 0.58140817E-01 0.40907775E+03</pdfrwt>
<totfact> 0.95494650E+04</totfact>
</mgrwt>
</event>
<event>
 7    0  0.4712189E-002  0.4553911E+03  0.7546771E-02  0.1026126E+00
         21   -1    0    0  502  501  0.00000000000E+00  0.00000000000E+00  0.46258611010E+02  0.46258611010E+02  0.00000000000E+00 0. -1.
         21   -1    0    0  501  502 -0.00000000000E+00 -0.00000000000E+00 -0.11207702141E+04  0.11207702141E+04  0.00000000000E+00 0. -1.
      99926    2    1    2    0    0  0.00000000000E+00  0.35527136788E-14 -0.10745116031E+04  0.11670288251E+04  0.45539114336E+03 0.  0.
      99925    2    3    3    0    0  0.91410033275E+02  0.29586626550E+02 -0.52103122996E+03  0.59151236644E+03  0.26302504521E+03 0.  0.
         25    1    3    3    0    0 -0.91410033275E+02 -0.29586626550E+02 -0.55348037309E+03  0.57551645863E+03  0.12509000000E+03 0.  0.
         25    1    4    4    0    0  0.54643981359E+02  0.49143084283E+02 -0.31655645350E+03  0.34821904570E+03  0.12509000000E+03 0.  0.
         25    1    4    4    0    0  0.36766051916E+02 -0.19556457733E+02 -0.20447477646E+03  0.24329332075E+03  0.12509000000E+03 0.  0.
<mgrwt>
<rscale>  2 0.45539114E+03</rscale>
<asrwt>0</asrwt>
<pdfrwt beam="1">  1       21 0.68027370E-02 0.45539114E+03</pdfrwt>
<pdfrwt beam="2">  1       21 0.16481915E+00 0.45539114E+03</pdfrwt>
<totfact> 0.33117815E+04</totfact>
</mgrwt>
</event>
<event>
 7    0  0.4712189E-002  0.4575167E+03  0.7546771E-02  0.1025504E+00
         21   -1    0    0  502  501  0.00000000000E+00  0.00000000000E+00  0.83433942043E+02  0.83433942043E+02  0.00000000000E+00 0. -1.
         21   -1    0    0  501  502 -0.00000000000E+00 -0.00000000000E+00 -0.62720738675E+03  0.62720738675E+03  0.00000000000E+00 0. -1.
      99926    2    1    2    0    0 -0.14210854715E-13  0.00000000000E+00 -0.54377344471E+03  0.71064132880E+03  0.45751670901E+03 0.  0.
      99925    2    3    3    0    0  0.11495053268E+03 -0.54976349567E+01 -0.33574936686E+03  0.44200519195E+03  0.26343329974E+03 0.  0.
         25    1    4    4    0    0  0.61868593684E+02 -0.22723810084E+01 -0.10679571729E+03  0.17574333538E+03  0.12509000000E+03 0.  0.
         25    1    3    3    0    0 -0.11495053268E+03  0.54976349567E+01 -0.20802407785E+03  0.26863613684E+03  0.12509000000E+03 0.  0.
         25    1    4    4    0    0  0.53081938999E+02 -0.32252539483E+01 -0.22895364957E+03  0.26626185657E+03  0.12509000000E+03 0.  0.
<mgrwt>
<rscale>  2 0.45751671E+03</rscale>
<asrwt>0</asrwt>
<pdfrwt beam="1">  1       21 0.12269697E-01 0.45751671E+03</pdfrwt>
<pdfrwt beam="2">  1       21 0.92236381E-01 0.45751671E+03</pdfrwt>
<totfact> 0.51305576E+04</totfact>
</mgrwt>
</event>
<event>
 7    0  0.4712189E-002  0.4700756E+03  0.7546771E-02  0.1021899E+00
         21   -1    0    0  502  501  0.00000000000E+00  0.00000000000E+00  0.17294868198E+03  0.17294868198E+03  0.00000000000E+00 0. -1.
         21   -1    0    0  501  502 -0.00000000000E+00 -0.00000000000E+00 -0.31941708458E+03  0.31941708458E+03  0.00000000000E+00 0. -1.
      99926    2    1    2    0    0 -0.14210854715E-13  0.35527136788E-14 -0.14646840260E+03  0.49236576656E+03  0.47007558448E+03 0.  0.
      99925    2    3    3    0    0  0.10026616427E+03  0.19350415975E+02 -0.16968367080E+03  0.32922717801E+03  0.26300236560E+03 0.  0.
         25    1    3    3    0    0 -0.10026616427E+03 -0.19350415975E+02  0.23215268197E+02  0.16313858855E+03  0.12509000000E+03 0.  0.
         25    1    4    4    0    0  0.25224002314E+02 -0.17601529448E+02 -0.55183877530E+02  0.14013861913E+03  0.12509000000E+03 0.  0.
         25    1    4    4    0    0  0.75042161960E+02  0.36951945423E+02 -0.11449979327E+03  0.18908855889E+03  0.12509000000E+03 0.  0.
<mgrwt>
<rscale>  2 0.47007558E+03</rscale>
<asrwt>0</asrwt>
<pdfrwt beam="1">  1       21 0.25433630E-01 0.47007558E+03</pdfrwt>
<pdfrwt beam="2">  1       21 0.46973100E-01 0.47007558E+03</pdfrwt>
<totfact> 0.58491074E+04</totfact>
</mgrwt>
</event>
<event>
 7    0  0.4712189E-002  0.4380034E+03  0.7546771E-02  0.1031361E+00
         21   -1    0    0  502  501  0.00000000000E+00  0.00000000000E+00  0.16372819416E+03  0.16372819416E+03  0.00000000000E+00 0. -1.
         21   -1    0    0  501  502 -0.00000000000E+00 -0.00000000000E+00 -0.29293520578E+03  0.29293520578E+03  0.00000000000E+00 0. -1.
      99926    2    1    2    0    0  0.00000000000E+00 -0.17763568394E-14 -0.12920701162E+03  0.45666339994E+03  0.43800343491E+03 0.  0.
      99925    2    3    3    0    0  0.95908323753E+02 -0.12862739282E+02 -0.88887640345E+02  0.29345489395E+03  0.26239456083E+03 0.  0.
         25    1    4    4    0    0  0.79483911390E+02 -0.29071813853E+02 -0.33408542003E+02  0.15468193595E+03  0.12509000000E+03 0.  0.
         25    1    4    4    0    0  0.16424412364E+02  0.16209074571E+02 -0.55479098341E+02  0.13877295800E+03  0.12509000000E+03 0.  0.
         25    1    3    3    0    0 -0.95908323753E+02  0.12862739282E+02 -0.40319371279E+02  0.16320850599E+03  0.12509000000E+03 0.  0.
<mgrwt>
<rscale>  2 0.43800343E+03</rscale>
<asrwt>0</asrwt>
<pdfrwt beam="1">  1       21 0.24077676E-01 0.43800343E+03</pdfrwt>
<pdfrwt beam="2">  1       21 0.43078707E-01 0.43800343E+03</pdfrwt>
<totfact> 0.78503511E+04</totfact>
</mgrwt>
</event>
<event>
 7    0  0.4712189E-002  0.4493635E+03  0.7546771E-02  0.1027912E+00
         21   -1    0    0  502  501  0.00000000000E+00  0.00000000000E+00  0.22316747105E+03  0.22316747105E+03  0.00000000000E+00 0.  1.
         21   -1    0    0  501  502 -0.00000000000E+00 -0.00000000000E+00 -0.22620627204E+03  0.22620627204E+03  0.00000000000E+00 0.  1.
      99926    2    1    2    0    0 -0.62172489379E-14  0.00000000000E+00 -0.30388009937E+01  0.44937374308E+03  0.44936346832E+03 0.  0.
      99925    2    3    3    0    0  0.43658694894E+01  0.85446366885E+02 -0.67769285866E+02  0.28457785053E+03  0.26281501950E+03 0.  0.
         25    1    3    3    0    0 -0.43658694894E+01 -0.85446366885E+02  0.64730484872E+02  0.16479589255E+03  0.12509000000E+03 0.  0.
         25    1    4    4    0    0  0.39383392122E+02  0.33145643729E+02 -0.20673396911E+02  0.13683779709E+03  0.12509000000E+03 0.  0.
         25    1    4    4    0    0 -0.35017522632E+02  0.52300723156E+02 -0.47095888955E+02  0.14774005344E+03  0.12509000000E+03 0.  0.
<mgrwt>
<rscale>  2 0.44936347E+03</rscale>
<asrwt>0</asrwt>
<pdfrwt beam="1">  1       21 0.32818746E-01 0.44936347E+03</pdfrwt>
<pdfrwt beam="2">  1       21 0.33265628E-01 0.44936347E+03</pdfrwt>
<totfact> 0.72150634E+04</totfact>
</mgrwt>
</event>
<event>
 6    0  0.4712189E-002  0.4499278E+03  0.7546771E-02  0.1027744E+00
         21   -1    0    0  502  501  0.00000000000E+00  0.00000000000E+00  0.11974155274E+03  0.11974155274E+03  0.00000000000E+00 0.  1.
         21   -1    0    0  501  502 -0.00000000000E+00 -0.00000000000E+00 -0.42264994344E+03  0.42264994344E+03  0.00000000000E+00 0.  1.
      99926    2    1    2    0    0 -0.71054273576E-14 -0.71054273576E-14 -0.30290839070E+03  0.54239149618E+03  0.44992781862E+03 0.  0.
         25    1    3    3    0    0 -0.38105142426E+02 -0.39491207176E+02 -0.18673493133E+01  0.13661095277E+03  0.12509000000E+03 0.  0.
         25    1    3    3    0    0  0.35118723404E+02  0.94690746166E+01 -0.21364916919E+03  0.25023281899E+03  0.12509000000E+03 0.  0.
         25    1    3    3    0    0  0.29864190223E+01  0.30022132560E+02 -0.87391872206E+02  0.15554772441E+03  0.12509000000E+03 0.  0.
<mgrwt>
<rscale>  2 0.44992782E+03</rscale>
<asrwt>0</asrwt>
<pdfrwt beam="1">  1       21 0.17609052E-01 0.44992782E+03</pdfrwt>
<pdfrwt beam="2">  1       21 0.62154403E-01 0.44992782E+03</pdfrwt>
<totfact> 0.64939666E+04</totfact>
</mgrwt>
</event>
<event>
 7    0  0.4712189E-002  0.4548560E+03  0.7546771E-02  0.1026284E+00
         21   -1    0    0  502  501  0.00000000000E+00  0.00000000000E+00  0.60855215893E+03  0.60855215893E+03  0.00000000000E+00 0. -1.
         21   -1    0    0  501  502 -0.00000000000E+00 -0.00000000000E+00 -0.84994338462E+02  0.84994338462E+02  0.00000000000E+00 0. -1.
      99926    2    1    2    0    0  0.14210854715E-13  0.71054273576E-14  0.52355782046E+03  0.69354649739E+03  0.45485596915E+03 0.  0.
      99925    2    3    3    0    0  0.87055247287E+02  0.61321935422E+02  0.27291332301E+03  0.39386471942E+03  0.26326553037E+03 0.  0.
         25    1    4    4    0    0  0.28756796302E+02  0.29349490138E+02  0.18524163425E+03  0.22726706110E+03  0.12509000000E+03 0.  0.
         25    1    3    3    0    0 -0.87055247287E+02 -0.61321935422E+02  0.25064449745E+03  0.29968177797E+03  0.12509000000E+03 0.  0.
         25    1    4    4    0    0  0.58298450985E+02  0.31972445284E+02  0.87671688767E+02  0.16659765831E+03  0.12509000000E+03 0.  0.
<mgrwt>
<rscale>  2 0.45485597E+03</rscale>
<asrwt>0</asrwt>
<pdfrwt beam="1">  1       21 0.89492962E-01 0.45485597E+03</pdfrwt>
<pdfrwt beam="2">  1       21 0.12499168E-01 0.45485597E+03</pdfrwt>
<totfact> 0.53315209E+04</totfact>
</mgrwt>
</event>
<event>
 7    0  0.4712189E-002  0.4470264E+03  0.7546771E-02  0.1028613E+00
         21   -1    0    0  502  501  0.00000000000E+00  0.00000000000E+00  0.20922452107E+03  0.20922452107E+03  0.00000000000E+00 0.  1.
         21   -1    0    0  501  502 -0.00000000000E+00 -0.00000000000E+00 -0.23877775064E+03  0.23877775064E+03  0.00000000000E+00 0.  1.
      99926    2    1    2    0    0  0.00000000000E+00  0.00000000000E+00 -0.29553229569E+02  0.44800227171E+03  0.44702644450E+03 0.  0.
      99925    2    3    3    0    0  0.40717363756E+02 -0.67627460936E+02 -0.88855755097E+02  0.28864206709E+03  0.26303520771E+03 0.  0.
         25    1    3    3    0    0 -0.40717363756E+02  0.67627460936E+02  0.59302525527E+02  0.15936020462E+03  0.12509000000E+03 0.  0.
         25    1    4    4    0    0  0.27673806379E+02 -0.16823780255E+02 -0.81565108674E+02  0.15280462753E+03  0.12509000000E+03 0.  0.
         25    1    4    4    0    0  0.13043557377E+02 -0.50803680681E+02 -0.72906464226E+01  0.13583743956E+03  0.12509000000E+03 0.  0.
<mgrwt>
<rscale>  2 0.44702644E+03</rscale>
<asrwt>0</asrwt>
<pdfrwt beam="1">  1       21 0.30768312E-01 0.44702644E+03</pdfrwt>
<pdfrwt beam="2">  1       21 0.35114375E-01 0.44702644E+03</pdfrwt>
<totfact> 0.73635879E+04</totfact>
</mgrwt>
</event>
<event>
 7    0  0.4712189E-002  0.4545762E+03  0.7546771E-02  0.1026366E+00
         21   -1    0    0  502  501  0.00000000000E+00  0.00000000000E+00  0.11398945763E+04  0.11398945763E+04  0.00000000000E+00 0.  1.
         21   -1    0    0  501  502 -0.00000000000E+00 -0.00000000000E+00 -0.45319883233E+02  0.45319883233E+02  0.00000000000E+00 0.  1.
      99926    2    1    2    0    0 -0.35527136788E-14  0.14210854715E-13  0.10945746931E+04  0.11852144595E+04  0.45457623825E+03 0.  0.
      99925    2    3    3    0    0  0.27361481281E+02 -0.77015504494E+02  0.89140113904E+03  0.93301009845E+03  0.26311939219E+03 0.  0.
         25    1    4    4    0    0 -0.22906153937E+02 -0.27659409537E+02  0.37074285417E+03  0.39292175664E+03  0.12509000000E+03 0.  0.
         25    1    4    4    0    0  0.50267635218E+02 -0.49356094957E+02  0.52065828487E+03  0.54008834182E+03  0.12509000000E+03 0.  0.
         25    1    3    3    0    0 -0.27361481281E+02  0.77015504494E+02  0.20317355403E+03  0.25220436108E+03  0.12509000000E+03 0.  0.
<mgrwt>
<rscale>  2 0.45457624E+03</rscale>
<asrwt>0</asrwt>
<pdfrwt beam="1">  1       21 0.16763154E+00 0.45457624E+03</pdfrwt>
<pdfrwt beam="2">  1       21 0.66646894E-02 0.45457624E+03</pdfrwt>
<totfact> 0.32736061E+04</totfact>
</mgrwt>
</event>
<event>
 7    0  0.4712189E-002  0.4590676E+03  0.7546771E-02  0.1025052E+00
         21   -1    0    0  502  501  0.00000000000E+00  0.00000000000E+00  0.13155020820E+03  0.13155020820E+03  0.00000000000E+00 0.  1.
         21   -1    0    0  501  502 -0.00000000000E+00 -0.00000000000E+00 -0.40049923438E+03  0.40049923438E+03  0.00000000000E+00 0.  1.
      99926    2    1    2    0    0  0.17763568394E-14  0.00000000000E+00 -0.26894902618E+03  0.53204944258E+03  0.45906756656E+03 0.  0.
      99925    2    3    3    0    0 -0.15128108639E+02 -0.94646351411E+02 -0.24590389374E+03  0.37278432482E+03  0.26327293132E+03 0.  0.
         25    1    4    4    0    0 -0.21106689265E+02 -0.49095201785E+02 -0.72658813887E+02  0.15421621998E+03  0.12509000000E+03 0.  0.
         25    1    4    4    0    0  0.59785806256E+01 -0.45551149626E+02 -0.17324507986E+03  0.21856810484E+03  0.12509000000E+03 0.  0.
         25    1    3    3    0    0  0.15128108639E+02  0.94646351411E+02 -0.23045132437E+02  0.15926511776E+03  0.12509000000E+03 0.  0.
<mgrwt>
<rscale>  2 0.45906757E+03</rscale>
<asrwt>0</asrwt>
<pdfrwt beam="1">  1       21 0.19345618E-01 0.45906757E+03</pdfrwt>
<pdfrwt beam="2">  1       21 0.58896948E-01 0.45906757E+03</pdfrwt>
<totfact> 0.61075072E+04</totfact>
</mgrwt>
</event>
<event>
 7    0  0.4712189E-002  0.4600033E+03  0.7546771E-02  0.1024780E+00
         21   -1    0    0  502  501  0.00000000000E+00  0.00000000000E+00  0.27772636861E+03  0.27772636861E+03  0.00000000000E+00 0. -1.
         21   -1    0    0  501  502 -0.00000000000E+00 -0.00000000000E+00 -0.19047799602E+03  0.19047799602E+03  0.00000000000E+00 0. -1.
      99926    2    1    2    0    0  0.00000000000E+00  0.00000000000E+00  0.87248372595E+02  0.46820436463E+03  0.46000331362E+03 0.  0.
      99925    2    3    3    0    0 -0.66549375266E+02 -0.45273578801E+02 -0.33018926553E+02  0.27691858986E+03  0.26289758389E+03 0.  0.
         25    1    4    4    0    0 -0.13999738100E+02 -0.55301688630E+02 -0.30597045110E+02  0.14084728149E+03  0.12509000000E+03 0.  0.
         25    1    3    3    0    0  0.66549375266E+02  0.45273578801E+02  0.12026729915E+03  0.19128577477E+03  0.12509000000E+03 0.  0.
         25    1    4    4    0    0 -0.52549637166E+02  0.10028109829E+02 -0.24218814428E+01  0.13607130837E+03  0.12509000000E+03 0.  0.
<mgrwt>
<rscale>  2 0.46000331E+03</rscale>
<asrwt>0</asrwt>
<pdfrwt beam="1">  1       21 0.40842113E-01 0.46000331E+03</pdfrwt>
<pdfrwt beam="2">  1       21 0.28011470E-01 0.46000331E+03</pdfrwt>
<totfact> 0.64951007E+04</totfact>
</mgrwt>
</event>
<event>
 7    0  0.4712189E-002  0.4539146E+03  0.7546771E-02  0.1026561E+00
         21   -1    0    0  502  501  0.00000000000E+00  0.00000000000E+00  0.44818216530E+03  0.44818216530E+03  0.00000000000E+00 0. -1.
         21   -1    0    0  501  502 -0.00000000000E+00 -0.00000000000E+00 -0.11493006510E+03  0.11493006510E+03  0.00000000000E+00 0. -1.
      99926    2    1    2    0    0  0.00000000000E+00  0.00000000000E+00  0.33325210020E+03  0.56311223040E+03  0.45391455335E+03 0.  0.
      99925    2    3    3    0    0 -0.73324638442E+02 -0.68809117529E+02  0.27167305810E+03  0.39120910715E+03  0.26292036391E+03 0.  0.
         25    1    3    3    0    0  0.73324638442E+02  0.68809117529E+02  0.61579042096E+02  0.17190312325E+03  0.12509000000E+03 0.  0.
         25    1    4    4    0    0 -0.22447902628E+02 -0.84694239785E+01  0.85378248517E+02  0.15333816516E+03  0.12509000000E+03 0.  0.
         25    1    4    4    0    0 -0.50876735814E+02 -0.60339693551E+02  0.18629480958E+03  0.23787094199E+03  0.12509000000E+03 0.  0.
<mgrwt>
<rscale>  2 0.45391455E+03</rscale>
<asrwt>0</asrwt>
<pdfrwt beam="1">  1       21 0.65909141E-01 0.45391455E+03</pdfrwt>
<pdfrwt beam="2">  1       21 0.16901480E-01 0.45391455E+03</pdfrwt>
<totfact> 0.61534852E+04</totfact>
</mgrwt>
</event>
<event>
 7    0  0.4712189E-002  0.4596741E+03  0.7546771E-02  0.1024876E+00
         21   -1    0    0  502  501  0.00000000000E+00  0.00000000000E+00  0.61057666563E+03  0.61057666563E+03  0.00000000000E+00 0.  1.
         21   -1    0    0  501  502 -0.00000000000E+00 -0.00000000000E+00 -0.86516669462E+02  0.86516669462E+02  0.00000000000E+00 0.  1.
      99926    2    1    2    0    0  0.00000000000E+00  0.00000000000E+00  0.52405999617E+03  0.69709333509E+03  0.45967405653E+03 0.  0.
      99925    2    3    3    0    0 -0.97759235569E+02 -0.56559263953E+02  0.37661818957E+03  0.47316831883E+03  0.26323217650E+03 0.  0.
         25    1    4    4    0    0 -0.84459391188E+02 -0.30967695983E+02  0.16578547882E+03  0.22632878748E+03  0.12509000000E+03 0.  0.
         25    1    3    3    0    0  0.97759235569E+02  0.56559263953E+02  0.14744180660E+03  0.22392501627E+03  0.12509000000E+03 0.  0.
         25    1    4    4    0    0 -0.13299844381E+02 -0.25591567970E+02  0.21083271076E+03  0.24683953135E+03  0.12509000000E+03 0.  0.
<mgrwt>
<rscale>  2 0.45967406E+03</rscale>
<asrwt>0</asrwt>
<pdfrwt beam="1">  1       21 0.89790684E-01 0.45967406E+03</pdfrwt>
<pdfrwt beam="2">  1       21 0.12723040E-01 0.45967406E+03</pdfrwt>
<totfact> 0.51153143E+04</totfact>
</mgrwt>
</event>
<event>
 7    0  0.4712189E-002  0.4578424E+03  0.7546771E-02  0.1025409E+00
         21   -1    0    0  502  501  0.00000000000E+00  0.00000000000E+00  0.43480215109E+02  0.43480215109E+02  0.00000000000E+00 0. -1.
         21   -1    0    0  501  502 -0.00000000000E+00 -0.00000000000E+00 -0.12052590701E+04  0.12052590701E+04  0.00000000000E+00 0. -1.
      99926    2    1    2    0    0 -0.71054273576E-14  0.00000000000E+00 -0.11617788549E+04  0.12487392852E+04  0.45784243415E+03 0.  0.
      99925    2    3    3    0    0  0.56049573335E+02 -0.90719511491E+02 -0.60641912742E+03  0.66956442427E+03  0.26306040315E+03 0.  0.
         25    1    3    3    0    0 -0.56049573335E+02  0.90719511491E+02 -0.55535972752E+03  0.57917486089E+03  0.12509000000E+03 0.  0.
         25    1    4    4    0    0  0.30875488312E+02 -0.69481379600E+02 -0.24154864129E+03  0.28244329006E+03  0.12509000000E+03 0.  0.
         25    1    4    4    0    0  0.25174085023E+02 -0.21238131891E+02 -0.36487048612E+03  0.38712113420E+03  0.12509000000E+03 0.  0.
<mgrwt>
<rscale>  2 0.45784243E+03</rscale>
<asrwt>0</asrwt>
<pdfrwt beam="1">  1       21 0.63941490E-02 0.45784243E+03</pdfrwt>
<pdfrwt beam="2">  1       21 0.17724399E+00 0.45784243E+03</pdfrwt>
<totfact> 0.29971799E+04</totfact>
</mgrwt>
</event>
<event>
 7    0  0.4712189E-002  0.4566834E+03  0.7546771E-02  0.1025748E+00
         21   -1    0    0  502  501  0.00000000000E+00  0.00000000000E+00  0.21511477910E+03  0.21511477910E+03  0.00000000000E+00 0. -1.
         21   -1    0    0  501  502 -0.00000000000E+00 -0.00000000000E+00 -0.24238191178E+03  0.24238191178E+03  0.00000000000E+00 0. -1.
      99926    2    1    2    0    0  0.00000000000E+00  0.88817841970E-15 -0.27267132678E+02  0.45749669087E+03  0.45668339759E+03 0.  0.
      99925    2    3    3    0    0  0.42459312085E+02  0.46274082969E+01  0.89560174183E+02  0.28108712815E+03  0.26299190619E+03 0.  0.
         25    1    3    3    0    0 -0.42459312085E+02 -0.46274082969E+01 -0.11682730686E+03  0.17640956272E+03  0.12509000000E+03 0.  0.
         25    1    4    4    0    0 -0.18571929702E+02 -0.73375461568E+01  0.45712323355E+02  0.13466952425E+03  0.12509000000E+03 0.  0.
         25    1    4    4    0    0  0.61031241787E+02  0.11964954454E+02  0.43847850828E+02  0.14641760390E+03  0.12509000000E+03 0.  0.
<mgrwt>
<rscale>  2 0.45668340E+03</rscale>
<asrwt>0</asrwt>
<pdfrwt beam="1">  1       21 0.31634526E-01 0.45668340E+03</pdfrwt>
<pdfrwt beam="2">  1       21 0.35644399E-01 0.45668340E+03</pdfrwt>
<totfact> 0.67452751E+04</totfact>
</mgrwt>
</event>
<event>
 7    0  0.4712189E-002  0.4504569E+03  0.7546771E-02  0.1027586E+00
         21   -1    0    0  502  501  0.00000000000E+00  0.00000000000E+00  0.25398243914E+03  0.25398243914E+03  0.00000000000E+00 0. -1.
         21   -1    0    0  501  502 -0.00000000000E+00 -0.00000000000E+00 -0.19972979770E+03  0.19972979770E+03  0.00000000000E+00 0. -1.
      99926    2    1    2    0    0  0.00000000000E+00  0.00000000000E+00  0.54252641439E+02  0.45371223684E+03  0.45045692886E+03 0.  0.
      99925    2    3    3    0    0  0.21206244445E+02 -0.10544110891E+03  0.20444864767E+02  0.28531388140E+03  0.26347388138E+03 0.  0.
         25    1    4    4    0    0  0.34340243951E+02 -0.30663305181E+02  0.36252958288E+02  0.13813499095E+03  0.12509000000E+03 0.  0.
         25    1    4    4    0    0 -0.13133999506E+02 -0.74777803732E+02 -0.15808093521E+02  0.14717889045E+03  0.12509000000E+03 0.  0.
         25    1    3    3    0    0 -0.21206244445E+02  0.10544110891E+03  0.33807776673E+02  0.16839835544E+03  0.12509000000E+03 0.  0.
<mgrwt>
<rscale>  2 0.45045693E+03</rscale>
<asrwt>0</asrwt>
<pdfrwt beam="1">  1       21 0.37350359E-01 0.45045693E+03</pdfrwt>
<pdfrwt beam="2">  1       21 0.29372029E-01 0.45045693E+03</pdfrwt>
<totfact> 0.71185550E+04</totfact>
</mgrwt>
</event>
<event>
 7    0  0.4712189E-002  0.4916489E+03  0.7546771E-02  0.1015982E+00
         21   -1    0    0  502  501  0.00000000000E+00  0.00000000000E+00  0.17896963362E+03  0.17896963362E+03  0.00000000000E+00 0.  1.
         21   -1    0    0  501  502 -0.00000000000E+00 -0.00000000000E+00 -0.33765316586E+03  0.33765316586E+03  0.00000000000E+00 0.  1.
      99926    2    1    2    0    0  0.00000000000E+00  0.00000000000E+00 -0.15868353224E+03  0.51662279949E+03  0.49164891289E+03 0.  0.
      99925    2    3    3    0    0 -0.86496261127E+02  0.11371476293E+03 -0.12183081549E+03  0.32318474396E+03  0.26304558659E+03 0.  0.
         25    1    4    4    0    0 -0.24079625847E+02  0.31150199150E+02 -0.86286836398E+02  0.15698117570E+03  0.12509000000E+03 0.  0.
         25    1    3    3    0    0  0.86496261127E+02 -0.11371476293E+03 -0.36852716747E+02  0.19343805553E+03  0.12509000000E+03 0.  0.
         25    1    4    4    0    0 -0.62416635281E+02  0.82564563778E+02 -0.35543979094E+02  0.16620356826E+03  0.12509000000E+03 0.  0.
<mgrwt>
<rscale>  2 0.49164891E+03</rscale>
<asrwt>0</asrwt>
<pdfrwt beam="1">  1       21 0.26319064E-01 0.49164891E+03</pdfrwt>
<pdfrwt beam="2">  1       21 0.49654877E-01 0.49164891E+03</pdfrwt>
<totfact> 0.48422205E+04</totfact>
</mgrwt>
</event>
<event>
 7    0  0.4712189E-002  0.4581479E+03  0.7546771E-02  0.1025320E+00
         21   -1    0    0  502  501  0.00000000000E+00  0.00000000000E+00  0.24946090752E+03  0.24946090752E+03  0.00000000000E+00 0.  1.
         21   -1    0    0  501  502 -0.00000000000E+00 -0.00000000000E+00 -0.21035313549E+03  0.21035313549E+03  0.00000000000E+00 0.  1.
      99926    2    1    2    0    0  0.14210854715E-13  0.00000000000E+00  0.39107772022E+02  0.45981404301E+03  0.45814794152E+03 0.  0.
      99925    2    3    3    0    0 -0.11043921686E+03 -0.20714909879E+02  0.53557047673E+02  0.29104728746E+03  0.26308598987E+03 0.  0.
         25    1    4    4    0    0 -0.64327220949E+02 -0.50463269692E+02  0.30439717978E+02  0.15250776201E+03  0.12509000000E+03 0.  0.
         25    1    3    3    0    0  0.11043921686E+03  0.20714909879E+02 -0.14449275650E+02  0.16876675555E+03  0.12509000000E+03 0.  0.
         25    1    4    4    0    0 -0.46111995916E+02  0.29748359813E+02  0.23117329694E+02  0.13853952545E+03  0.12509000000E+03 0.  0.
<mgrwt>
<rscale>  2 0.45814794E+03</rscale>
<asrwt>0</asrwt>
<pdfrwt beam="1">  1       21 0.36685428E-01 0.45814794E+03</pdfrwt>
<pdfrwt beam="2">  1       21 0.30934284E-01 0.45814794E+03</pdfrwt>
<totfact> 0.66508362E+04</totfact>
</mgrwt>
</event>
<event>
 7    0  0.4712189E-002  0.4652246E+03  0.7546771E-02  0.1023277E+00
         21   -1    0    0  502  501  0.00000000000E+00  0.00000000000E+00  0.41718269795E+03  0.41718269795E+03  0.00000000000E+00 0. -1.
         21   -1    0    0  501  502 -0.00000000000E+00 -0.00000000000E+00 -0.12969975208E+03  0.12969975208E+03  0.00000000000E+00 0. -1.
      99926    2    1    2    0    0  0.00000000000E+00  0.00000000000E+00  0.28748294588E+03  0.54688245003E+03  0.46522464464E+03 0.  0.
      99925    2    3    3    0    0  0.98066435838E+02 -0.67561670992E+02  0.21188306518E+03  0.35835007804E+03  0.26332250170E+03 0.  0.
         25    1    4    4    0    0  0.52745814824E+02  0.37053135157E+01  0.78103908586E+02  0.15666390448E+03  0.12509000000E+03 0.  0.
         25    1    3    3    0    0 -0.98066435838E+02  0.67561670992E+02  0.75599880699E+02  0.18853237199E+03  0.12509000000E+03 0.  0.
         25    1    4    4    0    0  0.45320621014E+02 -0.71266984507E+02  0.13377915659E+03  0.20168617357E+03  0.12509000000E+03 0.  0.
<mgrwt>
<rscale>  2 0.46522464E+03</rscale>
<asrwt>0</asrwt>
<pdfrwt beam="1">  1       21 0.61350396E-01 0.46522464E+03</pdfrwt>
<pdfrwt beam="2">  1       21 0.19073493E-01 0.46522464E+03</pdfrwt>
<totfact> 0.57293349E+04</totfact>
</mgrwt>
</event>
<event>
 7    0  0.4712189E-002  0.4614503E+03  0.7546771E-02  0.1024361E+00
         21   -1    0    0  502  501  0.00000000000E+00  0.00000000000E+00  0.71847418733E+02  0.71847418733E+02  0.00000000000E+00 0.  1.
         21   -1    0    0  501  502 -0.00000000000E+00 -0.00000000000E+00 -0.74093254877E+03  0.74093254877E+03  0.00000000000E+00 0.  1.
      99926    2    1    2    0    0  0.00000000000E+00  0.00000000000E+00 -0.66908513004E+03  0.81277996751E+03  0.46145028371E+03 0.  0.
      99925    2    3    3    0    0 -0.55797554173E+02 -0.89265595948E+02 -0.31999935005E+03  0.42730609866E+03  0.26288629528E+03 0.  0.
         25    1    3    3    0    0  0.55797554173E+02  0.89265595948E+02 -0.34908577999E+03  0.38547386885E+03  0.12509000000E+03 0.  0.
         25    1    4    4    0    0 -0.65385443005E+02 -0.60504234353E+02 -0.19094725768E+03  0.24503955160E+03  0.12509000000E+03 0.  0.
         25    1    4    4    0    0  0.95878888325E+01 -0.28761361594E+02 -0.12905209237E+03  0.18226654706E+03  0.12509000000E+03 0.  0.
<mgrwt>
<rscale>  2 0.46145028E+03</rscale>
<asrwt>0</asrwt>
<pdfrwt beam="1">  1       21 0.10565797E-01 0.46145028E+03</pdfrwt>
<pdfrwt beam="2">  1       21 0.10896067E+00 0.46145028E+03</pdfrwt>
<totfact> 0.44839812E+04</totfact>
</mgrwt>
</event>
<event>
 7    0  0.4712189E-002  0.4566120E+03  0.7546771E-02  0.1025768E+00
         21   -1    0    0  502  501  0.00000000000E+00  0.00000000000E+00  0.99975749058E+03  0.99975749058E+03  0.00000000000E+00 0. -1.
         21   -1    0    0  501  502 -0.00000000000E+00 -0.00000000000E+00 -0.52136278655E+02  0.52136278655E+02  0.00000000000E+00 0. -1.
      99926    2    1    2    0    0  0.00000000000E+00  0.00000000000E+00  0.94762121192E+03  0.10518937692E+04  0.45661202400E+03 0.  0.
      99925    2    3    3    0    0  0.18166593149E+02 -0.46339633162E+02  0.36199987940E+03  0.45099673986E+03  0.26434212674E+03 0.  0.
         25    1    3    3    0    0 -0.18166593149E+02  0.46339633162E+02  0.58562133252E+03  0.60089702938E+03  0.12509000000E+03 0.  0.
         25    1    4    4    0    0  0.46319906793E+01 -0.10221653215E+01  0.23656717775E+03  0.26764535836E+03  0.12509000000E+03 0.  0.
         25    1    4    4    0    0  0.13534602469E+02 -0.45317467841E+02  0.12543270165E+03  0.18335138150E+03  0.12509000000E+03 0.  0.
<mgrwt>
<rscale>  2 0.45661202E+03</rscale>
<asrwt>0</asrwt>
<pdfrwt beam="1">  1       21 0.14702315E+00 0.45661202E+03</pdfrwt>
<pdfrwt beam="2">  1       21 0.76671004E-02 0.45661202E+03</pdfrwt>
<totfact> 0.36743488E+04</totfact>
</mgrwt>
</event>
<event>
 7    0  0.4712189E-002  0.4463860E+03  0.7546771E-02  0.1028805E+00
         21   -1    0    0  502  501  0.00000000000E+00  0.00000000000E+00  0.14859397451E+03  0.14859397451E+03  0.00000000000E+00 0.  1.
         21   -1    0    0  501  502 -0.00000000000E+00 -0.00000000000E+00 -0.33524310021E+03  0.33524310021E+03  0.00000000000E+00 0.  1.
      99926    2    1    2    0    0  0.88817841970E-15  0.00000000000E+00 -0.18664912570E+03  0.48383707473E+03  0.44638595269E+03 0.  0.
      99925    2    3    3    0    0  0.36886398367E+01 -0.57969821605E+01 -0.23189450678E+03  0.35063848736E+03  0.26291648005E+03 0.  0.
         25    1    4    4    0    0  0.23719889858E+02  0.58380786011E+01 -0.72256939602E+02  0.14651037423E+03  0.12509000000E+03 0.  0.
         25    1    3    3    0    0 -0.36886398367E+01  0.57969821605E+01  0.45245381082E+02  0.13319858736E+03  0.12509000000E+03 0.  0.
         25    1    4    4    0    0 -0.20031250021E+02 -0.11635060762E+02 -0.15963756718E+03  0.20412811313E+03  0.12509000000E+03 0.  0.
<mgrwt>
<rscale>  2 0.44638595E+03</rscale>
<asrwt>0</asrwt>
<pdfrwt beam="1">  1       21 0.21852055E-01 0.44638595E+03</pdfrwt>
<pdfrwt beam="2">  1       21 0.49300455E-01 0.44638595E+03</pdfrwt>
<totfact> 0.71165278E+04</totfact>
</mgrwt>
</event>
<event>
 7    0  0.4712189E-002  0.4585616E+03  0.7546771E-02  0.1025199E+00
         21   -1    0    0  502  501  0.00000000000E+00  0.00000000000E+00  0.12122704925E+03  0.12122704925E+03  0.00000000000E+00 0.  1.
         21   -1    0    0  501  502 -0.00000000000E+00 -0.00000000000E+00 -0.43364655909E+03  0.43364655909E+03  0.00000000000E+00 0.  1.
      99926    2    1    2    0    0  0.14210854715E-13  0.17763568394E-14 -0.31241950984E+03  0.55487360834E+03  0.45856163282E+03 0.  0.
      99925    2    3    3    0    0 -0.10947363798E+03 -0.77548575855E+01 -0.15026002477E+03  0.32252081208E+03  0.26343307301E+03 0.  0.
         25    1    4    4    0    0 -0.33672508557E+02 -0.14264001268E+02 -0.31696227839E+02  0.13412478713E+03  0.12509000000E+03 0.  0.
         25    1    3    3    0    0  0.10947363798E+03  0.77548575855E+01 -0.16215948507E+03  0.23235279625E+03  0.12509000000E+03 0.  0.
         25    1    4    4    0    0 -0.75801129422E+02  0.65091436827E+01 -0.11856379693E+03  0.18839602495E+03  0.12509000000E+03 0.  0.
<mgrwt>
<rscale>  2 0.45856163E+03</rscale>
<asrwt>0</asrwt>
<pdfrwt beam="1">  1       21 0.17827508E-01 0.45856163E+03</pdfrwt>
<pdfrwt beam="2">  1       21 0.63771551E-01 0.45856163E+03</pdfrwt>
<totfact> 0.59841598E+04</totfact>
</mgrwt>
</event>
<event>
 7    0  0.4712189E-002  0.4524672E+03  0.7546771E-02  0.1026989E+00
         21   -1    0    0  502  501  0.00000000000E+00  0.00000000000E+00  0.28594471643E+03  0.28594471643E+03  0.00000000000E+00 0. -1.
         21   -1    0    0  501  502 -0.00000000000E+00 -0.00000000000E+00 -0.17899138598E+03  0.17899138598E+03  0.00000000000E+00 0. -1.
      99926    2    1    2    0    0  0.17763568394E-14  0.00000000000E+00  0.10695333045E+03  0.46493610240E+03  0.45246719707E+03 0.  0.
      99925    2    3    3    0    0 -0.60907448078E+01 -0.10984280700E+03  0.68277270141E+02  0.29392181890E+03  0.26386684253E+03 0.  0.
         25    1    4    4    0    0  0.13769008721E+02 -0.14729345094E+02  0.19558945126E+02  0.12820530271E+03  0.12509000000E+03 0.  0.
         25    1    4    4    0    0 -0.19859753529E+02 -0.95113461904E+02  0.48718325015E+02  0.16571651619E+03  0.12509000000E+03 0.  0.
         25    1    3    3    0    0  0.60907448078E+01  0.10984280700E+03  0.38676060310E+02  0.17101428350E+03  0.12509000000E+03 0.  0.
<mgrwt>
<rscale>  2 0.45246720E+03</rscale>
<asrwt>0</asrwt>
<pdfrwt beam="1">  1       21 0.42050694E-01 0.45246720E+03</pdfrwt>
<pdfrwt beam="2">  1       21 0.26322263E-01 0.45246720E+03</pdfrwt>
<totfact> 0.69194163E+04</totfact>
</mgrwt>
</event>
<event>
 7    0  0.4712189E-002  0.4607122E+03  0.7546771E-02  0.1024575E+00
         21   -1    0    0  502  501  0.00000000000E+00  0.00000000000E+00  0.95239564526E+03  0.95239564526E+03  0.00000000000E+00 0.  1.
         21   -1    0    0  501  502 -0.00000000000E+00 -0.00000000000E+00 -0.55716272593E+02  0.55716272593E+02  0.00000000000E+00 0.  1.
      99926    2    1    2    0    0  0.00000000000E+00  0.00000000000E+00  0.89667937267E+03  0.10081119179E+04  0.46071221120E+03 0.  0.
      99925    2    3    3    0    0 -0.10580683835E+03 -0.52445128040E+02  0.58505555335E+03  0.65215898365E+03  0.26282267970E+03 0.  0.
         25    1    4    4    0    0 -0.89767629356E+02 -0.71545154782E+01  0.31398728672E+03  0.34977841370E+03  0.12509000000E+03 0.  0.
         25    1    4    4    0    0 -0.16039208993E+02 -0.45290612562E+02  0.27106826663E+03  0.30238056995E+03  0.12509000000E+03 0.  0.
         25    1    3    3    0    0  0.10580683835E+03  0.52445128040E+02  0.31162381932E+03  0.35595293420E+03  0.12509000000E+03 0.  0.
<mgrwt>
<rscale>  2 0.46071221E+03</rscale>
<asrwt>0</asrwt>
<pdfrwt beam="1">  1       21 0.14005817E+00 0.46071221E+03</pdfrwt>
<pdfrwt beam="2">  1       21 0.81935701E-02 0.46071221E+03</pdfrwt>
<totfact> 0.37166962E+04</totfact>
</mgrwt>
</event>
<event>
 7    0  0.4712189E-002  0.4580031E+03  0.7546771E-02  0.1025362E+00
         21   -1    0    0  502  501  0.00000000000E+00  0.00000000000E+00  0.55873570139E+03  0.55873570139E+03  0.00000000000E+00 0.  1.
         21   -1    0    0  501  502 -0.00000000000E+00 -0.00000000000E+00 -0.93857808933E+02  0.93857808933E+02  0.00000000000E+00 0.  1.
      99926    2    1    2    0    0  0.00000000000E+00 -0.71054273576E-14  0.46487789246E+03  0.65259351032E+03  0.45800309477E+03 0.  0.
      99925    2    3    3    0    0  0.33243960603E+02  0.42201712044E+02  0.14535535424E+03  0.30527765128E+03  0.26302113973E+03 0.  0.
         25    1    4    4    0    0  0.50253881489E+02  0.51195118756E+00  0.84168931858E+02  0.15892649838E+03  0.12509000000E+03 0.  0.
         25    1    3    3    0    0 -0.33243960603E+02 -0.42201712044E+02  0.31952253822E+03  0.34731585905E+03  0.12509000000E+03 0.  0.
         25    1    4    4    0    0 -0.17009920886E+02  0.41689760857E+02  0.61186422382E+02  0.14635115289E+03  0.12509000000E+03 0.  0.
<mgrwt>
<rscale>  2 0.45800309E+03</rscale>
<asrwt>0</asrwt>
<pdfrwt beam="1">  1       21 0.82167013E-01 0.45800309E+03</pdfrwt>
<pdfrwt beam="2">  1       21 0.13802619E-01 0.45800309E+03</pdfrwt>
<totfact> 0.54255551E+04</totfact>
</mgrwt>
</event>
<event>
 6    0  0.4712189E-002  0.4550075E+03  0.7546771E-02  0.1026239E+00
         21   -1    0    0  502  501  0.00000000000E+00  0.00000000000E+00  0.53712065435E+02  0.53712065435E+02  0.00000000000E+00 0. -1.
         21   -1    0    0  501  502 -0.00000000000E+00 -0.00000000000E+00 -0.96361895012E+03  0.96361895012E+03  0.00000000000E+00 0. -1.
      99926    2    1    2    0    0  0.35527136788E-14  0.00000000000E+00 -0.90990688468E+03  0.10173310156E+04  0.45500753446E+03 0.  0.
         25    1    3    3    0    0  0.16229038377E+02  0.32685872000E+02 -0.99786519822E+02  0.16412375073E+03  0.12509000000E+03 0.  0.
         25    1    3    3    0    0 -0.15501093000E+02 -0.35930674792E+01 -0.26950510068E+03  0.29754613325E+03  0.12509000000E+03 0.  0.
         25    1    3    3    0    0 -0.72794537710E+00 -0.29092804521E+02 -0.54061526418E+03  0.55566113158E+03  0.12509000000E+03 0.  0.
<mgrwt>
<rscale>  2 0.45500753E+03</rscale>
<asrwt>0</asrwt>
<pdfrwt beam="1">  1       21 0.78988334E-02 0.45500753E+03</pdfrwt>
<pdfrwt beam="2">  1       21 0.14170866E+00 0.45500753E+03</pdfrwt>
<totfact> 0.38497111E+04</totfact>
</mgrwt>
</event>
<event>
 7    0  0.4712189E-002  0.4506033E+03  0.7546771E-02  0.1027542E+00
         21   -1    0    0  502  501  0.00000000000E+00  0.00000000000E+00  0.14451246693E+04  0.14451246693E+04  0.00000000000E+00 0.  1.
         21   -1    0    0  501  502 -0.00000000000E+00 -0.00000000000E+00 -0.35125573575E+02  0.35125573575E+02  0.00000000000E+00 0.  1.
      99926    2    1    2    0    0  0.35527136788E-14  0.00000000000E+00  0.14099990957E+04  0.14802502428E+04  0.45060329735E+03 0.  0.
      99925    2    3    3    0    0  0.31148248467E+02 -0.99307126232E+02  0.99666679190E+03  0.10360394594E+04  0.26306073172E+03 0.  0.
         25    1    4    4    0    0  0.20394928829E+02 -0.12267758096E+02  0.52632548336E+03  0.54150943994E+03  0.12509000000E+03 0.  0.
         25    1    4    4    0    0  0.10753319637E+02 -0.87039368136E+02  0.47034130855E+03  0.49453001943E+03  0.12509000000E+03 0.  0.
         25    1    3    3    0    0 -0.31148248467E+02  0.99307126232E+02  0.41333230378E+03  0.44421078347E+03  0.12509000000E+03 0.  0.
<mgrwt>
<rscale>  2 0.45060330E+03</rscale>
<asrwt>0</asrwt>
<pdfrwt beam="1">  1       21 0.21251829E+00 0.45060330E+03</pdfrwt>
<pdfrwt beam="2">  1       21 0.51655265E-02 0.45060330E+03</pdfrwt>
<totfact> 0.25114181E+04</totfact>
</mgrwt>
</event>
<event>
 7    0  0.4712189E-002  0.4588443E+03  0.7546771E-02  0.1025117E+00
         21   -1    0    0  502  501  0.00000000000E+00  0.00000000000E+00  0.46176106866E+03  0.46176106866E+03  0.00000000000E+00 0. -1.
         21   -1    0    0  501  502 -0.00000000000E+00 -0.00000000000E+00 -0.11398649239E+03  0.11398649239E+03  0.00000000000E+00 0. -1.
      99926    2    1    2    0    0  0.00000000000E+00  0.00000000000E+00  0.34777457627E+03  0.57574756105E+03  0.45884430709E+03 0.  0.
      99925    2    3    3    0    0  0.86196541899E+02 -0.31181646013E+02  0.30909431595E+03  0.41591699601E+03  0.26276512807E+03 0.  0.
         25    1    4    4    0    0  0.15183293045E+02 -0.32325592106E+02  0.18364764321E+03  0.22505430733E+03  0.12509000000E+03 0.  0.
         25    1    3    3    0    0 -0.86196541899E+02  0.31181646013E+02  0.38680260318E+02  0.15983056504E+03  0.12509000000E+03 0.  0.
         25    1    4    4    0    0  0.71013248855E+02  0.11439460927E+01  0.12544667274E+03  0.19086268867E+03  0.12509000000E+03 0.  0.
<mgrwt>
<rscale>  2 0.45884431E+03</rscale>
<asrwt>0</asrwt>
<pdfrwt beam="1">  1       21 0.67906039E-01 0.45884431E+03</pdfrwt>
<pdfrwt beam="2">  1       21 0.16762720E-01 0.45884431E+03</pdfrwt>
<totfact> 0.58400974E+04</totfact>
</mgrwt>
</event>
<event>
 7    0  0.4712189E-002  0.4498860E+03  0.7546771E-02  0.1027756E+00
         21   -1    0    0  502  501  0.00000000000E+00  0.00000000000E+00  0.25543770102E+03  0.25543770102E+03  0.00000000000E+00 0.  1.
         21   -1    0    0  501  502 -0.00000000000E+00 -0.00000000000E+00 -0.19808882328E+03  0.19808882328E+03  0.00000000000E+00 0.  1.
      99926    2    1    2    0    0  0.88817841970E-15  0.00000000000E+00  0.57348877741E+02  0.45352652430E+03  0.44988600163E+03 0.  0.
      99925    2    3    3    0    0  0.71699268259E+01  0.48305907562E+02 -0.61240784375E+02  0.27437328091E+03  0.26295511984E+03 0.  0.
         25    1    4    4    0    0 -0.12063119446E+02  0.28114186230E+02  0.73991665033E+01  0.12898907738E+03  0.12509000000E+03 0.  0.
         25    1    4    4    0    0  0.19233046272E+02  0.20191721332E+02 -0.68639950878E+02  0.14538420353E+03  0.12509000000E+03 0.  0.
         25    1    3    3    0    0 -0.71699268259E+01 -0.48305907562E+02  0.11858966212E+03  0.17915324339E+03  0.12509000000E+03 0.  0.
<mgrwt>
<rscale>  2 0.44988600E+03</rscale>
<asrwt>0</asrwt>
<pdfrwt beam="1">  1       21 0.37564368E-01 0.44988600E+03</pdfrwt>
<pdfrwt beam="2">  1       21 0.29130709E-01 0.44988600E+03</pdfrwt>
<totfact> 0.71527853E+04</totfact>
</mgrwt>
</event>
<event>
 7    0  0.4712189E-002  0.4530160E+03  0.7546771E-02  0.1026826E+00
         21   -1    0    0  502  501  0.00000000000E+00  0.00000000000E+00  0.45052568706E+03  0.45052568706E+03  0.00000000000E+00 0.  1.
         21   -1    0    0  501  502 -0.00000000000E+00 -0.00000000000E+00 -0.11388001635E+03  0.11388001635E+03  0.00000000000E+00 0.  1.
      99926    2    1    2    0    0  0.00000000000E+00 -0.11102230246E-14  0.33664567071E+03  0.56440570341E+03  0.45301599358E+03 0.  0.
      99925    2    3    3    0    0 -0.11069159431E+03  0.15846057054E+01  0.22575966328E+03  0.36391042972E+03  0.26307458120E+03 0.  0.
         25    1    4    4    0    0 -0.45003983386E+02 -0.20701218816E+02  0.15195182012E+03  0.20295507562E+03  0.12509000000E+03 0.  0.
         25    1    3    3    0    0  0.11069159431E+03 -0.15846057054E+01  0.11088600743E+03  0.20049527369E+03  0.12509000000E+03 0.  0.
         25    1    4    4    0    0 -0.65687610927E+02  0.22285824521E+02  0.73807843155E+02  0.16095535410E+03  0.12509000000E+03 0.  0.
<mgrwt>
<rscale>  2 0.45301599E+03</rscale>
<asrwt>0</asrwt>
<pdfrwt beam="1">  1       21 0.66253777E-01 0.45301599E+03</pdfrwt>
<pdfrwt beam="2">  1       21 0.16747061E-01 0.45301599E+03</pdfrwt>
<totfact> 0.61889927E+04</totfact>
</mgrwt>
</event>
<event>
 7    0  0.4712189E-002  0.4534048E+03  0.7546771E-02  0.1026712E+00
         21   -1    0    0  502  501  0.00000000000E+00  0.00000000000E+00  0.24903138556E+03  0.24903138556E+03  0.00000000000E+00 0. -1.
         21   -1    0    0  501  502 -0.00000000000E+00 -0.00000000000E+00 -0.20637549526E+03  0.20637549526E+03  0.00000000000E+00 0. -1.
      99926    2    1    2    0    0  0.00000000000E+00 -0.14210854715E-13  0.42655890298E+02  0.45540688083E+03  0.45340478838E+03 0.  0.
      99925    2    3    3    0    0 -0.55032384004E+02  0.83639728454E+02 -0.22703869630E+02  0.28236476519E+03  0.26304035330E+03 0.  0.
         25    1    4    4    0    0 -0.37681465286E+02  0.16646861752E+01 -0.16329401920E+02  0.13166936422E+03  0.12509000000E+03 0.  0.
         25    1    3    3    0    0  0.55032384004E+02 -0.83639728454E+02  0.65359759929E+02  0.17304211563E+03  0.12509000000E+03 0.  0.
         25    1    4    4    0    0 -0.17350918718E+02  0.81975042279E+02 -0.63744677104E+01  0.15069540098E+03  0.12509000000E+03 0.  0.
<mgrwt>
<rscale>  2 0.45340479E+03</rscale>
<asrwt>0</asrwt>
<pdfrwt beam="1">  1       21 0.36622263E-01 0.45340479E+03</pdfrwt>
<pdfrwt beam="2">  1       21 0.30349338E-01 0.45340479E+03</pdfrwt>
<totfact> 0.69395037E+04</totfact>
</mgrwt>
</event>
<event>
 7    0  0.4712189E-002  0.4568895E+03  0.7546771E-02  0.1025687E+00
         21   -1    0    0  502  501  0.00000000000E+00  0.00000000000E+00  0.64751762080E+03  0.64751762080E+03  0.00000000000E+00 0. -1.
         21   -1    0    0  501  502 -0.00000000000E+00 -0.00000000000E+00 -0.80595496157E+02  0.80595496157E+02  0.00000000000E+00 0. -1.
      99926    2    1    2    0    0  0.00000000000E+00  0.00000000000E+00  0.56692212464E+03  0.72811311695E+03  0.45688950051E+03 0.  0.
      99925    2    3    3    0    0 -0.27503681301E+02 -0.10457334550E+03  0.41834799333E+03  0.50582092710E+03  0.26295955905E+03 0.  0.
         25    1    4    4    0    0  0.22987355662E+02 -0.50338109190E+02  0.23391378030E+03  0.27097141634E+03  0.12509000000E+03 0.  0.
         25    1    3    3    0    0  0.27503681301E+02  0.10457334550E+03  0.14857413131E+03  0.22229218985E+03  0.12509000000E+03 0.  0.
         25    1    4    4    0    0 -0.50491036963E+02 -0.54235236311E+02  0.18443421303E+03  0.23484951077E+03  0.12509000000E+03 0.  0.
<mgrwt>
<rscale>  2 0.45688950E+03</rscale>
<asrwt>0</asrwt>
<pdfrwt beam="1">  1       21 0.95223177E-01 0.45688950E+03</pdfrwt>
<pdfrwt beam="2">  1       21 0.11852279E-01 0.45688950E+03</pdfrwt>
<totfact> 0.50646320E+04</totfact>
</mgrwt>
</event>
<event>
 7    0  0.4712189E-002  0.4414622E+03  0.7546771E-02  0.1030299E+00
         21   -1    0    0  502  501  0.00000000000E+00  0.00000000000E+00  0.77180277422E+03  0.77180277422E+03  0.00000000000E+00 0. -1.
         21   -1    0    0  501  502 -0.00000000000E+00 -0.00000000000E+00 -0.63127809112E+02  0.63127809112E+02  0.00000000000E+00 0. -1.
      99926    2    1    2    0    0  0.14210854715E-13  0.14210854715E-13  0.70867496511E+03  0.83493058333E+03  0.44146219862E+03 0.  0.
      99925    2    3    3    0    0  0.64368337352E+02  0.64788329646E+02  0.52810661574E+03  0.59703723032E+03  0.26308942642E+03 0.  0.
         25    1    4    4    0    0  0.37130968327E+01  0.12574922868E+02  0.19127415788E+03  0.22892188044E+03  0.12509000000E+03 0.  0.
         25    1    3    3    0    0 -0.64368337352E+02 -0.64788329646E+02  0.18056834938E+03  0.23789335301E+03  0.12509000000E+03 0.  0.
         25    1    4    4    0    0  0.60655240519E+02  0.52213406778E+02  0.33683245786E+03  0.36811534988E+03  0.12509000000E+03 0.  0.
<mgrwt>
<rscale>  2 0.44146220E+03</rscale>
<asrwt>0</asrwt>
<pdfrwt beam="1">  1       21 0.11350040E+00 0.44146220E+03</pdfrwt>
<pdfrwt beam="2">  1       21 0.92835018E-02 0.44146220E+03</pdfrwt>
<totfact> 0.51363115E+04</totfact>
</mgrwt>
</event>
<event>
 7    0  0.4712189E-002  0.4499859E+03  0.7546771E-02  0.1027726E+00
         21   -1    0    0  502  501  0.00000000000E+00  0.00000000000E+00  0.31998161712E+03  0.31998161712E+03  0.00000000000E+00 0.  1.
         21   -1    0    0  501  502 -0.00000000000E+00 -0.00000000000E+00 -0.15820226819E+03  0.15820226819E+03  0.00000000000E+00 0.  1.
      99926    2    1    2    0    0  0.00000000000E+00  0.14210854715E-13  0.16177934893E+03  0.47818388531E+03  0.44998585582E+03 0.  0.
      99925    2    3    3    0    0 -0.74028937517E+02  0.79423411278E+02  0.99122548040E+02  0.30109141047E+03  0.26275919790E+03 0.  0.
         25    1    4    4    0    0 -0.37347971449E+02  0.13074344544E+02  0.79767716665E+02  0.15354545314E+03  0.12509000000E+03 0.  0.
         25    1    3    3    0    0  0.74028937517E+02 -0.79423411278E+02  0.62656800888E+02  0.17709247484E+03  0.12509000000E+03 0.  0.
         25    1    4    4    0    0 -0.36680966068E+02  0.66349066735E+02  0.19354831375E+02  0.14754595733E+03  0.12509000000E+03 0.  0.
<mgrwt>
<rscale>  2 0.44998586E+03</rscale>
<asrwt>0</asrwt>
<pdfrwt beam="1">  1       21 0.47056120E-01 0.44998586E+03</pdfrwt>
<pdfrwt beam="2">  1       21 0.23265039E-01 0.44998586E+03</pdfrwt>
<totfact> 0.69560122E+04</totfact>
</mgrwt>
</event>
<event>
 7    0  0.4712189E-002  0.4443366E+03  0.7546771E-02  0.1029424E+00
         21   -1    0    0  502  501  0.00000000000E+00  0.00000000000E+00  0.14219052436E+04  0.14219052436E+04  0.00000000000E+00 0. -1.
         21   -1    0    0  501  502 -0.00000000000E+00 -0.00000000000E+00 -0.34713112935E+02  0.34713112935E+02  0.00000000000E+00 0. -1.
      99926    2    1    2    0    0  0.00000000000E+00  0.00000000000E+00  0.13871921307E+04  0.14566183566E+04  0.44433661701E+03 0.  0.
      99925    2    3    3    0    0  0.44682932426E+01  0.99160127123E+02  0.79361341099E+03  0.84193477858E+03  0.26301944572E+03 0.  0.
         25    1    3    3    0    0 -0.44682932426E+01 -0.99160127123E+02  0.59357871971E+03  0.61468357799E+03  0.12509000000E+03 0.  0.
         25    1    4    4    0    0 -0.11035951269E+02  0.34469071213E+02  0.48804254402E+03  0.50511676072E+03  0.12509000000E+03 0.  0.
         25    1    4    4    0    0  0.15504244512E+02  0.64691055910E+02  0.30557086697E+03  0.33681801785E+03  0.12509000000E+03 0.  0.
<mgrwt>
<rscale>  2 0.44433662E+03</rscale>
<asrwt>0</asrwt>
<pdfrwt beam="1">  1       21 0.20910367E+00 0.44433662E+03</pdfrwt>
<pdfrwt beam="2">  1       21 0.51048705E-02 0.44433662E+03</pdfrwt>
<totfact> 0.27032667E+04</totfact>
</mgrwt>
</event>
<event>
 7    0  0.4712189E-002  0.4635235E+03  0.7546771E-02  0.1023764E+00
         21   -1    0    0  502  501  0.00000000000E+00  0.00000000000E+00  0.12256234749E+03  0.12256234749E+03  0.00000000000E+00 0. -1.
         21   -1    0    0  501  502 -0.00000000000E+00 -0.00000000000E+00 -0.43825464964E+03  0.43825464964E+03  0.00000000000E+00 0. -1.
      99926    2    1    2    0    0  0.00000000000E+00  0.00000000000E+00 -0.31569230215E+03  0.56081699713E+03  0.46352354270E+03 0.  0.
      99925    2    3    3    0    0  0.86744581527E+02 -0.83540511843E+02 -0.20549860619E+03  0.35516243659E+03  0.26345215822E+03 0.  0.
         25    1    4    4    0    0  0.27128740202E+02 -0.32167720218E+02 -0.51352523658E+02  0.14161680887E+03  0.12509000000E+03 0.  0.
         25    1    4    4    0    0  0.59615841325E+02 -0.51372791625E+02 -0.15414608253E+03  0.21354562771E+03  0.12509000000E+03 0.  0.
         25    1    3    3    0    0 -0.86744581527E+02  0.83540511843E+02 -0.11019369597E+03  0.20565456055E+03  0.12509000000E+03 0.  0.
<mgrwt>
<rscale>  2 0.46352354E+03</rscale>
<asrwt>0</asrwt>
<pdfrwt beam="1">  1       21 0.18023875E-01 0.46352354E+03</pdfrwt>
<pdfrwt beam="2">  1       21 0.64449213E-01 0.46352354E+03</pdfrwt>
<totfact> 0.57202080E+04</totfact>
</mgrwt>
</event>
<event>
 7    0  0.4712189E-002  0.4588919E+03  0.7546771E-02  0.1025103E+00
         21   -1    0    0  502  501  0.00000000000E+00  0.00000000000E+00  0.12734844915E+04  0.12734844915E+04  0.00000000000E+00 0. -1.
         21   -1    0    0  501  502 -0.00000000000E+00 -0.00000000000E+00 -0.41339677905E+02  0.41339677905E+02  0.00000000000E+00 0. -1.
      99926    2    1    2    0    0  0.00000000000E+00  0.00000000000E+00  0.12321448136E+04  0.13148241694E+04  0.45889187700E+03 0.  0.
      99925    2    3    3    0    0  0.95709485662E+02  0.12510492865E+02  0.58446085651E+03  0.64814671032E+03  0.26302632423E+03 0.  0.
         25    1    3    3    0    0 -0.95709485662E+02 -0.12510492865E+02  0.64768395706E+03  0.66667745905E+03  0.12509000000E+03 0.  0.
         25    1    4    4    0    0  0.90113133277E+02  0.15226082151E+02  0.31985301621E+03  0.35539509064E+03  0.12509000000E+03 0.  0.
         25    1    4    4    0    0  0.55963523848E+01 -0.27155892863E+01  0.26460784029E+03  0.29275161969E+03  0.12509000000E+03 0.  0.
<mgrwt>
<rscale>  2 0.45889188E+03</rscale>
<asrwt>0</asrwt>
<pdfrwt beam="1">  1       21 0.18727710E+00 0.45889188E+03</pdfrwt>
<pdfrwt beam="2">  1       21 0.60793652E-02 0.45889188E+03</pdfrwt>
<totfact> 0.27835198E+04</totfact>
</mgrwt>
</event>
<event>
 7    0  0.4712189E-002  0.4447445E+03  0.7546771E-02  0.1029301E+00
         21   -1    0    0  502  501  0.00000000000E+00  0.00000000000E+00  0.56857363388E+02  0.56857363388E+02  0.00000000000E+00 0. -1.
         21   -1    0    0  501  502 -0.00000000000E+00 -0.00000000000E+00 -0.86971000008E+03  0.86971000008E+03  0.00000000000E+00 0. -1.
      99926    2    1    2    0    0  0.14210854715E-13  0.00000000000E+00 -0.81285263669E+03  0.92656736347E+03  0.44474449976E+03 0.  0.
      99925    2    3    3    0    0 -0.84431796900E+02 -0.17280373645E+02 -0.39775426595E+03  0.48454756173E+03  0.26296490992E+03 0.  0.
         25    1    4    4    0    0 -0.74866707916E+02  0.13705789341E+02 -0.18988165260E+03  0.23978203167E+03  0.12509000000E+03 0.  0.
         25    1    4    4    0    0 -0.95650889838E+01 -0.30986162987E+02 -0.20787261335E+03  0.24476553006E+03  0.12509000000E+03 0.  0.
         25    1    3    3    0    0  0.84431796900E+02  0.17280373645E+02 -0.41509837074E+03  0.44201980174E+03  0.12509000000E+03 0.  0.
<mgrwt>
<rscale>  2 0.44474450E+03</rscale>
<asrwt>0</asrwt>
<pdfrwt beam="1">  1       21 0.83613771E-02 0.44474450E+03</pdfrwt>
<pdfrwt beam="2">  1       21 0.12789853E+00 0.44474450E+03</pdfrwt>
<totfact> 0.45658510E+04</totfact>
</mgrwt>
</event>
<event>
 7    0  0.4712189E-002  0.4572933E+03  0.7546771E-02  0.1025569E+00
         21   -1    0    0  502  501  0.00000000000E+00  0.00000000000E+00  0.29232519048E+02  0.29232519048E+02  0.00000000000E+00 0. -1.
         21   -1    0    0  501  502 -0.00000000000E+00 -0.00000000000E+00 -0.17883953753E+04  0.17883953753E+04  0.00000000000E+00 0. -1.
      99926    2    1    2    0    0  0.00000000000E+00  0.00000000000E+00 -0.17591628563E+04  0.18176278944E+04  0.45729334951E+03 0.  0.
      99925    2    3    3    0    0 -0.39468645621E+02  0.89597441134E+02 -0.13471146637E+04  0.13760209464E+04  0.26292632460E+03 0.  0.
         25    1    3    3    0    0  0.39468645621E+02 -0.89597441134E+02 -0.41204819258E+03  0.44160694804E+03  0.12509000000E+03 0.  0.
         25    1    4    4    0    0 -0.10950782332E+01  0.11523266798E+02 -0.70246990721E+03  0.71361436610E+03  0.12509000000E+03 0.  0.
         25    1    4    4    0    0 -0.38373567388E+02  0.78074174336E+02 -0.64464475650E+03  0.66240658025E+03  0.12509000000E+03 0.  0.
<mgrwt>
<rscale>  2 0.45729335E+03</rscale>
<asrwt>0</asrwt>
<pdfrwt beam="1">  1       21 0.42989001E-02 0.45729335E+03</pdfrwt>
<pdfrwt beam="2">  1       21 0.26299930E+00 0.45729335E+03</pdfrwt>
<totfact> 0.16625232E+04</totfact>
</mgrwt>
</event>
<event>
 7    0  0.4712189E-002  0.4515518E+03  0.7546771E-02  0.1027260E+00
         21   -1    0    0  502  501  0.00000000000E+00  0.00000000000E+00  0.55242164757E+02  0.55242164757E+02  0.00000000000E+00 0.  1.
         21   -1    0    0  501  502 -0.00000000000E+00 -0.00000000000E+00 -0.92275075060E+03  0.92275075060E+03  0.00000000000E+00 0.  1.
      99926    2    1    2    0    0 -0.26645352591E-14  0.00000000000E+00 -0.86750858585E+03  0.97799291536E+03  0.45155176445E+03 0.  0.
      99925    2    3    3    0    0  0.44880474015E+01  0.10293873500E+03 -0.63057597766E+03  0.69093700677E+03  0.26296645792E+03 0.  0.
         25    1    3    3    0    0 -0.44880474015E+01 -0.10293873500E+03 -0.23693260819E+03  0.28705590859E+03  0.12509000000E+03 0.  0.
         25    1    4    4    0    0  0.38592923929E+02  0.35833495874E+02 -0.32841979386E+03  0.35535970833E+03  0.12509000000E+03 0.  0.
         25    1    4    4    0    0 -0.34104876528E+02  0.67105239131E+02 -0.30215618380E+03  0.33557729844E+03  0.12509000000E+03 0.  0.
<mgrwt>
<rscale>  2 0.45155176E+03</rscale>
<asrwt>0</asrwt>
<pdfrwt beam="1">  1       21 0.81238480E-02 0.45155176E+03</pdfrwt>
<pdfrwt beam="2">  1       21 0.13569864E+00 0.45155176E+03</pdfrwt>
<totfact> 0.41124901E+04</totfact>
</mgrwt>
</event>
<event>
 7    0  0.4712189E-002  0.4551190E+03  0.7546771E-02  0.1026206E+00
         21   -1    0    0  502  501  0.00000000000E+00  0.00000000000E+00  0.60507653819E+03  0.60507653819E+03  0.00000000000E+00 0. -1.
         21   -1    0    0  501  502 -0.00000000000E+00 -0.00000000000E+00 -0.85581454592E+02  0.85581454592E+02  0.00000000000E+00 0. -1.
      99926    2    1    2    0    0 -0.71054273576E-14  0.00000000000E+00  0.51949508359E+03  0.69065799278E+03  0.45511901862E+03 0.  0.
      99925    2    3    3    0    0  0.61272441731E+02  0.94556818869E+02  0.30835526750E+03  0.42061571062E+03  0.26294353181E+03 0.  0.
         25    1    3    3    0    0 -0.61272441731E+02 -0.94556818869E+02  0.21113981610E+03  0.27004228215E+03  0.12509000000E+03 0.  0.
         25    1    4    4    0    0  0.35912817027E+02  0.22201434623E+02  0.99229919380E+02  0.16515665026E+03  0.12509000000E+03 0.  0.
         25    1    4    4    0    0  0.25359624704E+02  0.72355384245E+02  0.20912534812E+03  0.25545906036E+03  0.12509000000E+03 0.  0.
<mgrwt>
<rscale>  2 0.45511902E+03</rscale>
<asrwt>0</asrwt>
<pdfrwt beam="1">  1       21 0.88981842E-01 0.45511902E+03</pdfrwt>
<pdfrwt beam="2">  1       21 0.12585508E-01 0.45511902E+03</pdfrwt>
<totfact> 0.53363188E+04</totfact>
</mgrwt>
</event>
<event>
 7    0  0.4712189E-002  0.4504234E+03  0.7546771E-02  0.1027596E+00
         21   -1    0    0  502  501  0.00000000000E+00  0.00000000000E+00  0.62916176382E+02  0.62916176382E+02  0.00000000000E+00 0.  1.
         21   -1    0    0  501  502 -0.00000000000E+00 -0.00000000000E+00 -0.80615686037E+03  0.80615686037E+03  0.00000000000E+00 0.  1.
      99926    2    1    2    0    0  0.00000000000E+00  0.00000000000E+00 -0.74324068399E+03  0.86907303675E+03  0.45042338846E+03 0.  0.
      99925    2    3    3    0    0 -0.95734789629E+02 -0.33622425848E+02 -0.54550190383E+03  0.61403627324E+03  0.26300684460E+03 0.  0.
         25    1    4    4    0    0 -0.25896968946E+02 -0.42630817074E+02 -0.31372661151E+03  0.34140874979E+03  0.12509000000E+03 0.  0.
         25    1    4    4    0    0 -0.69837820683E+02  0.90083912253E+01 -0.23177529231E+03  0.27262752344E+03  0.12509000000E+03 0.  0.
         25    1    3    3    0    0  0.95734789629E+02  0.33622425848E+02 -0.19773878016E+03  0.25503676352E+03  0.12509000000E+03 0.  0.
<mgrwt>
<rscale>  2 0.45042339E+03</rscale>
<asrwt>0</asrwt>
<pdfrwt beam="1">  1       21 0.92523789E-02 0.45042339E+03</pdfrwt>
<pdfrwt beam="2">  1       21 0.11855248E+00 0.45042339E+03</pdfrwt>
<totfact> 0.46233204E+04</totfact>
</mgrwt>
</event>
<event>
 7    0  0.4712189E-002  0.4573877E+03  0.7546771E-02  0.1025542E+00
         21   -1    0    0  502  501  0.00000000000E+00  0.00000000000E+00  0.11753403983E+03  0.11753403983E+03  0.00000000000E+00 0. -1.
         21   -1    0    0  501  502 -0.00000000000E+00 -0.00000000000E+00 -0.44498500962E+03  0.44498500962E+03  0.00000000000E+00 0. -1.
      99926    2    1    2    0    0  0.00000000000E+00  0.00000000000E+00 -0.32745096979E+03  0.56251904945E+03  0.45738773855E+03 0.  0.
      99925    2    3    3    0    0 -0.40537168706E+02 -0.98534785462E+02 -0.15115584313E+03  0.32152144412E+03  0.26301251704E+03 0.  0.
         25    1    4    4    0    0  0.91897438123E+00 -0.85001594675E+02 -0.77261771219E+02  0.16983228493E+03  0.12509000000E+03 0.  0.
         25    1    4    4    0    0 -0.41456143087E+02 -0.13533190787E+02 -0.73894071907E+02  0.15168915919E+03  0.12509000000E+03 0.  0.
         25    1    3    3    0    0  0.40537168706E+02  0.98534785462E+02 -0.17629512666E+03  0.24099760533E+03  0.12509000000E+03 0.  0.
<mgrwt>
<rscale>  2 0.45738774E+03</rscale>
<asrwt>0</asrwt>
<pdfrwt beam="1">  1       21 0.17284418E-01 0.45738774E+03</pdfrwt>
<pdfrwt beam="2">  1       21 0.65438970E-01 0.45738774E+03</pdfrwt>
<totfact> 0.59907318E+04</totfact>
</mgrwt>
</event>
<event>
 7    0  0.4712189E-002  0.4542827E+03  0.7546771E-02  0.1026453E+00
         21   -1    0    0  502  501  0.00000000000E+00  0.00000000000E+00  0.13970553148E+03  0.13970553148E+03  0.00000000000E+00 0. -1.
         21   -1    0    0  501  502 -0.00000000000E+00 -0.00000000000E+00 -0.36929955457E+03  0.36929955457E+03  0.00000000000E+00 0. -1.
      99926    2    1    2    0    0  0.00000000000E+00  0.00000000000E+00 -0.22959402308E+03  0.50900508605E+03  0.45428268973E+03 0.  0.
      99925    2    3    3    0    0 -0.56830364767E+02 -0.84817921845E+02 -0.91841601442E+02  0.29676228171E+03  0.26307641830E+03 0.  0.
         25    1    4    4    0    0 -0.36636182275E+02 -0.30392581370E+02 -0.85282564656E+02  0.15870268677E+03  0.12509000000E+03 0.  0.
         25    1    3    3    0    0  0.56830364767E+02  0.84817921845E+02 -0.13775242164E+03  0.21224280434E+03  0.12509000000E+03 0.  0.
         25    1    4    4    0    0 -0.20194182491E+02 -0.54425340475E+02 -0.65590367864E+01  0.13805959494E+03  0.12509000000E+03 0.  0.
<mgrwt>
<rscale>  2 0.45428269E+03</rscale>
<asrwt>0</asrwt>
<pdfrwt beam="1">  1       21 0.20544931E-01 0.45428269E+03</pdfrwt>
<pdfrwt beam="2">  1       21 0.54308757E-01 0.45428269E+03</pdfrwt>
<totfact> 0.65011861E+04</totfact>
</mgrwt>
</event>
<event>
 7    0  0.4712189E-002  0.4555081E+03  0.7546771E-02  0.1026092E+00
         21   -1    0    0  502  501  0.00000000000E+00  0.00000000000E+00  0.76179117840E+03  0.76179117840E+03  0.00000000000E+00 0. -1.
         21   -1    0    0  501  502 -0.00000000000E+00 -0.00000000000E+00 -0.68092015388E+02  0.68092015388E+02  0.00000000000E+00 0. -1.
      99926    2    1    2    0    0 -0.35527136788E-14  0.00000000000E+00  0.69369916302E+03  0.82988319379E+03  0.45550805324E+03 0.  0.
      99925    2    3    3    0    0 -0.31515868203E+02 -0.96876192432E+02  0.34473873864E+03  0.44543666631E+03  0.26304140201E+03 0.  0.
         25    1    3    3    0    0  0.31515868203E+02  0.96876192432E+02  0.34896042438E+03  0.38444652748E+03  0.12509000000E+03 0.  0.
         25    1    4    4    0    0 -0.49339436628E+02 -0.58840964142E+02  0.21547893846E+03  0.26072077034E+03  0.12509000000E+03 0.  0.
         25    1    4    4    0    0  0.17823568426E+02 -0.38035228289E+02  0.12925980018E+03  0.18471589597E+03  0.12509000000E+03 0.  0.
<mgrwt>
<rscale>  2 0.45550805E+03</rscale>
<asrwt>0</asrwt>
<pdfrwt beam="1">  1       21 0.11202811E+00 0.45550805E+03</pdfrwt>
<pdfrwt beam="2">  1       21 0.10013532E-01 0.45550805E+03</pdfrwt>
<totfact> 0.46168803E+04</totfact>
</mgrwt>
</event>
<event>
 7    0  0.4712189E-002  0.4510988E+03  0.7546771E-02  0.1027395E+00
         21   -1    0    0  502  501  0.00000000000E+00  0.00000000000E+00  0.26624385344E+03  0.26624385344E+03  0.00000000000E+00 0. -1.
         21   -1    0    0  501  502 -0.00000000000E+00 -0.00000000000E+00 -0.19107495090E+03  0.19107495090E+03  0.00000000000E+00 0. -1.
      99926    2    1    2    0    0  0.00000000000E+00  0.17763568394E-14  0.75168902541E+02  0.45731880434E+03  0.45109879726E+03 0.  0.
      99925    2    3    3    0    0 -0.98107479266E+02  0.14195781723E+02  0.36979656352E+00  0.28105476359E+03  0.26299248217E+03 0.  0.
         25    1    3    3    0    0  0.98107479266E+02 -0.14195781723E+02  0.74799105977E+02  0.17626404075E+03  0.12509000000E+03 0.  0.
         25    1    4    4    0    0 -0.91130688849E+02  0.77302467097E+00 -0.60992104569E+01  0.15488740583E+03  0.12509000000E+03 0.  0.
         25    1    4    4    0    0 -0.69767904164E+01  0.13422757052E+02  0.64690070204E+01  0.12616735776E+03  0.12509000000E+03 0.  0.
<mgrwt>
<rscale>  2 0.45109880E+03</rscale>
<asrwt>0</asrwt>
<pdfrwt beam="1">  1       21 0.39153508E-01 0.45109880E+03</pdfrwt>
<pdfrwt beam="2">  1       21 0.28099257E-01 0.45109880E+03</pdfrwt>
<totfact> 0.70545586E+04</totfact>
</mgrwt>
</event>
<event>
 7    0  0.4712189E-002  0.4642000E+03  0.7546771E-02  0.1023570E+00
         21   -1    0    0  502  501  0.00000000000E+00  0.00000000000E+00  0.24409197486E+03  0.24409197486E+03  0.00000000000E+00 0. -1.
         21   -1    0    0  501  502 -0.00000000000E+00 -0.00000000000E+00 -0.22069718076E+03  0.22069718076E+03  0.00000000000E+00 0. -1.
      99926    2    1    2    0    0  0.00000000000E+00  0.00000000000E+00  0.23394794095E+02  0.46478915562E+03  0.46420000300E+03 0.  0.
      99925    2    3    3    0    0 -0.45679079405E+02 -0.79585836644E+02 -0.65299301866E+02  0.28608651309E+03  0.26298481031E+03 0.  0.
         25    1    4    4    0    0  0.81061798719E+01 -0.63425442375E+02 -0.44727876811E+02  0.14743333394E+03  0.12509000000E+03 0.  0.
         25    1    3    3    0    0  0.45679079405E+02  0.79585836644E+02  0.88694095961E+02  0.17870264253E+03  0.12509000000E+03 0.  0.
         25    1    4    4    0    0 -0.53785259277E+02 -0.16160394269E+02 -0.20571425055E+02  0.13865317915E+03  0.12509000000E+03 0.  0.
<mgrwt>
<rscale>  2 0.46420000E+03</rscale>
<asrwt>0</asrwt>
<pdfrwt beam="1">  1       21 0.35895879E-01 0.46420000E+03</pdfrwt>
<pdfrwt beam="2">  1       21 0.32455468E-01 0.46420000E+03</pdfrwt>
<totfact> 0.63075715E+04</totfact>
</mgrwt>
</event>
<event>
 7    0  0.4712189E-002  0.4459955E+03  0.7546771E-02  0.1028923E+00
         21   -1    0    0  502  501  0.00000000000E+00  0.00000000000E+00  0.15656914688E+03  0.15656914688E+03  0.00000000000E+00 0. -1.
         21   -1    0    0  501  502 -0.00000000000E+00 -0.00000000000E+00 -0.31761044905E+03  0.31761044905E+03  0.00000000000E+00 0. -1.
      99926    2    1    2    0    0  0.00000000000E+00  0.00000000000E+00 -0.16104130217E+03  0.47417959594E+03  0.44599550244E+03 0.  0.
      99925    2    3    3    0    0 -0.93374968503E+02 -0.43054619478E+02 -0.12497202873E+03  0.30828479316E+03  0.26239077867E+03 0.  0.
         25    1    4    4    0    0 -0.68790307900E+02 -0.26807843354E+02 -0.10260902246E+03  0.17783949650E+03  0.12509000000E+03 0.  0.
         25    1    3    3    0    0  0.93374968503E+02  0.43054619478E+02 -0.36069273444E+02  0.16589480278E+03  0.12509000000E+03 0.  0.
         25    1    4    4    0    0 -0.24584660603E+02 -0.16246776123E+02 -0.22363006272E+02  0.13044529666E+03  0.12509000000E+03 0.  0.
<mgrwt>
<rscale>  2 0.44599550E+03</rscale>
<asrwt>0</asrwt>
<pdfrwt beam="1">  1       21 0.23024875E-01 0.44599550E+03</pdfrwt>
<pdfrwt beam="2">  1       21 0.46707418E-01 0.44599550E+03</pdfrwt>
<totfact> 0.72146389E+04</totfact>
</mgrwt>
</event>
<event>
 7    0  0.4712189E-002  0.4809933E+03  0.7546771E-02  0.1018863E+00
         21   -1    0    0  502  501  0.00000000000E+00  0.00000000000E+00  0.36694447043E+03  0.36694447043E+03  0.00000000000E+00 0.  1.
         21   -1    0    0  501  502 -0.00000000000E+00 -0.00000000000E+00 -0.15762233913E+03  0.15762233913E+03  0.00000000000E+00 0.  1.
      99926    2    1    2    0    0  0.00000000000E+00  0.00000000000E+00  0.20932213130E+03  0.52456680956E+03  0.48099332952E+03 0.  0.
      99925    2    3    3    0    0 -0.27852775090E+02 -0.34223234501E+02 -0.11634520550E+02  0.26685309833E+03  0.26292243564E+03 0.  0.
         25    1    3    3    0    0  0.27852775090E+02  0.34223234501E+02  0.22095665185E+03  0.25771371123E+03  0.12509000000E+03 0.  0.
         25    1    4    4    0    0 -0.21091964956E+02  0.20092959812E+02  0.90434119306E+01  0.12875515298E+03  0.12509000000E+03 0.  0.
         25    1    4    4    0    0 -0.67608101341E+01 -0.54316194313E+02 -0.20677932481E+02  0.13809794535E+03  0.12509000000E+03 0.  0.
<mgrwt>
<rscale>  2 0.48099333E+03</rscale>
<asrwt>0</asrwt>
<pdfrwt beam="1">  1       21 0.53962422E-01 0.48099333E+03</pdfrwt>
<pdfrwt beam="2">  1       21 0.23179756E-01 0.48099333E+03</pdfrwt>
<totfact> 0.51994572E+04</totfact>
</mgrwt>
</event>
<event>
 7    0  0.4712189E-002  0.4536995E+03  0.7546771E-02  0.1026625E+00
         21   -1    0    0  502  501  0.00000000000E+00  0.00000000000E+00  0.95352175237E+02  0.95352175237E+02  0.00000000000E+00 0. -1.
         21   -1    0    0  501  502 -0.00000000000E+00 -0.00000000000E+00 -0.53969205252E+03  0.53969205252E+03  0.00000000000E+00 0. -1.
      99926    2    1    2    0    0  0.00000000000E+00  0.00000000000E+00 -0.44433987729E+03  0.63504422776E+03  0.45369950922E+03 0.  0.
      99925    2    3    3    0    0  0.31852361153E+02 -0.96641188779E+02 -0.21320961879E+03  0.35322372323E+03  0.26259201212E+03 0.  0.
         25    1    3    3    0    0 -0.31852361153E+02  0.96641188779E+02 -0.23113025850E+03  0.28182050453E+03  0.12509000000E+03 0.  0.
         25    1    4    4    0    0  0.40121870184E+02 -0.74597569697E+02 -0.88796926023E+02  0.17523402650E+03  0.12509000000E+03 0.  0.
         25    1    4    4    0    0 -0.82695090311E+01 -0.22043619082E+02 -0.12441269276E+03  0.17798969673E+03  0.12509000000E+03 0.  0.
<mgrwt>
<rscale>  2 0.45369951E+03</rscale>
<asrwt>0</asrwt>
<pdfrwt beam="1">  1       21 0.14022379E-01 0.45369951E+03</pdfrwt>
<pdfrwt beam="2">  1       21 0.79366477E-01 0.45369951E+03</pdfrwt>
<totfact> 0.57155838E+04</totfact>
</mgrwt>
</event>
<event>
 7    0  0.4712189E-002  0.4324618E+03  0.7546771E-02  0.1033085E+00
         21   -1    0    0  502  501  0.00000000000E+00  0.00000000000E+00  0.56357704804E+03  0.56357704804E+03  0.00000000000E+00 0.  1.
         21   -1    0    0  501  502 -0.00000000000E+00 -0.00000000000E+00 -0.82962563444E+02  0.82962563444E+02  0.00000000000E+00 0.  1.
      99926    2    1    2    0    0  0.00000000000E+00  0.00000000000E+00  0.48061448460E+03  0.64653961148E+03  0.43246177451E+03 0.  0.
      99925    2    3    3    0    0 -0.44609004340E+02  0.76413658665E+02  0.33747967263E+03  0.43686344928E+03  0.26292229533E+03 0.  0.
         25    1    4    4    0    0 -0.60761523521E+02  0.53804816279E+02  0.18889757563E+03  0.24065893537E+03  0.12509000000E+03 0.  0.
         25    1    3    3    0    0  0.44609004340E+02 -0.76413658665E+02  0.14313481196E+03  0.20967616220E+03  0.12509000000E+03 0.  0.
         25    1    4    4    0    0  0.16152519181E+02  0.22608842386E+02  0.14858209700E+03  0.19620451391E+03  0.12509000000E+03 0.  0.
<mgrwt>
<rscale>  2 0.43246177E+03</rscale>
<asrwt>0</asrwt>
<pdfrwt beam="1">  1       21 0.82878976E-01 0.43246177E+03</pdfrwt>
<pdfrwt beam="2">  1       21 0.12200377E-01 0.43246177E+03</pdfrwt>
<totfact> 0.67046016E+04</totfact>
</mgrwt>
</event>
<event>
 7    0  0.4712189E-002  0.4650535E+03  0.7546771E-02  0.1023326E+00
         21   -1    0    0  502  501  0.00000000000E+00  0.00000000000E+00  0.19607466382E+04  0.19607466382E+04  0.00000000000E+00 0. -1.
         21   -1    0    0  501  502 -0.00000000000E+00 -0.00000000000E+00 -0.27575556497E+02  0.27575556497E+02  0.00000000000E+00 0. -1.
      99926    2    1    2    0    0 -0.88817841970E-15  0.00000000000E+00  0.19331710817E+04  0.19883221947E+04  0.46505345799E+03 0.  0.
      99925    2    3    3    0    0 -0.51275250427E+01  0.10159155297E+03  0.14951165475E+04  0.15215391421E+04  0.26336426336E+03 0.  0.
         25    1    4    4    0    0  0.25185353118E+02  0.48198315560E+02  0.90322619361E+03  0.91346726519E+03  0.12509000000E+03 0.  0.
         25    1    3    3    0    0  0.51275250427E+01 -0.10159155297E+03  0.43805453424E+03  0.46678305262E+03  0.12509000000E+03 0.  0.
         25    1    4    4    0    0 -0.30312878161E+02  0.53393237406E+02  0.59189035384E+03  0.60807187688E+03  0.12509000000E+03 0.  0.
<mgrwt>
<rscale>  2 0.46505346E+03</rscale>
<asrwt>0</asrwt>
<pdfrwt beam="1">  1       21 0.28834500E+00 0.46505346E+03</pdfrwt>
<pdfrwt beam="2">  1       21 0.40552302E-02 0.46505346E+03</pdfrwt>
<totfact> 0.12867608E+04</totfact>
</mgrwt>
</event>
<event>
 7    0  0.4712189E-002  0.4567668E+03  0.7546771E-02  0.1025723E+00
         21   -1    0    0  502  501  0.00000000000E+00  0.00000000000E+00  0.19772293858E+04  0.19772293858E+04  0.00000000000E+00 0. -1.
         21   -1    0    0  501  502 -0.00000000000E+00 -0.00000000000E+00 -0.26379830739E+02  0.26379830739E+02  0.00000000000E+00 0. -1.
      99926    2    1    2    0    0  0.00000000000E+00 -0.17763568394E-14  0.19508495551E+04  0.20036092166E+04  0.45676679621E+03 0.  0.
      99925    2    3    3    0    0  0.35841005923E+01 -0.12754486645E+02  0.72574162230E+03  0.77206040398E+03  0.26306052981E+03 0.  0.
         25    1    3    3    0    0 -0.35841005923E+01  0.12754486645E+02  0.12251079328E+04  0.12315488126E+04  0.12509000000E+03 0.  0.
         25    1    4    4    0    0  0.37838223016E+01  0.34100332690E+02  0.34656257443E+03  0.37004091138E+03  0.12509000000E+03 0.  0.
         25    1    4    4    0    0 -0.19972170936E+00 -0.46854819335E+02  0.37917904788E+03  0.40201949260E+03  0.12509000000E+03 0.  0.
<mgrwt>
<rscale>  2 0.45676680E+03</rscale>
<asrwt>0</asrwt>
<pdfrwt beam="1">  1       21 0.29076893E+00 0.45676680E+03</pdfrwt>
<pdfrwt beam="2">  1       21 0.38793882E-02 0.45676680E+03</pdfrwt>
<totfact> 0.13465214E+04</totfact>
</mgrwt>
</event>
<event>
 7    0  0.4712189E-002  0.4542843E+03  0.7546771E-02  0.1026452E+00
         21   -1    0    0  502  501  0.00000000000E+00  0.00000000000E+00  0.39589429452E+03  0.39589429452E+03  0.00000000000E+00 0.  1.
         21   -1    0    0  501  502 -0.00000000000E+00 -0.00000000000E+00 -0.13032155855E+03  0.13032155855E+03  0.00000000000E+00 0.  1.
      99926    2    1    2    0    0  0.00000000000E+00  0.00000000000E+00  0.26557273597E+03  0.52621585307E+03  0.45428432279E+03 0.  0.
      99925    2    3    3    0    0 -0.98460887679E+02  0.41117597534E+02  0.12609392807E+03  0.31060729762E+03  0.26304374429E+03 0.  0.
         25    1    4    4    0    0 -0.26458936039E+02  0.12586579248E+02  0.96138064007E+02  0.16046349343E+03  0.12509000000E+03 0.  0.
         25    1    4    4    0    0 -0.72001951640E+02  0.28531018286E+02  0.29955864059E+02  0.15014380419E+03  0.12509000000E+03 0.  0.
         25    1    3    3    0    0  0.98460887679E+02 -0.41117597534E+02  0.13947880791E+03  0.21560855545E+03  0.12509000000E+03 0.  0.
<mgrwt>
<rscale>  2 0.45428432E+03</rscale>
<asrwt>0</asrwt>
<pdfrwt beam="1">  1       21 0.58219749E-01 0.45428432E+03</pdfrwt>
<pdfrwt beam="2">  1       21 0.19164935E-01 0.45428432E+03</pdfrwt>
<totfact> 0.63824739E+04</totfact>
</mgrwt>
</event>
<event>
 7    0  0.4712189E-002  0.4562444E+03  0.7546771E-02  0.1025876E+00
         21   -1    0    0  502  501  0.00000000000E+00  0.00000000000E+00  0.15051004071E+04  0.15051004071E+04  0.00000000000E+00 0.  1.
         21   -1    0    0  501  502 -0.00000000000E+00 -0.00000000000E+00 -0.34575586394E+02  0.34575586394E+02  0.00000000000E+00 0.  1.
      99926    2    1    2    0    0  0.00000000000E+00  0.00000000000E+00  0.14705248207E+04  0.15396759935E+04  0.45624436066E+03 0.  0.
      99925    2    3    3    0    0 -0.30640680973E+02  0.10988546715E+03  0.90331860849E+03  0.94774351213E+03  0.26309615944E+03 0.  0.
         25    1    4    4    0    0 -0.31883232538E+02  0.15535482687E+02  0.40041355582E+03  0.42099455522E+03  0.12509000000E+03 0.  0.
         25    1    4    4    0    0  0.12425515651E+01  0.94349984466E+02  0.50290505267E+03  0.52674895691E+03  0.12509000000E+03 0.  0.
         25    1    3    3    0    0  0.30640680973E+02 -0.10988546715E+03  0.56720621224E+03  0.59193248139E+03  0.12509000000E+03 0.  0.
<mgrwt>
<rscale>  2 0.45624436E+03</rscale>
<asrwt>0</asrwt>
<pdfrwt beam="1">  1       21 0.22133825E+00 0.45624436E+03</pdfrwt>
<pdfrwt beam="2">  1       21 0.50846460E-02 0.45624436E+03</pdfrwt>
<totfact> 0.22604042E+04</totfact>
</mgrwt>
</event>
<event>
 7    0  0.4712189E-002  0.4559794E+03  0.7546771E-02  0.1025954E+00
         21   -1    0    0  502  501  0.00000000000E+00  0.00000000000E+00  0.34372716283E+02  0.34372716283E+02  0.00000000000E+00 0.  1.
         21   -1    0    0  501  502 -0.00000000000E+00 -0.00000000000E+00 -0.15122256668E+04  0.15122256668E+04  0.00000000000E+00 0.  1.
      99926    2    1    2    0    0 -0.14210854715E-13  0.35527136788E-14 -0.14778529505E+04  0.15465983831E+04  0.45597940217E+03 0.  0.
      99925    2    3    3    0    0 -0.67659669921E+02  0.26471371498E+02 -0.12297247043E+04  0.12593812194E+04  0.26180076959E+03 0.  0.
         25    1    4    4    0    0  0.17025084492E+01  0.14711966581E+02 -0.65554111754E+03  0.66753352379E+03  0.12509000000E+03 0.  0.
         25    1    4    4    0    0 -0.69362178370E+02  0.11759404917E+02 -0.57418358681E+03  0.59184769565E+03  0.12509000000E+03 0.  0.
         25    1    3    3    0    0  0.67659669921E+02 -0.26471371498E+02 -0.24812824617E+03  0.28721716364E+03  0.12509000000E+03 0.  0.
<mgrwt>
<rscale>  2 0.45597940E+03</rscale>
<asrwt>0</asrwt>
<pdfrwt beam="1">  1       21 0.50548125E-02 0.45597940E+03</pdfrwt>
<pdfrwt beam="2">  1       21 0.22238607E+00 0.45597940E+03</pdfrwt>
<totfact> 0.22488319E+04</totfact>
</mgrwt>
</event>
<event>
 7    0  0.4712189E-002  0.4488988E+03  0.7546771E-02  0.1028051E+00
         21   -1    0    0  502  501  0.00000000000E+00  0.00000000000E+00  0.60620970028E+02  0.60620970028E+02  0.00000000000E+00 0. -1.
         21   -1    0    0  501  502 -0.00000000000E+00 -0.00000000000E+00 -0.83102472239E+03  0.83102472239E+03  0.00000000000E+00 0. -1.
      99926    2    1    2    0    0  0.00000000000E+00  0.00000000000E+00 -0.77040375236E+03  0.89164569242E+03  0.44889876270E+03 0.  0.
      99925    2    3    3    0    0 -0.11948465256E+02  0.22763135209E+02 -0.28020247937E+03  0.38508303856E+03  0.26289654047E+03 0.  0.
         25    1    4    4    0    0 -0.11339310056E+02  0.33748424337E+02 -0.93903982634E+02  0.16041509328E+03  0.12509000000E+03 0.  0.
         25    1    3    3    0    0  0.11948465256E+02 -0.22763135209E+02 -0.49020127299E+03  0.50656265386E+03  0.12509000000E+03 0.  0.
         25    1    4    4    0    0 -0.60915519979E+00 -0.10985289128E+02 -0.18629849674E+03  0.22466794528E+03  0.12509000000E+03 0.  0.
<mgrwt>
<rscale>  2 0.44889876E+03</rscale>
<asrwt>0</asrwt>
<pdfrwt beam="1">  1       21 0.89148483E-02 0.44889876E+03</pdfrwt>
<pdfrwt beam="2">  1       21 0.12220952E+00 0.44889876E+03</pdfrwt>
<totfact> 0.45743418E+04</totfact>
</mgrwt>
</event>
<event>
 7    0  0.4712189E-002  0.4513810E+03  0.7546771E-02  0.1027311E+00
         21   -1    0    0  502  501  0.00000000000E+00  0.00000000000E+00  0.29163011242E+03  0.29163011242E+03  0.00000000000E+00 0.  1.
         21   -1    0    0  501  502 -0.00000000000E+00 -0.00000000000E+00 -0.17466033123E+03  0.17466033123E+03  0.00000000000E+00 0.  1.
      99926    2    1    2    0    0  0.00000000000E+00  0.00000000000E+00  0.11696978119E+03  0.46629044365E+03  0.45138104537E+03 0.  0.
      99925    2    3    3    0    0  0.84099358588E+02  0.12994216062E+02  0.14550726760E+03  0.31233120230E+03  0.26293889639E+03 0.  0.
         25    1    3    3    0    0 -0.84099358588E+02 -0.12994216062E+02 -0.28537486415E+02  0.15395924135E+03  0.12509000000E+03 0.  0.
         25    1    4    4    0    0  0.41867773264E+02  0.34557472296E+02  0.10638513027E+03  0.17295211295E+03  0.12509000000E+03 0.  0.
         25    1    4    4    0    0  0.42231585324E+02 -0.21563256234E+02  0.39122137331E+02  0.13937908935E+03  0.12509000000E+03 0.  0.
<mgrwt>
<rscale>  2 0.45138105E+03</rscale>
<asrwt>0</asrwt>
<pdfrwt beam="1">  1       21 0.42886781E-01 0.45138105E+03</pdfrwt>
<pdfrwt beam="2">  1       21 0.25685343E-01 0.45138105E+03</pdfrwt>
<totfact> 0.69691978E+04</totfact>
</mgrwt>
</event>
<event>
 7    0  0.4712189E-002  0.4611633E+03  0.7546771E-02  0.1024444E+00
         21   -1    0    0  502  501  0.00000000000E+00  0.00000000000E+00  0.84253996156E+02  0.84253996156E+02  0.00000000000E+00 0.  1.
         21   -1    0    0  501  502 -0.00000000000E+00 -0.00000000000E+00 -0.63104306062E+03  0.63104306062E+03  0.00000000000E+00 0.  1.
      99926    2    1    2    0    0  0.00000000000E+00  0.00000000000E+00 -0.54678906447E+03  0.71529705678E+03  0.46116330992E+03 0.  0.
      99925    2    3    3    0    0 -0.83827002645E+01  0.41167618122E+02 -0.51463072701E+03  0.57947839380E+03  0.26303114122E+03 0.  0.
         25    1    3    3    0    0  0.83827002645E+01 -0.41167618122E+02 -0.32158337457E+02  0.13581866298E+03  0.12509000000E+03 0.  0.
         25    1    4    4    0    0 -0.34778536862E+02  0.47680505926E+02 -0.27239506324E+03  0.30549886391E+03  0.12509000000E+03 0.  0.
         25    1    4    4    0    0  0.26395836597E+02 -0.65128878038E+01 -0.24223566377E+03  0.27397952989E+03  0.12509000000E+03 0.  0.
<mgrwt>
<rscale>  2 0.46116331E+03</rscale>
<asrwt>0</asrwt>
<pdfrwt beam="1">  1       21 0.12390294E-01 0.46116331E+03</pdfrwt>
<pdfrwt beam="2">  1       21 0.92800446E-01 0.46116331E+03</pdfrwt>
<totfact> 0.49629886E+04</totfact>
</mgrwt>
</event>
<event>
 7    0  0.4712189E-002  0.4559659E+03  0.7546771E-02  0.1025958E+00
         21   -1    0    0  502  501  0.00000000000E+00  0.00000000000E+00  0.18903317470E+03  0.18903317470E+03  0.00000000000E+00 0.  1.
         21   -1    0    0  501  502 -0.00000000000E+00 -0.00000000000E+00 -0.27495824466E+03  0.27495824466E+03  0.00000000000E+00 0.  1.
      99926    2    1    2    0    0 -0.35527136788E-14  0.00000000000E+00 -0.85925069965E+02  0.46399141936E+03  0.45596591933E+03 0.  0.
      99925    2    3    3    0    0 -0.25220829447E+02 -0.10962009594E+03 -0.74215313827E+02  0.29535784572E+03  0.26282254194E+03 0.  0.
         25    1    4    4    0    0 -0.52737319572E+01 -0.95261530510E+02 -0.28220671259E+02  0.15983268073E+03  0.12509000000E+03 0.  0.
         25    1    4    4    0    0 -0.19947097490E+02 -0.14358565426E+02 -0.45994642568E+02  0.13552516499E+03  0.12509000000E+03 0.  0.
         25    1    3    3    0    0  0.25220829447E+02  0.10962009594E+03 -0.11709756139E+02  0.16863357364E+03  0.12509000000E+03 0.  0.
<mgrwt>
<rscale>  2 0.45596592E+03</rscale>
<asrwt>0</asrwt>
<pdfrwt beam="1">  1       21 0.27798997E-01 0.45596592E+03</pdfrwt>
<pdfrwt beam="2">  1       21 0.40435035E-01 0.45596592E+03</pdfrwt>
<totfact> 0.67366348E+04</totfact>
</mgrwt>
</event>
<event>
 7    0  0.4712189E-002  0.4601433E+03  0.7546771E-02  0.1024740E+00
         21   -1    0    0  502  501  0.00000000000E+00  0.00000000000E+00  0.25944174423E+03  0.25944174423E+03  0.00000000000E+00 0. -1.
         21   -1    0    0  501  502 -0.00000000000E+00 -0.00000000000E+00 -0.20402638978E+03  0.20402638978E+03  0.00000000000E+00 0. -1.
      99926    2    1    2    0    0  0.00000000000E+00  0.24424906542E-14  0.55415354451E+02  0.46346813401E+03  0.46014329261E+03 0.  0.
      99925    2    3    3    0    0  0.92599422757E+02 -0.13311747554E+01 -0.38834216601E+02  0.28151507725E+03  0.26299470949E+03 0.  0.
         25    1    4    4    0    0  0.13555122796E+02 -0.26750636505E+02 -0.20586317562E+02  0.13027141850E+03  0.12509000000E+03 0.  0.
         25    1    4    4    0    0  0.79044299961E+02  0.25419461749E+02 -0.18247899039E+02  0.15124365875E+03  0.12509000000E+03 0.  0.
         25    1    3    3    0    0 -0.92599422757E+02  0.13311747554E+01  0.94249571052E+02  0.18195305676E+03  0.12509000000E+03 0.  0.
<mgrwt>
<rscale>  2 0.46014329E+03</rscale>
<asrwt>0</asrwt>
<pdfrwt beam="1">  1       21 0.38153198E-01 0.46014329E+03</pdfrwt>
<pdfrwt beam="2">  1       21 0.30003881E-01 0.46014329E+03</pdfrwt>
<totfact> 0.65212330E+04</totfact>
</mgrwt>
</event>
<event>
 7    0  0.4712189E-002  0.4406149E+03  0.7546771E-02  0.1030558E+00
         21   -1    0    0  502  501  0.00000000000E+00  0.00000000000E+00  0.45479098996E+02  0.45479098996E+02  0.00000000000E+00 0. -1.
         21   -1    0    0  501  502 -0.00000000000E+00 -0.00000000000E+00 -0.10672016839E+04  0.10672016839E+04  0.00000000000E+00 0. -1.
      99926    2    1    2    0    0 -0.14210854715E-13  0.00000000000E+00 -0.10217225849E+04  0.11126807829E+04  0.44061489320E+03 0.  0.
      99925    2    3    3    0    0  0.69484111975E+02  0.57520236558E+02 -0.75478326932E+03  0.80439402395E+03  0.26308808923E+03 0.  0.
         25    1    4    4    0    0 -0.48095498540E+01  0.29097905717E+02 -0.31109289532E+03  0.33659488633E+03  0.12509000000E+03 0.  0.
         25    1    4    4    0    0  0.74293661829E+02  0.28422330840E+02 -0.44369037400E+03  0.46779913762E+03  0.12509000000E+03 0.  0.
         25    1    3    3    0    0 -0.69484111975E+02 -0.57520236558E+02 -0.26693931554E+03  0.30828675890E+03  0.12509000000E+03 0.  0.
<mgrwt>
<rscale>  2 0.44061489E+03</rscale>
<asrwt>0</asrwt>
<pdfrwt beam="1">  1       21 0.66881021E-02 0.44061489E+03</pdfrwt>
<pdfrwt beam="2">  1       21 0.15694144E+00 0.44061489E+03</pdfrwt>
<totfact> 0.39276768E+04</totfact>
</mgrwt>
</event>
<event>
 7    0  0.4712189E-002  0.4525937E+03  0.7546771E-02  0.1026951E+00
         21   -1    0    0  502  501  0.00000000000E+00  0.00000000000E+00  0.75080223602E+03  0.75080223602E+03  0.00000000000E+00 0. -1.
         21   -1    0    0  501  502 -0.00000000000E+00 -0.00000000000E+00 -0.68207387176E+02  0.68207387176E+02  0.00000000000E+00 0. -1.
      99926    2    1    2    0    0  0.00000000000E+00  0.00000000000E+00  0.68259484884E+03  0.81900962319E+03  0.45259367563E+03 0.  0.
      99925    2    3    3    0    0  0.44131143276E+02 -0.94266013631E+02  0.49952030359E+03  0.57406588199E+03  0.26305410858E+03 0.  0.
         25    1    4    4    0    0  0.16156479032E+02 -0.54550134235E+01  0.20339857030E+03  0.23939355774E+03  0.12509000000E+03 0.  0.
         25    1    4    4    0    0  0.27974664243E+02 -0.88811000207E+02  0.29612173329E+03  0.33467232425E+03  0.12509000000E+03 0.  0.
         25    1    3    3    0    0 -0.44131143276E+02  0.94266013631E+02  0.18307454525E+03  0.24494374120E+03  0.12509000000E+03 0.  0.
<mgrwt>
<rscale>  2 0.45259368E+03</rscale>
<asrwt>0</asrwt>
<pdfrwt beam="1">  1       21 0.11041209E+00 0.45259368E+03</pdfrwt>
<pdfrwt beam="2">  1       21 0.10030499E-01 0.45259368E+03</pdfrwt>
<totfact> 0.47754372E+04</totfact>
</mgrwt>
</event>
<event>
 6    0  0.4712189E-002  0.4590512E+03  0.7546771E-02  0.1025057E+00
         21   -1    0    0  502  501  0.00000000000E+00  0.00000000000E+00  0.39797820878E+03  0.39797820878E+03  0.00000000000E+00 0. -1.
         21   -1    0    0  501  502 -0.00000000000E+00 -0.00000000000E+00 -0.13237407028E+03  0.13237407028E+03  0.00000000000E+00 0. -1.
      99926    2    1    2    0    0  0.00000000000E+00  0.00000000000E+00  0.26560413850E+03  0.53035227907E+03  0.45905117527E+03 0.  0.
         25    1    3    3    0    0 -0.39051702404E+02 -0.25598849145E+02  0.10529374855E+03  0.17004298904E+03  0.12509000000E+03 0.  0.
         25    1    3    3    0    0  0.95756312539E+02 -0.91558972889E+01  0.16866062561E+02  0.15869805926E+03  0.12509000000E+03 0.  0.
         25    1    3    3    0    0 -0.56704610135E+02  0.34754746434E+02  0.14344432739E+03  0.20161123077E+03  0.12509000000E+03 0.  0.
<mgrwt>
<rscale>  2 0.45905118E+03</rscale>
<asrwt>0</asrwt>
<pdfrwt beam="1">  1       21 0.58526207E-01 0.45905118E+03</pdfrwt>
<pdfrwt beam="2">  1       21 0.19466775E-01 0.45905118E+03</pdfrwt>
<totfact> 0.61193922E+04</totfact>
</mgrwt>
</event>
<event>
 7    0  0.4712189E-002  0.4611884E+03  0.7546771E-02  0.1024437E+00
         21   -1    0    0  502  501  0.00000000000E+00  0.00000000000E+00  0.72453138299E+03  0.72453138299E+03  0.00000000000E+00 0.  1.
         21   -1    0    0  501  502 -0.00000000000E+00 -0.00000000000E+00 -0.73390438427E+02  0.73390438427E+02  0.00000000000E+00 0.  1.
      99926    2    1    2    0    0 -0.14210854715E-13  0.00000000000E+00  0.65114094457E+03  0.79792182142E+03  0.46118836001E+03 0.  0.
      99925    2    3    3    0    0  0.98289718628E+02  0.66799746039E+02  0.40786790961E+03  0.49967301170E+03  0.26304716702E+03 0.  0.
         25    1    4    4    0    0  0.69401754367E+02  0.44537452787E+02  0.27744786012E+03  0.31531731857E+03  0.12509000000E+03 0.  0.
         25    1    4    4    0    0  0.28887964261E+02  0.22262293253E+02  0.13042004949E+03  0.18435569313E+03  0.12509000000E+03 0.  0.
         25    1    3    3    0    0 -0.98289718628E+02 -0.66799746039E+02  0.24327303496E+03  0.29824880972E+03  0.12509000000E+03 0.  0.
<mgrwt>
<rscale>  2 0.46118836E+03</rscale>
<asrwt>0</asrwt>
<pdfrwt beam="1">  1       21 0.10654873E+00 0.46118836E+03</pdfrwt>
<pdfrwt beam="2">  1       21 0.10792712E-01 0.46118836E+03</pdfrwt>
<totfact> 0.45609760E+04</totfact>
</mgrwt>
</event>
<event>
 7    0  0.4712189E-002  0.4545498E+03  0.7546771E-02  0.1026374E+00
         21   -1    0    0  502  501  0.00000000000E+00  0.00000000000E+00  0.60573115039E+03  0.60573115039E+03  0.00000000000E+00 0.  1.
         21   -1    0    0  501  502 -0.00000000000E+00 -0.00000000000E+00 -0.85275247381E+02  0.85275247381E+02  0.00000000000E+00 0.  1.
      99926    2    1    2    0    0  0.88817841970E-15  0.00000000000E+00  0.52045590301E+03  0.69100639777E+03  0.45454977152E+03 0.  0.
      99925    2    3    3    0    0 -0.29962096665E+01 -0.99154885653E+02  0.40883844435E+03  0.49620744038E+03  0.26312027990E+03 0.  0.
         25    1    4    4    0    0  0.19881319331E+02 -0.25273613948E+02  0.14526869667E+03  0.19438241884E+03  0.12509000000E+03 0.  0.
         25    1    3    3    0    0  0.29962096665E+01  0.99154885653E+02  0.11161745866E+03  0.19479895739E+03  0.12509000000E+03 0.  0.
         25    1    4    4    0    0 -0.22877528998E+02 -0.73881271706E+02  0.26356974768E+03  0.30182502155E+03  0.12509000000E+03 0.  0.
<mgrwt>
<rscale>  2 0.45454977E+03</rscale>
<asrwt>0</asrwt>
<pdfrwt beam="1">  1       21 0.89078108E-01 0.45454977E+03</pdfrwt>
<pdfrwt beam="2">  1       21 0.12540478E-01 0.45454977E+03</pdfrwt>
<totfact> 0.53583715E+04</totfact>
</mgrwt>
</event>
<event>
 7    0  0.4712189E-002  0.4747401E+03  0.7546771E-02  0.1020591E+00
         21   -1    0    0  502  501  0.00000000000E+00  0.00000000000E+00  0.22108945473E+02  0.22108945473E+02  0.00000000000E+00 0. -1.
         21   -1    0    0  501  502 -0.00000000000E+00 -0.00000000000E+00 -0.25484954427E+04  0.25484954427E+04  0.00000000000E+00 0. -1.
      99926    2    1    2    0    0  0.71054273576E-14  0.00000000000E+00 -0.25263864972E+04  0.25706043881E+04  0.47474012588E+03 0.  0.
      99925    2    3    3    0    0  0.42944025006E+02 -0.88727154582E+02 -0.10965237359E+04  0.11318995117E+04  0.26289827683E+03 0.  0.
         25    1    4    4    0    0  0.43671622051E+02 -0.54816019447E+02 -0.70654923643E+03  0.72095168920E+03  0.12509000000E+03 0.  0.
         25    1    3    3    0    0 -0.42944025006E+02  0.88727154582E+02 -0.14298627613E+04  0.14387048765E+04  0.12509000000E+03 0.  0.
         25    1    4    4    0    0 -0.72759704453E+00 -0.33911135134E+02 -0.38997449945E+03  0.41094782248E+03  0.12509000000E+03 0.  0.
<mgrwt>
<rscale>  2 0.47474013E+03</rscale>
<asrwt>0</asrwt>
<pdfrwt beam="1">  1       21 0.32513157E-02 0.47474013E+03</pdfrwt>
<pdfrwt beam="2">  1       21 0.37477872E+00 0.47474013E+03</pdfrwt>
<totfact> 0.55363600E+03</totfact>
</mgrwt>
</event>
<event>
 7    0  0.4712189E-002  0.4446644E+03  0.7546771E-02  0.1029325E+00
         21   -1    0    0  502  501  0.00000000000E+00  0.00000000000E+00  0.12055162251E+04  0.12055162251E+04  0.00000000000E+00 0. -1.
         21   -1    0    0  501  502 -0.00000000000E+00 -0.00000000000E+00 -0.41004519114E+02  0.41004519114E+02  0.00000000000E+00 0. -1.
      99926    2    1    2    0    0  0.00000000000E+00 -0.71054273576E-14  0.11645117060E+04  0.12465207442E+04  0.44466442670E+03 0.  0.
      99925    2    3    3    0    0 -0.82163586800E+02  0.61962771340E+02  0.76012871359E+03  0.81090238754E+03  0.26301479211E+03 0.  0.
         25    1    3    3    0    0  0.82163586800E+02 -0.61962771340E+02  0.40438299237E+03  0.43561835664E+03  0.12509000000E+03 0.  0.
         25    1    4    4    0    0 -0.32927398588E+02  0.50840037975E+02  0.48444032912E+03  0.50398299934E+03  0.12509000000E+03 0.  0.
         25    1    4    4    0    0 -0.49236188212E+02  0.11122733366E+02  0.27568838446E+03  0.30691938820E+03  0.12509000000E+03 0.  0.
<mgrwt>
<rscale>  2 0.44466443E+03</rscale>
<asrwt>0</asrwt>
<pdfrwt beam="1">  1       21 0.17728178E+00 0.44466443E+03</pdfrwt>
<pdfrwt beam="2">  1       21 0.60300771E-02 0.44466443E+03</pdfrwt>
<totfact> 0.33308056E+04</totfact>
</mgrwt>
</event>
<event>
 7    0  0.4712189E-002  0.4534413E+03  0.7546771E-02  0.1026701E+00
         21   -1    0    0  502  501  0.00000000000E+00  0.00000000000E+00  0.58706373137E+03  0.58706373137E+03  0.00000000000E+00 0.  1.
         21   -1    0    0  501  502 -0.00000000000E+00 -0.00000000000E+00 -0.87558217291E+02  0.87558217291E+02  0.00000000000E+00 0.  1.
      99926    2    1    2    0    0  0.71054273576E-14  0.14210854715E-13  0.49950551408E+03  0.67462194866E+03  0.45344130273E+03 0.  0.
      99925    2    3    3    0    0  0.35755938112E+02  0.94889351793E+02  0.38443036412E+03  0.47670207995E+03  0.26301272208E+03 0.  0.
         25    1    4    4    0    0  0.58589362048E+02  0.53868037775E+02  0.20019618313E+03  0.24911944661E+03  0.12509000000E+03 0.  0.
         25    1    3    3    0    0 -0.35755938112E+02 -0.94889351793E+02  0.11507514997E+03  0.19791986872E+03  0.12509000000E+03 0.  0.
         25    1    4    4    0    0 -0.22833423936E+02  0.41021314018E+02  0.18423418098E+03  0.22758263333E+03  0.12509000000E+03 0.  0.
<mgrwt>
<rscale>  2 0.45344130E+03</rscale>
<asrwt>0</asrwt>
<pdfrwt beam="1">  1       21 0.86332900E-01 0.45344130E+03</pdfrwt>
<pdfrwt beam="2">  1       21 0.12876209E-01 0.45344130E+03</pdfrwt>
<totfact> 0.54975048E+04</totfact>
</mgrwt>
</event>
<event>
 7    0  0.4712189E-002  0.4551721E+03  0.7546771E-02  0.1026191E+00
         21   -1    0    0  502  501  0.00000000000E+00  0.00000000000E+00  0.49715281196E+03  0.49715281196E+03  0.00000000000E+00 0.  1.
         21   -1    0    0  501  502 -0.00000000000E+00 -0.00000000000E+00 -0.10418407947E+03  0.10418407947E+03  0.00000000000E+00 0.  1.
      99926    2    1    2    0    0  0.00000000000E+00  0.00000000000E+00  0.39296873249E+03  0.60133689144E+03  0.45517209085E+03 0.  0.
      99925    2    3    3    0    0 -0.64152264801E+02 -0.17888642370E+02  0.36842475494E+03  0.45751258355E+03  0.26295521948E+03 0.  0.
         25    1    4    4    0    0 -0.59495953989E+02 -0.25569861887E+02  0.15091462568E+03  0.20643720286E+03  0.12509000000E+03 0.  0.
         25    1    3    3    0    0  0.64152264801E+02  0.17888642370E+02  0.24543977554E+02  0.14382430789E+03  0.12509000000E+03 0.  0.
         25    1    4    4    0    0 -0.46563108121E+01  0.76812195169E+01  0.21751012925E+03  0.25107538070E+03  0.12509000000E+03 0.  0.
<mgrwt>
<rscale>  2 0.45517209E+03</rscale>
<asrwt>0</asrwt>
<pdfrwt beam="1">  1       21 0.73110707E-01 0.45517209E+03</pdfrwt>
<pdfrwt beam="2">  1       21 0.15321188E-01 0.45517209E+03</pdfrwt>
<totfact> 0.58516450E+04</totfact>
</mgrwt>
</event>
<event>
 7    0  0.4712189E-002  0.4507518E+03  0.7546771E-02  0.1027498E+00
         21   -1    0    0  502  501  0.00000000000E+00  0.00000000000E+00  0.39042010328E+03  0.39042010328E+03  0.00000000000E+00 0.  1.
         21   -1    0    0  501  502 -0.00000000000E+00 -0.00000000000E+00 -0.13010162271E+03  0.13010162271E+03  0.00000000000E+00 0.  1.
      99926    2    1    2    0    0 -0.71054273576E-14  0.00000000000E+00  0.26031848057E+03  0.52052172599E+03  0.45075176749E+03 0.  0.
      99925    2    3    3    0    0 -0.33864250079E+02 -0.88223688778E+02  0.22702567618E+03  0.36025280941E+03  0.26327024585E+03 0.  0.
         25    1    4    4    0    0 -0.44670218841E+02 -0.74255343099E+02  0.14063759741E+03  0.20720937801E+03  0.12509000000E+03 0.  0.
         25    1    3    3    0    0  0.33864250079E+02  0.88223688778E+02  0.33292804386E+02  0.16026891657E+03  0.12509000000E+03 0.  0.
         25    1    4    4    0    0  0.10805968762E+02 -0.13968345679E+02  0.86388078778E+02  0.15304343141E+03  0.12509000000E+03 0.  0.
<mgrwt>
<rscale>  2 0.45075177E+03</rscale>
<asrwt>0</asrwt>
<pdfrwt beam="1">  1       21 0.57414721E-01 0.45075177E+03</pdfrwt>
<pdfrwt beam="2">  1       21 0.19132592E-01 0.45075177E+03</pdfrwt>
<totfact> 0.66049255E+04</totfact>
</mgrwt>
</event>
<event>
 7    0  0.4712189E-002  0.4536446E+03  0.7546771E-02  0.1026641E+00
         21   -1    0    0  502  501  0.00000000000E+00  0.00000000000E+00  0.45155433917E+03  0.45155433917E+03  0.00000000000E+00 0. -1.
         21   -1    0    0  501  502 -0.00000000000E+00 -0.00000000000E+00 -0.11393611480E+03  0.11393611480E+03  0.00000000000E+00 0. -1.
      99926    2    1    2    0    0  0.00000000000E+00  0.00000000000E+00  0.33761822437E+03  0.56549045397E+03  0.45364456142E+03 0.  0.
      99925    2    3    3    0    0 -0.74607606467E+02  0.51010286085E+02  0.29479579763E+03  0.40533548976E+03  0.26310445213E+03 0.  0.
         25    1    4    4    0    0 -0.52977833103E+02  0.37694568671E+02  0.10157248742E+03  0.17375848068E+03  0.12509000000E+03 0.  0.
         25    1    3    3    0    0  0.74607606467E+02 -0.51010286085E+02  0.42822426743E+02  0.16015496421E+03  0.12509000000E+03 0.  0.
         25    1    4    4    0    0 -0.21629773364E+02  0.13315717414E+02  0.19322331022E+03  0.23157700908E+03  0.12509000000E+03 0.  0.
<mgrwt>
<rscale>  2 0.45364456E+03</rscale>
<asrwt>0</asrwt>
<pdfrwt beam="1">  1       21 0.66405049E-01 0.45364456E+03</pdfrwt>
<pdfrwt beam="2">  1       21 0.16755311E-01 0.45364456E+03</pdfrwt>
<totfact> 0.61511088E+04</totfact>
</mgrwt>
</event>
<event>
 7    0  0.4712189E-002  0.4429466E+03  0.7546771E-02  0.1029847E+00
         21   -1    0    0  502  501  0.00000000000E+00  0.00000000000E+00  0.28421621322E+03  0.28421621322E+03  0.00000000000E+00 0. -1.
         21   -1    0    0  501  502 -0.00000000000E+00 -0.00000000000E+00 -0.17258138712E+03  0.17258138712E+03  0.00000000000E+00 0. -1.
      99926    2    1    2    0    0  0.00000000000E+00  0.00000000000E+00  0.11163482610E+03  0.45679760034E+03  0.44294662576E+03 0.  0.
      99925    2    3    3    0    0 -0.45500776091E+02 -0.62964130745E+02  0.13858159155E+03  0.30710311596E+03  0.26281678776E+03 0.  0.
         25    1    4    4    0    0 -0.30446774089E+01 -0.89988338892E+01  0.33368638970E+02  0.12981226151E+03  0.12509000000E+03 0.  0.
         25    1    3    3    0    0  0.45500776091E+02  0.62964130745E+02 -0.26946765448E+02  0.14969448438E+03  0.12509000000E+03 0.  0.
         25    1    4    4    0    0 -0.42456098682E+02 -0.53965296856E+02  0.10521295258E+03  0.17729085445E+03  0.12509000000E+03 0.  0.
<mgrwt>
<rscale>  2 0.44294663E+03</rscale>
<asrwt>0</asrwt>
<pdfrwt beam="1">  1       21 0.41796502E-01 0.44294663E+03</pdfrwt>
<pdfrwt beam="2">  1       21 0.25379616E-01 0.44294663E+03</pdfrwt>
<totfact> 0.75384118E+04</totfact>
</mgrwt>
</event>
<event>
 7    0  0.4712189E-002  0.4504433E+03  0.7546771E-02  0.1027590E+00
         21   -1    0    0  502  501  0.00000000000E+00  0.00000000000E+00  0.18304344846E+03  0.18304344846E+03  0.00000000000E+00 0.  1.
         21   -1    0    0  501  502 -0.00000000000E+00 -0.00000000000E+00 -0.27711888283E+03  0.27711888283E+03  0.00000000000E+00 0.  1.
      99926    2    1    2    0    0  0.00000000000E+00  0.00000000000E+00 -0.94075434376E+02  0.46016233129E+03  0.45044331917E+03 0.  0.
      99925    2    3    3    0    0 -0.69631247927E+02 -0.83613868180E+02 -0.56853756300E+02  0.29024249413E+03  0.26299917520E+03 0.  0.
         25    1    4    4    0    0 -0.47817610912E+02 -0.78935866666E+02 -0.48771019803E+02  0.16292180772E+03  0.12509000000E+03 0.  0.
         25    1    4    4    0    0 -0.21813637015E+02 -0.46780015140E+01 -0.80827364967E+01  0.12732068641E+03  0.12509000000E+03 0.  0.
         25    1    3    3    0    0  0.69631247927E+02  0.83613868180E+02 -0.37221678076E+02  0.16991983715E+03  0.12509000000E+03 0.  0.
<mgrwt>
<rscale>  2 0.45044332E+03</rscale>
<asrwt>0</asrwt>
<pdfrwt beam="1">  1       21 0.26918154E-01 0.45044332E+03</pdfrwt>
<pdfrwt beam="2">  1       21 0.40752777E-01 0.45044332E+03</pdfrwt>
<totfact> 0.70695989E+04</totfact>
</mgrwt>
</event>
<event>
 7    0  0.4712189E-002  0.4474342E+03  0.7546771E-02  0.1028490E+00
         21   -1    0    0  502  501  0.00000000000E+00  0.00000000000E+00  0.32967947820E+03  0.32967947820E+03  0.00000000000E+00 0.  1.
         21   -1    0    0  501  502 -0.00000000000E+00 -0.00000000000E+00 -0.15181209548E+03  0.15181209548E+03  0.00000000000E+00 0.  1.
      99926    2    1    2    0    0 -0.71054273576E-14  0.00000000000E+00  0.17786738272E+03  0.48149157368E+03  0.44743416241E+03 0.  0.
      99925    2    3    3    0    0 -0.59410674327E+02  0.44194120784E+02  0.31126430179E+02  0.27494094118E+03  0.26294660664E+03 0.  0.
         25    1    4    4    0    0 -0.80806287842E+01 -0.12135316746E+02  0.41758467750E+01  0.12600598506E+03  0.12509000000E+03 0.  0.
         25    1    4    4    0    0 -0.51330045543E+02  0.56329437530E+02  0.26950583404E+02  0.14893495612E+03  0.12509000000E+03 0.  0.
         25    1    3    3    0    0  0.59410674327E+02 -0.44194120784E+02  0.14674095254E+03  0.20655063251E+03  0.12509000000E+03 0.  0.
<mgrwt>
<rscale>  2 0.44743416E+03</rscale>
<asrwt>0</asrwt>
<pdfrwt beam="1">  1       21 0.48482276E-01 0.44743416E+03</pdfrwt>
<pdfrwt beam="2">  1       21 0.22325308E-01 0.44743416E+03</pdfrwt>
<totfact> 0.70746232E+04</totfact>
</mgrwt>
</event>
<event>
 7    0  0.4712189E-002  0.4708097E+03  0.7546771E-02  0.1021692E+00
         21   -1    0    0  502  501  0.00000000000E+00  0.00000000000E+00  0.16301153451E+04  0.16301153451E+04  0.00000000000E+00 0.  1.
         21   -1    0    0  501  502 -0.00000000000E+00 -0.00000000000E+00 -0.33994794488E+02  0.33994794488E+02  0.00000000000E+00 0.  1.
      99926    2    1    2    0    0  0.17763568394E-14  0.00000000000E+00  0.15961205506E+04  0.16641101396E+04  0.47080966918E+03 0.  0.
      99925    2    3    3    0    0  0.13007548782E+02  0.98198172703E+02  0.12740307919E+04  0.13046641795E+04  0.26302487552E+03 0.  0.
         25    1    4    4    0    0  0.28996937186E+02  0.85229324173E+02  0.67650437523E+03  0.69383754429E+03  0.12509000000E+03 0.  0.
         25    1    4    4    0    0 -0.15989388404E+02  0.12968848530E+02  0.59752641668E+03  0.61082663523E+03  0.12509000000E+03 0.  0.
         25    1    3    3    0    0 -0.13007548782E+02 -0.98198172703E+02  0.32208975870E+03  0.35944596006E+03  0.12509000000E+03 0.  0.
<mgrwt>
<rscale>  2 0.47080967E+03</rscale>
<asrwt>0</asrwt>
<pdfrwt beam="1">  1       21 0.23972279E+00 0.47080967E+03</pdfrwt>
<pdfrwt beam="2">  1       21 0.49992356E-02 0.47080967E+03</pdfrwt>
<totfact> 0.17739629E+04</totfact>
</mgrwt>
</event>
<event>
 7    0  0.4712189E-002  0.4541925E+03  0.7546771E-02  0.1026479E+00
         21   -1    0    0  502  501  0.00000000000E+00  0.00000000000E+00  0.35492080317E+03  0.35492080317E+03  0.00000000000E+00 0.  1.
         21   -1    0    0  501  502 -0.00000000000E+00 -0.00000000000E+00 -0.14530762076E+03  0.14530762076E+03  0.00000000000E+00 0.  1.
      99926    2    1    2    0    0  0.00000000000E+00  0.00000000000E+00  0.20961318241E+03  0.50022842394E+03  0.45419245907E+03 0.  0.
      99925    2    3    3    0    0 -0.35257602949E+02 -0.10668689438E+03  0.13190352111E+03  0.31499481047E+03  0.26305512682E+03 0.  0.
         25    1    4    4    0    0 -0.29772210942E+01 -0.35127340210E+02  0.99804757201E+02  0.16386363701E+03  0.12509000000E+03 0.  0.
         25    1    4    4    0    0 -0.32280381854E+02 -0.71559554173E+02  0.32098763907E+02  0.15113117346E+03  0.12509000000E+03 0.  0.
         25    1    3    3    0    0  0.35257602949E+02  0.10668689438E+03  0.77709661302E+02  0.18523361347E+03  0.12509000000E+03 0.  0.
<mgrwt>
<rscale>  2 0.45419246E+03</rscale>
<asrwt>0</asrwt>
<pdfrwt beam="1">  1       21 0.52194236E-01 0.45419246E+03</pdfrwt>
<pdfrwt beam="2">  1       21 0.21368768E-01 0.45419246E+03</pdfrwt>
<totfact> 0.65674598E+04</totfact>
</mgrwt>
</event>
<event>
 7    0  0.4712189E-002  0.4311012E+03  0.7546771E-02  0.1033513E+00
         21   -1    0    0  502  501  0.00000000000E+00  0.00000000000E+00  0.70221380921E+03  0.70221380921E+03  0.00000000000E+00 0. -1.
         21   -1    0    0  501  502 -0.00000000000E+00 -0.00000000000E+00 -0.66165107495E+02  0.66165107495E+02  0.00000000000E+00 0. -1.
      99926    2    1    2    0    0 -0.14210854715E-13  0.17763568394E-14  0.63604870172E+03  0.76837891671E+03  0.43110115830E+03 0.  0.
      99925    2    3    3    0    0 -0.62821991707E+02 -0.12211235148E+02  0.51942280225E+03  0.58577326118E+03  0.26312458856E+03 0.  0.
         25    1    3    3    0    0  0.62821991707E+02  0.12211235148E+02  0.11662589947E+03  0.18260565553E+03  0.12509000000E+03 0.  0.
         25    1    4    4    0    0 -0.72976362076E+01 -0.36416971407E+02  0.22268088256E+03  0.25809636739E+03  0.12509000000E+03 0.  0.
         25    1    4    4    0    0 -0.55524355499E+02  0.24205736259E+02  0.29674191969E+03  0.32767689379E+03  0.12509000000E+03 0.  0.
<mgrwt>
<rscale>  2 0.43110116E+03</rscale>
<asrwt>0</asrwt>
<pdfrwt beam="1">  1       21 0.10326673E+00 0.43110116E+03</pdfrwt>
<pdfrwt beam="2">  1       21 0.97301633E-02 0.43110116E+03</pdfrwt>
<totfact> 0.59784522E+04</totfact>
</mgrwt>
</event>
<event>
 7    0  0.4712189E-002  0.4657679E+03  0.7546771E-02  0.1023122E+00
         21   -1    0    0  502  501  0.00000000000E+00  0.00000000000E+00  0.14912505898E+03  0.14912505898E+03  0.00000000000E+00 0. -1.
         21   -1    0    0  501  502 -0.00000000000E+00 -0.00000000000E+00 -0.36368760172E+03  0.36368760172E+03  0.00000000000E+00 0. -1.
      99926    2    1    2    0    0  0.00000000000E+00  0.00000000000E+00 -0.21456254273E+03  0.51281266070E+03  0.46576790382E+03 0.  0.
      99925    2    3    3    0    0 -0.84853720634E+02  0.61677262456E+02 -0.63019979676E+02  0.29006415874E+03  0.26298566450E+03 0.  0.
         25    1    3    3    0    0  0.84853720634E+02 -0.61677262456E+02 -0.15154256306E+03  0.22274850196E+03  0.12509000000E+03 0.  0.
         25    1    4    4    0    0 -0.74645997561E+02  0.72570824845E+01 -0.41032810747E+02  0.15151201225E+03  0.12509000000E+03 0.  0.
         25    1    4    4    0    0 -0.10207723073E+02  0.54420179971E+02 -0.21987168929E+02  0.13855214649E+03  0.12509000000E+03 0.  0.
<mgrwt>
<rscale>  2 0.46576790E+03</rscale>
<asrwt>0</asrwt>
<pdfrwt beam="1">  1       21 0.21930156E-01 0.46576790E+03</pdfrwt>
<pdfrwt beam="2">  1       21 0.53483470E-01 0.46576790E+03</pdfrwt>
<totfact> 0.59159566E+04</totfact>
</mgrwt>
</event>
<event>
 7    0  0.4712189E-002  0.4531925E+03  0.7546771E-02  0.1026774E+00
         21   -1    0    0  502  501  0.00000000000E+00  0.00000000000E+00  0.37808003878E+03  0.37808003878E+03  0.00000000000E+00 0.  1.
         21   -1    0    0  501  502 -0.00000000000E+00 -0.00000000000E+00 -0.13580684654E+03  0.13580684654E+03  0.00000000000E+00 0.  1.
      99926    2    1    2    0    0 -0.71054273576E-14  0.17763568394E-14  0.24227319224E+03  0.51388688532E+03  0.45319248806E+03 0.  0.
      99925    2    3    3    0    0 -0.61063695823E+02  0.11775695461E+02  0.48004262901E+02  0.27460594802E+03  0.26312843913E+03 0.  0.
         25    1    4    4    0    0 -0.24792463869E+02 -0.76066377839E+01 -0.15008640894E+02  0.12862851396E+03  0.12509000000E+03 0.  0.
         25    1    3    3    0    0  0.61063695823E+02 -0.11775695461E+02  0.19426892933E+03  0.23928093730E+03  0.12509000000E+03 0.  0.
         25    1    4    4    0    0 -0.36271231954E+02  0.19382333245E+02  0.63012903795E+02  0.14597743406E+03  0.12509000000E+03 0.  0.
<mgrwt>
<rscale>  2 0.45319249E+03</rscale>
<asrwt>0</asrwt>
<pdfrwt beam="1">  1       21 0.55600005E-01 0.45319249E+03</pdfrwt>
<pdfrwt beam="2">  1       21 0.19971595E-01 0.45319249E+03</pdfrwt>
<totfact> 0.65236332E+04</totfact>
</mgrwt>
</event>
<event>
 7    0  0.4712189E-002  0.4615167E+03  0.7546771E-02  0.1024342E+00
         21   -1    0    0  502  501  0.00000000000E+00  0.00000000000E+00  0.53167575374E+02  0.53167575374E+02  0.00000000000E+00 0.  1.
         21   -1    0    0  501  502 -0.00000000000E+00 -0.00000000000E+00 -0.10015392778E+04  0.10015392778E+04  0.00000000000E+00 0.  1.
      99926    2    1    2    0    0  0.00000000000E+00 -0.14210854715E-13 -0.94837170243E+03  0.10547068532E+04  0.46151669544E+03 0.  0.
      99925    2    3    3    0    0  0.29024332037E+02  0.11017280134E+03 -0.67289295850E+03  0.73141672889E+03  0.26306850761E+03 0.  0.
         25    1    3    3    0    0 -0.29024332037E+02 -0.11017280134E+03 -0.27547874393E+03  0.32329012429E+03  0.12509000000E+03 0.  0.
         25    1    4    4    0    0 -0.11735683988E+02  0.34134256010E+02 -0.24673987716E+03  0.27898198650E+03  0.12509000000E+03 0.  0.
         25    1    4    4    0    0  0.40760016025E+02  0.76038545333E+02 -0.42615308134E+03  0.45243474239E+03  0.12509000000E+03 0.  0.
<mgrwt>
<rscale>  2 0.46151670E+03</rscale>
<asrwt>0</asrwt>
<pdfrwt beam="1">  1       21 0.78187626E-02 0.46151670E+03</pdfrwt>
<pdfrwt beam="2">  1       21 0.14728516E+00 0.46151670E+03</pdfrwt>
<totfact> 0.35276467E+04</totfact>
</mgrwt>
</event>
<event>
 7    0  0.4712189E-002  0.4446695E+03  0.7546771E-02  0.1029324E+00
         21   -1    0    0  502  501  0.00000000000E+00  0.00000000000E+00  0.26098776333E+03  0.26098776333E+03  0.00000000000E+00 0.  1.
         21   -1    0    0  501  502 -0.00000000000E+00 -0.00000000000E+00 -0.18940635163E+03  0.18940635163E+03  0.00000000000E+00 0.  1.
      99926    2    1    2    0    0  0.35527136788E-14  0.00000000000E+00  0.71581411700E+02  0.45039411496E+03  0.44466949557E+03 0.  0.
      99925    2    3    3    0    0 -0.31976594309E+02 -0.73756611667E+02  0.11108512313E+03  0.29654161525E+03  0.26293437327E+03 0.  0.
         25    1    4    4    0    0  0.12230634805E+02 -0.25913491814E+02  0.82728193084E+02  0.15268450975E+03  0.12509000000E+03 0.  0.
         25    1    4    4    0    0 -0.44207229114E+02 -0.47843119853E+02  0.28356930044E+02  0.14385710551E+03  0.12509000000E+03 0.  0.
         25    1    3    3    0    0  0.31976594309E+02  0.73756611667E+02 -0.39503711428E+02  0.15385249970E+03  0.12509000000E+03 0.  0.
<mgrwt>
<rscale>  2 0.44466950E+03</rscale>
<asrwt>0</asrwt>
<pdfrwt beam="1">  1       21 0.38380553E-01 0.44466950E+03</pdfrwt>
<pdfrwt beam="2">  1       21 0.27853875E-01 0.44466950E+03</pdfrwt>
<totfact> 0.74866360E+04</totfact>
</mgrwt>
</event>
<event>
 7    0  0.4712189E-002  0.4548395E+03  0.7546771E-02  0.1026289E+00
         21   -1    0    0  502  501  0.00000000000E+00  0.00000000000E+00  0.21949832135E+02  0.21949832135E+02  0.00000000000E+00 0.  1.
         21   -1    0    0  501  502 -0.00000000000E+00 -0.00000000000E+00 -0.23562709626E+04  0.23562709626E+04  0.00000000000E+00 0.  1.
      99926    2    1    2    0    0  0.14210854715E-13  0.71054273576E-14 -0.23343211305E+04  0.23782207948E+04  0.45483954136E+03 0.  0.
      99925    2    3    3    0    0  0.10848938549E+03  0.30886926405E+02 -0.14418294312E+04  0.14699736420E+04  0.26310919918E+03 0.  0.
         25    1    4    4    0    0  0.20076981032E+02 -0.11764272686E+02 -0.65081867736E+03  0.66313945907E+03  0.12509000000E+03 0.  0.
         25    1    4    4    0    0  0.88412404459E+02  0.42651199091E+02 -0.79101075383E+03  0.80683418298E+03  0.12509000000E+03 0.  0.
         25    1    3    3    0    0 -0.10848938549E+03 -0.30886926405E+02 -0.89249169931E+03  0.90824715272E+03  0.12509000000E+03 0.  0.
<mgrwt>
<rscale>  2 0.45483954E+03</rscale>
<asrwt>0</asrwt>
<pdfrwt beam="1">  1       21 0.32279184E-02 0.45483954E+03</pdfrwt>
<pdfrwt beam="2">  1       21 0.34651023E+00 0.45483954E+03</pdfrwt>
<totfact> 0.84699202E+03</totfact>
</mgrwt>
</event>
<event>
 7    0  0.4712189E-002  0.4570632E+03  0.7546771E-02  0.1025636E+00
         21   -1    0    0  502  501  0.00000000000E+00  0.00000000000E+00  0.13384495459E+03  0.13384495459E+03  0.00000000000E+00 0.  1.
         21   -1    0    0  501  502 -0.00000000000E+00 -0.00000000000E+00 -0.39020294913E+03  0.39020294913E+03  0.00000000000E+00 0.  1.
      99926    2    1    2    0    0  0.14210854715E-13  0.88817841970E-15 -0.25635799454E+03  0.52404790373E+03  0.45706321667E+03 0.  0.
      99925    2    3    3    0    0  0.91272952190E+02  0.35400584292E+01 -0.80858699551E+02  0.28997356841E+03  0.26306511982E+03 0.  0.
         25    1    4    4    0    0  0.12624070793E+02 -0.94680459591E+01 -0.61830121487E+02  0.14042607693E+03  0.12509000000E+03 0.  0.
         25    1    3    3    0    0 -0.91272952190E+02 -0.35400584292E+01 -0.17549929499E+03  0.23407433532E+03  0.12509000000E+03 0.  0.
         25    1    4    4    0    0  0.78648881397E+02  0.13008104388E+02 -0.19028578064E+02  0.14954749148E+03  0.12509000000E+03 0.  0.
<mgrwt>
<rscale>  2 0.45706322E+03</rscale>
<asrwt>0</asrwt>
<pdfrwt beam="1">  1       21 0.19683081E-01 0.45706322E+03</pdfrwt>
<pdfrwt beam="2">  1       21 0.57382787E-01 0.45706322E+03</pdfrwt>
<totfact> 0.62581292E+04</totfact>
</mgrwt>
</event>
<event>
 7    0  0.4712189E-002  0.4571235E+03  0.7546771E-02  0.1025619E+00
         21   -1    0    0  502  501  0.00000000000E+00  0.00000000000E+00  0.19503846604E+03  0.19503846604E+03  0.00000000000E+00 0.  1.
         21   -1    0    0  501  502 -0.00000000000E+00 -0.00000000000E+00 -0.26784703941E+03  0.26784703941E+03  0.00000000000E+00 0.  1.
      99926    2    1    2    0    0  0.71054273576E-14  0.00000000000E+00 -0.72808573373E+02  0.46288550546E+03  0.45712350935E+03 0.  0.
      99925    2    3    3    0    0  0.39750056651E+02 -0.89914840302E+02 -0.10664037638E+03  0.30022990455E+03  0.26287084320E+03 0.  0.
         25    1    4    4    0    0  0.26341906716E+02 -0.87296753613E+02 -0.56967163511E+02  0.16494661276E+03  0.12509000000E+03 0.  0.
         25    1    3    3    0    0 -0.39750056651E+02  0.89914840302E+02  0.33831803010E+02  0.16265560090E+03  0.12509000000E+03 0.  0.
         25    1    4    4    0    0  0.13408149935E+02 -0.26180866884E+01 -0.49673212872E+02  0.13528329180E+03  0.12509000000E+03 0.  0.
<mgrwt>
<rscale>  2 0.45712351E+03</rscale>
<asrwt>0</asrwt>
<pdfrwt beam="1">  1       21 0.28682127E-01 0.45712351E+03</pdfrwt>
<pdfrwt beam="2">  1       21 0.39389270E-01 0.45712351E+03</pdfrwt>
<totfact> 0.66831831E+04</totfact>
</mgrwt>
</event>
<event>
 7    0  0.4712189E-002  0.4146319E+03  0.7546771E-02  0.1038828E+00
         21   -1    0    0  502  501  0.00000000000E+00  0.00000000000E+00  0.23323184471E+03  0.23323184471E+03  0.00000000000E+00 0.  1.
         21   -1    0    0  501  502 -0.00000000000E+00 -0.00000000000E+00 -0.18427973161E+03  0.18427973161E+03  0.00000000000E+00 0.  1.
      99926    2    1    2    0    0  0.00000000000E+00  0.00000000000E+00  0.48952113107E+02  0.41751157632E+03  0.41463189335E+03 0.  0.
      99925    2    3    3    0    0  0.30037549496E+02  0.23435797019E+02  0.89913886966E+02  0.28048287137E+03  0.26293467459E+03 0.  0.
         25    1    4    4    0    0  0.43274722927E+02  0.41180756782E+02  0.48823459930E+02  0.14696868617E+03  0.12509000000E+03 0.  0.
         25    1    3    3    0    0 -0.30037549496E+02 -0.23435797019E+02 -0.40961773859E+02  0.13702870495E+03  0.12509000000E+03 0.  0.
         25    1    4    4    0    0 -0.13237173431E+02 -0.17744959763E+02  0.41090427036E+02  0.13351418521E+03  0.12509000000E+03 0.  0.
<mgrwt>
<rscale>  2 0.41463189E+03</rscale>
<asrwt>0</asrwt>
<pdfrwt beam="1">  1       21 0.34298801E-01 0.41463189E+03</pdfrwt>
<pdfrwt beam="2">  1       21 0.27099960E-01 0.41463189E+03</pdfrwt>
<totfact> 0.99879966E+04</totfact>
</mgrwt>
</event>
<event>
 7    0  0.4712189E-002  0.4523016E+03  0.7546771E-02  0.1027038E+00
         21   -1    0    0  502  501  0.00000000000E+00  0.00000000000E+00  0.54004276767E+03  0.54004276767E+03  0.00000000000E+00 0. -1.
         21   -1    0    0  501  502 -0.00000000000E+00 -0.00000000000E+00 -0.94703957378E+02  0.94703957378E+02  0.00000000000E+00 0. -1.
      99926    2    1    2    0    0  0.00000000000E+00  0.00000000000E+00  0.44533881029E+03  0.63474672505E+03  0.45230161287E+03 0.  0.
      99925    2    3    3    0    0  0.66363315239E+02  0.88366359558E+02  0.26899724194E+03  0.39193700543E+03  0.26275919954E+03 0.  0.
         25    1    4    4    0    0  0.72743392372E+02  0.41048696768E+02  0.12811640226E+03  0.19758015403E+03  0.12509000000E+03 0.  0.
         25    1    3    3    0    0 -0.66363315239E+02 -0.88366359558E+02  0.17634156835E+03  0.24280971961E+03  0.12509000000E+03 0.  0.
         25    1    4    4    0    0 -0.63800771338E+01  0.47317662789E+02  0.14088083968E+03  0.19435685140E+03  0.12509000000E+03 0.  0.
<mgrwt>
<rscale>  2 0.45230161E+03</rscale>
<asrwt>0</asrwt>
<pdfrwt beam="1">  1       21 0.79418052E-01 0.45230161E+03</pdfrwt>
<pdfrwt beam="2">  1       21 0.13927053E-01 0.45230161E+03</pdfrwt>
<totfact> 0.57810317E+04</totfact>
</mgrwt>
</event>
<event>
 7    0  0.4712189E-002  0.4563945E+03  0.7546771E-02  0.1025832E+00
         21   -1    0    0  502  501  0.00000000000E+00  0.00000000000E+00  0.21969137565E+03  0.21969137565E+03  0.00000000000E+00 0.  1.
         21   -1    0    0  501  502 -0.00000000000E+00 -0.00000000000E+00 -0.23703244878E+03  0.23703244878E+03  0.00000000000E+00 0.  1.
      99926    2    1    2    0    0  0.00000000000E+00  0.00000000000E+00 -0.17341073125E+02  0.45672382443E+03  0.45639449930E+03 0.  0.
      99925    2    3    3    0    0 -0.78589558067E+02 -0.27220615715E+02 -0.89396668297E+02  0.29012011063E+03  0.26317415096E+03 0.  0.
         25    1    4    4    0    0 -0.17545269988E+02  0.17314474391E+02 -0.60616416026E+02  0.14117182975E+03  0.12509000000E+03 0.  0.
         25    1    3    3    0    0  0.78589558067E+02  0.27220615715E+02  0.72055595172E+02  0.16660371380E+03  0.12509000000E+03 0.  0.
         25    1    4    4    0    0 -0.61044288079E+02 -0.44535090105E+02 -0.28780252271E+02  0.14894828088E+03  0.12509000000E+03 0.  0.
<mgrwt>
<rscale>  2 0.45639450E+03</rscale>
<asrwt>0</asrwt>
<pdfrwt beam="1">  1       21 0.32307555E-01 0.45639450E+03</pdfrwt>
<pdfrwt beam="2">  1       21 0.34857713E-01 0.45639450E+03</pdfrwt>
<totfact> 0.67663703E+04</totfact>
</mgrwt>
</event>
<event>
 7    0  0.4712189E-002  0.4557069E+03  0.7546771E-02  0.1026034E+00
         21   -1    0    0  502  501  0.00000000000E+00  0.00000000000E+00  0.60448101657E+02  0.60448101657E+02  0.00000000000E+00 0.  1.
         21   -1    0    0  501  502 -0.00000000000E+00 -0.00000000000E+00 -0.85887205547E+03  0.85887205547E+03  0.00000000000E+00 0.  1.
      99926    2    1    2    0    0  0.00000000000E+00  0.00000000000E+00 -0.79842395381E+03  0.91932015713E+03  0.45570685893E+03 0.  0.
      99925    2    3    3    0    0 -0.56395241169E+02 -0.70683040976E+02 -0.36297665708E+03  0.45732624825E+03  0.26309452340E+03 0.  0.
         25    1    4    4    0    0  0.14076108446E+01 -0.53604133929E+02 -0.21454652898E+03  0.25407303230E+03  0.12509000000E+03 0.  0.
         25    1    4    4    0    0 -0.57802852014E+02 -0.17078907047E+02 -0.14843012809E+03  0.20325321595E+03  0.12509000000E+03 0.  0.
         25    1    3    3    0    0  0.56395241169E+02  0.70683040976E+02 -0.43544729674E+03  0.46199390888E+03  0.12509000000E+03 0.  0.
<mgrwt>
<rscale>  2 0.45570686E+03</rscale>
<asrwt>0</asrwt>
<pdfrwt beam="1">  1       21 0.88894269E-02 0.45570686E+03</pdfrwt>
<pdfrwt beam="2">  1       21 0.12630471E+00 0.45570686E+03</pdfrwt>
<totfact> 0.42175142E+04</totfact>
</mgrwt>
</event>
<event>
 7    0  0.4712189E-002  0.4523977E+03  0.7546771E-02  0.1027009E+00
         21   -1    0    0  502  501  0.00000000000E+00  0.00000000000E+00  0.94624553631E+02  0.94624553631E+02  0.00000000000E+00 0.  1.
         21   -1    0    0  501  502 -0.00000000000E+00 -0.00000000000E+00 -0.54072557456E+03  0.54072557456E+03  0.00000000000E+00 0.  1.
      99926    2    1    2    0    0  0.00000000000E+00  0.00000000000E+00 -0.44610102093E+03  0.63535012819E+03  0.45239768403E+03 0.  0.
      99925    2    3    3    0    0  0.80696890985E+02 -0.46107597464E+02 -0.36509594651E+03  0.45971633605E+03  0.26345049007E+03 0.  0.
         25    1    4    4    0    0  0.12462628839E+02 -0.19490172762E+02 -0.11951651014E+03  0.17454766756E+03  0.12509000000E+03 0.  0.
         25    1    3    3    0    0 -0.80696890985E+02  0.46107597464E+02 -0.81005074422E+02  0.17563379214E+03  0.12509000000E+03 0.  0.
         25    1    4    4    0    0  0.68234262146E+02 -0.26617424702E+02 -0.24557943636E+03  0.28516866850E+03  0.12509000000E+03 0.  0.
<mgrwt>
<rscale>  2 0.45239768E+03</rscale>
<asrwt>0</asrwt>
<pdfrwt beam="1">  1       21 0.13915376E-01 0.45239768E+03</pdfrwt>
<pdfrwt beam="2">  1       21 0.79518466E-01 0.45239768E+03</pdfrwt>
<totfact> 0.57730069E+04</totfact>
</mgrwt>
</event>
<event>
 7    0  0.4712189E-002  0.4575323E+03  0.7546771E-02  0.1025499E+00
         21   -1    0    0  502  501  0.00000000000E+00  0.00000000000E+00  0.21919019387E+03  0.21919019387E+03  0.00000000000E+00 0.  1.
         21   -1    0    0  501  502 -0.00000000000E+00 -0.00000000000E+00 -0.23876043518E+03  0.23876043518E+03  0.00000000000E+00 0.  1.
      99926    2    1    2    0    0  0.00000000000E+00  0.00000000000E+00 -0.19570241307E+02  0.45795062904E+03  0.45753227678E+03 0.  0.
      99925    2    3    3    0    0  0.45693459314E+02  0.10550554650E+03 -0.24031996976E+02  0.28798966903E+03  0.26294714302E+03 0.  0.
         25    1    4    4    0    0  0.16548998507E+02  0.11267368739E+02  0.12732516103E+01  0.12668840602E+03  0.12509000000E+03 0.  0.
         25    1    4    4    0    0  0.29144460807E+02  0.94238177758E+02 -0.25305248586E+02  0.16130126301E+03  0.12509000000E+03 0.  0.
         25    1    3    3    0    0 -0.45693459314E+02 -0.10550554650E+03  0.44617556694E+01  0.16996096002E+03  0.12509000000E+03 0.  0.
<mgrwt>
<rscale>  2 0.45753228E+03</rscale>
<asrwt>0</asrwt>
<pdfrwt beam="1">  1       21 0.32233852E-01 0.45753228E+03</pdfrwt>
<pdfrwt beam="2">  1       21 0.35111829E-01 0.45753228E+03</pdfrwt>
<totfact> 0.66966880E+04</totfact>
</mgrwt>
</event>
<event>
 7    0  0.4712189E-002  0.4489754E+03  0.7546771E-02  0.1028028E+00
         21   -1    0    0  502  501  0.00000000000E+00  0.00000000000E+00  0.33586655121E+03  0.33586655121E+03  0.00000000000E+00 0.  1.
         21   -1    0    0  501  502 -0.00000000000E+00 -0.00000000000E+00 -0.15004391226E+03  0.15004391226E+03  0.00000000000E+00 0.  1.
      99926    2    1    2    0    0 -0.14210854715E-13 -0.35527136788E-14  0.18582263896E+03  0.48591046347E+03  0.44897541733E+03 0.  0.
      99925    2    3    3    0    0 -0.67774025829E+02 -0.12234795778E+02  0.20678510847E+03  0.34158464446E+03  0.26301516960E+03 0.  0.
         25    1    3    3    0    0  0.67774025829E+02  0.12234795778E+02 -0.20962469519E+02  0.14432581901E+03  0.12509000000E+03 0.  0.
         25    1    4    4    0    0 -0.48206107457E+02 -0.37892624694E+02  0.13405382621E+03  0.19333291552E+03  0.12509000000E+03 0.  0.
         25    1    4    4    0    0 -0.19567918372E+02  0.25657828916E+02  0.72731282265E+02  0.14825172894E+03  0.12509000000E+03 0.  0.
<mgrwt>
<rscale>  2 0.44897542E+03</rscale>
<asrwt>0</asrwt>
<pdfrwt beam="1">  1       21 0.49392140E-01 0.44897542E+03</pdfrwt>
<pdfrwt beam="2">  1       21 0.22065281E-01 0.44897542E+03</pdfrwt>
<totfact> 0.69539131E+04</totfact>
</mgrwt>
</event>
<event>
 7    0  0.4712189E-002  0.4606275E+03  0.7546771E-02  0.1024599E+00
         21   -1    0    0  502  501  0.00000000000E+00  0.00000000000E+00  0.27116119861E+03  0.27116119861E+03  0.00000000000E+00 0. -1.
         21   -1    0    0  501  502 -0.00000000000E+00 -0.00000000000E+00 -0.19561951332E+03  0.19561951332E+03  0.00000000000E+00 0. -1.
      99926    2    1    2    0    0  0.00000000000E+00  0.00000000000E+00  0.75541685286E+02  0.46678071192E+03  0.46062749246E+03 0.  0.
      99925    2    3    3    0    0 -0.84602659197E+02 -0.55727851736E+01  0.13097915408E+03  0.30581647079E+03  0.26301997856E+03 0.  0.
         25    1    3    3    0    0  0.84602659197E+02  0.55727851736E+01 -0.55437468797E+02  0.16096424114E+03  0.12509000000E+03 0.  0.
         25    1    4    4    0    0 -0.73207763968E+02 -0.13852566504E+02  0.41574647106E+02  0.15141740219E+03  0.12509000000E+03 0.  0.
         25    1    4    4    0    0 -0.11394895230E+02  0.82797813301E+01  0.89404506978E+02  0.15439906860E+03  0.12509000000E+03 0.  0.
<mgrwt>
<rscale>  2 0.46062749E+03</rscale>
<asrwt>0</asrwt>
<pdfrwt beam="1">  1       21 0.39876647E-01 0.46062749E+03</pdfrwt>
<pdfrwt beam="2">  1       21 0.28767575E-01 0.46062749E+03</pdfrwt>
<totfact> 0.64733435E+04</totfact>
</mgrwt>
</event>
<event>
 7    0  0.4712189E-002  0.4554822E+03  0.7546771E-02  0.1026100E+00
         21   -1    0    0  502  501  0.00000000000E+00  0.00000000000E+00  0.35683245216E+02  0.35683245216E+02  0.00000000000E+00 0.  1.
         21   -1    0    0  501  502 -0.00000000000E+00 -0.00000000000E+00 -0.14535116170E+04  0.14535116170E+04  0.00000000000E+00 0.  1.
      99926    2    1    2    0    0 -0.14210854715E-13  0.00000000000E+00 -0.14178283718E+04  0.14891948622E+04  0.45548221240E+03 0.  0.
      99925    2    3    3    0    0 -0.76191685996E+02  0.51515101561E+02 -0.67308747375E+03  0.72844162232E+03  0.26290962536E+03 0.  0.
         25    1    4    4    0    0 -0.32825065090E+01  0.27626964840E+02 -0.25579216116E+03  0.28609642054E+03  0.12509000000E+03 0.  0.
         25    1    4    4    0    0 -0.72909179487E+02  0.23888136722E+02 -0.41729531258E+03  0.44234520178E+03  0.12509000000E+03 0.  0.
         25    1    3    3    0    0  0.76191685996E+02 -0.51515101561E+02 -0.74474089804E+03  0.76075323990E+03  0.12509000000E+03 0.  0.
<mgrwt>
<rscale>  2 0.45548221E+03</rscale>
<asrwt>0</asrwt>
<pdfrwt beam="1">  1       21 0.52475349E-02 0.45548221E+03</pdfrwt>
<pdfrwt beam="2">  1       21 0.21375176E+00 0.45548221E+03</pdfrwt>
<totfact> 0.23955326E+04</totfact>
</mgrwt>
</event>
<event>
 7    0  0.4712189E-002  0.4531022E+03  0.7546771E-02  0.1026801E+00
         21   -1    0    0  502  501  0.00000000000E+00  0.00000000000E+00  0.27637351625E+02  0.27637351625E+02  0.00000000000E+00 0.  1.
         21   -1    0    0  501  502 -0.00000000000E+00 -0.00000000000E+00 -0.18571026748E+04  0.18571026748E+04  0.00000000000E+00 0.  1.
      99926    2    1    2    0    0 -0.71054273576E-14  0.00000000000E+00 -0.18294653232E+04  0.18847400264E+04  0.45310219433E+03 0.  0.
      99925    2    3    3    0    0  0.60819506411E+02 -0.22230449924E+02 -0.15300812997E+04  0.15538752401E+04  0.26303283562E+03 0.  0.
         25    1    4    4    0    0  0.67666142380E+02 -0.18695801977E+02 -0.71907876458E+03  0.73324621895E+03  0.12509000000E+03 0.  0.
         25    1    4    4    0    0 -0.68466359695E+01 -0.35346479474E+01 -0.81100253515E+03  0.82062902110E+03  0.12509000000E+03 0.  0.
         25    1    3    3    0    0 -0.60819506411E+02  0.22230449924E+02 -0.29938402343E+03  0.33086478636E+03  0.12509000000E+03 0.  0.
<mgrwt>
<rscale>  2 0.45310219E+03</rscale>
<asrwt>0</asrwt>
<pdfrwt beam="1">  1       21 0.40643164E-02 0.45310219E+03</pdfrwt>
<pdfrwt beam="2">  1       21 0.27310334E+00 0.45310219E+03</pdfrwt>
<totfact> 0.15917376E+04</totfact>
</mgrwt>
</event>
<event>
 7    0  0.4712189E-002  0.4668126E+03  0.7546771E-02  0.1022824E+00
         21   -1    0    0  502  501  0.00000000000E+00  0.00000000000E+00  0.31062532660E+02  0.31062532660E+02  0.00000000000E+00 0. -1.
         21   -1    0    0  501  502 -0.00000000000E+00 -0.00000000000E+00 -0.17538334224E+04  0.17538334224E+04  0.00000000000E+00 0. -1.
      99926    2    1    2    0    0  0.00000000000E+00  0.00000000000E+00 -0.17227708897E+04  0.17848959550E+04  0.46681263035E+03 0.  0.
      99925    2    3    3    0    0  0.44371527338E+02  0.90136168673E+02 -0.13517734054E+04  0.13806930323E+04  0.26254246959E+03 0.  0.
         25    1    4    4    0    0  0.32515034580E+02  0.85565373055E+02 -0.78142505661E+03  0.79665004094E+03  0.12509000000E+03 0.  0.
         25    1    4    4    0    0  0.11856492759E+02  0.45707956180E+01 -0.57034834882E+03  0.58404299131E+03  0.12509000000E+03 0.  0.
         25    1    3    3    0    0 -0.44371527338E+02 -0.90136168673E+02 -0.37099748430E+03  0.40420292280E+03  0.12509000000E+03 0.  0.
<mgrwt>
<rscale>  2 0.46681263E+03</rscale>
<asrwt>0</asrwt>
<pdfrwt beam="1">  1       21 0.45680197E-02 0.46681263E+03</pdfrwt>
<pdfrwt beam="2">  1       21 0.25791667E+00 0.46681263E+03</pdfrwt>
<totfact> 0.16030236E+04</totfact>
</mgrwt>
</event>
<event>
 7    0  0.4712189E-002  0.4467971E+03  0.7546771E-02  0.1028681E+00
         21   -1    0    0  502  501  0.00000000000E+00  0.00000000000E+00  0.27858630070E+03  0.27858630070E+03  0.00000000000E+00 0.  1.
         21   -1    0    0  501  502 -0.00000000000E+00 -0.00000000000E+00 -0.17914348263E+03  0.17914348263E+03  0.00000000000E+00 0.  1.
      99926    2    1    2    0    0  0.00000000000E+00  0.00000000000E+00  0.99442818078E+02  0.45772978333E+03  0.44679713571E+03 0.  0.
      99925    2    3    3    0    0 -0.66474951299E+02 -0.77841161972E+02  0.87609763691E+02  0.29566283752E+03  0.26317841315E+03 0.  0.
         25    1    4    4    0    0  0.51854421102E+01 -0.45582961173E+02  0.56355770099E+02  0.14466573915E+03  0.12509000000E+03 0.  0.
         25    1    3    3    0    0  0.66474951299E+02  0.77841161972E+02  0.11833054387E+02  0.16206694581E+03  0.12509000000E+03 0.  0.
         25    1    4    4    0    0 -0.71660393410E+02 -0.32258200799E+02  0.31253993591E+02  0.15099709838E+03  0.12509000000E+03 0.  0.
<mgrwt>
<rscale>  2 0.44679714E+03</rscale>
<asrwt>0</asrwt>
<pdfrwt beam="1">  1       21 0.40968574E-01 0.44679714E+03</pdfrwt>
<pdfrwt beam="2">  1       21 0.26344630E-01 0.44679714E+03</pdfrwt>
<totfact> 0.72994649E+04</totfact>
</mgrwt>
</event>
<event>
 7    0  0.4712189E-002  0.4563942E+03  0.7546771E-02  0.1025832E+00
         21   -1    0    0  502  501  0.00000000000E+00  0.00000000000E+00  0.63046375997E+03  0.63046375997E+03  0.00000000000E+00 0.  1.
         21   -1    0    0  501  502 -0.00000000000E+00 -0.00000000000E+00 -0.82596200955E+02  0.82596200955E+02  0.00000000000E+00 0.  1.
      99926    2    1    2    0    0  0.00000000000E+00  0.00000000000E+00  0.54786755902E+03  0.71305996093E+03  0.45639417794E+03 0.  0.
      99925    2    3    3    0    0 -0.16947757363E+02 -0.99555593654E+02  0.42877790220E+03  0.51298898060E+03  0.26288526413E+03 0.  0.
         25    1    3    3    0    0  0.16947757363E+02  0.99555593654E+02  0.11908965682E+03  0.20007098033E+03  0.12509000000E+03 0.  0.
         25    1    4    4    0    0  0.14996959724E+02 -0.73383567685E+02  0.18146929853E+03  0.23278460262E+03  0.12509000000E+03 0.  0.
         25    1    4    4    0    0 -0.31944717087E+02 -0.26172025969E+02  0.24730860367E+03  0.28020437798E+03  0.12509000000E+03 0.  0.
<mgrwt>
<rscale>  2 0.45639418E+03</rscale>
<asrwt>0</asrwt>
<pdfrwt beam="1">  1       21 0.92715256E-01 0.45639418E+03</pdfrwt>
<pdfrwt beam="2">  1       21 0.12146500E-01 0.45639418E+03</pdfrwt>
<totfact> 0.51631011E+04</totfact>
</mgrwt>
</event>
<event>
 7    0  0.4712189E-002  0.4556278E+03  0.7546771E-02  0.1026057E+00
         21   -1    0    0  502  501  0.00000000000E+00  0.00000000000E+00  0.26573551712E+03  0.26573551712E+03  0.00000000000E+00 0. -1.
         21   -1    0    0  501  502 -0.00000000000E+00 -0.00000000000E+00 -0.19530386107E+03  0.19530386107E+03  0.00000000000E+00 0. -1.
      99926    2    1    2    0    0  0.00000000000E+00 -0.14210854715E-13  0.70431656049E+02  0.46103937819E+03  0.45562779774E+03 0.  0.
      99925    2    3    3    0    0 -0.28539104845E+02  0.85075026770E+02 -0.26706350235E+02  0.27900767477E+03  0.26283038781E+03 0.  0.
         25    1    4    4    0    0 -0.42813363179E+02  0.47836910453E+02  0.14630051695E+02  0.14136088773E+03  0.12509000000E+03 0.  0.
         25    1    4    4    0    0  0.14274258333E+02  0.37238116317E+02 -0.41336401931E+02  0.13764678704E+03  0.12509000000E+03 0.  0.
         25    1    3    3    0    0  0.28539104845E+02 -0.85075026770E+02  0.97138006284E+02  0.18203170342E+03  0.12509000000E+03 0.  0.
<mgrwt>
<rscale>  2 0.45562780E+03</rscale>
<asrwt>0</asrwt>
<pdfrwt beam="1">  1       21 0.39078753E-01 0.45562780E+03</pdfrwt>
<pdfrwt beam="2">  1       21 0.28721156E-01 0.45562780E+03</pdfrwt>
<totfact> 0.67764977E+04</totfact>
</mgrwt>
</event>
<event>
 7    0  0.4712189E-002  0.4491436E+03  0.7546771E-02  0.1027978E+00
         21   -1    0    0  502  501  0.00000000000E+00  0.00000000000E+00  0.96242890056E+02  0.96242890056E+02  0.00000000000E+00 0.  1.
         21   -1    0    0  501  502 -0.00000000000E+00 -0.00000000000E+00 -0.52401256620E+03  0.52401256620E+03  0.00000000000E+00 0.  1.
      99926    2    1    2    0    0  0.00000000000E+00  0.22204460493E-14 -0.42776967615E+03  0.62025545626E+03  0.44914355744E+03 0.  0.
      99925    2    3    3    0    0  0.43685391925E+02 -0.31669517329E+01 -0.40632662296E+03  0.48599542616E+03  0.26300529781E+03 0.  0.
         25    1    4    4    0    0  0.72433382539E+01  0.25510947047E+02 -0.24744395510E+03  0.27853059685E+03  0.12509000000E+03 0.  0.
         25    1    4    4    0    0  0.36442053671E+02 -0.28677898780E+02 -0.15888266786E+03  0.20746482931E+03  0.12509000000E+03 0.  0.
         25    1    3    3    0    0 -0.43685391925E+02  0.31669517329E+01 -0.21443053186E+02  0.13426003009E+03  0.12509000000E+03 0.  0.
<mgrwt>
<rscale>  2 0.44914356E+03</rscale>
<asrwt>0</asrwt>
<pdfrwt beam="1">  1       21 0.14153366E-01 0.44914356E+03</pdfrwt>
<pdfrwt beam="2">  1       21 0.77060671E-01 0.44914356E+03</pdfrwt>
<totfact> 0.60183687E+04</totfact>
</mgrwt>
</event>
<event>
 7    0  0.4712189E-002  0.4509315E+03  0.7546771E-02  0.1027445E+00
         21   -1    0    0  502  501  0.00000000000E+00  0.00000000000E+00  0.33141658290E+03  0.33141658290E+03  0.00000000000E+00 0.  1.
         21   -1    0    0  501  502 -0.00000000000E+00 -0.00000000000E+00 -0.15338639281E+03  0.15338639281E+03  0.00000000000E+00 0.  1.
      99926    2    1    2    0    0  0.00000000000E+00  0.00000000000E+00  0.17803019009E+03  0.48480297571E+03  0.45093145451E+03 0.  0.
      99925    2    3    3    0    0  0.46991706189E+02  0.69257510765E+02  0.36748647000E+02  0.27837428156E+03  0.26293906962E+03 0.  0.
         25    1    4    4    0    0 -0.60727428744E+01  0.43006033084E+01  0.18314004418E+02  0.12664234779E+03  0.12509000000E+03 0.  0.
         25    1    4    4    0    0  0.53064449064E+02  0.64956907457E+02  0.18434642582E+02  0.15173193378E+03  0.12509000000E+03 0.  0.
         25    1    3    3    0    0 -0.46991706189E+02 -0.69257510765E+02  0.14128154309E+03  0.20642869414E+03  0.12509000000E+03 0.  0.
<mgrwt>
<rscale>  2 0.45093145E+03</rscale>
<asrwt>0</asrwt>
<pdfrwt beam="1">  1       21 0.48737733E-01 0.45093145E+03</pdfrwt>
<pdfrwt beam="2">  1       21 0.22556823E-01 0.45093145E+03</pdfrwt>
<totfact> 0.68539208E+04</totfact>
</mgrwt>
</event>
<event>
 7    0  0.4712189E-002  0.4502096E+03  0.7546771E-02  0.1027660E+00
         21   -1    0    0  502  501  0.00000000000E+00  0.00000000000E+00  0.16984221736E+03  0.16984221736E+03  0.00000000000E+00 0. -1.
         21   -1    0    0  501  502 -0.00000000000E+00 -0.00000000000E+00 -0.29834853461E+03  0.29834853461E+03  0.00000000000E+00 0. -1.
      99926    2    1    2    0    0  0.35527136788E-14  0.00000000000E+00 -0.12850631724E+03  0.46819075197E+03  0.45020962524E+03 0.  0.
      99925    2    3    3    0    0  0.31533621346E+02 -0.10311285244E+03 -0.97321738023E+02  0.30012345684E+03  0.26263270748E+03 0.  0.
         25    1    4    4    0    0  0.41524888782E+02 -0.19805332645E+02 -0.45923613647E+02  0.14097181981E+03  0.12509000000E+03 0.  0.
         25    1    3    3    0    0 -0.31533621346E+02  0.10311285244E+03 -0.31184579221E+02  0.16806729514E+03  0.12509000000E+03 0.  0.
         25    1    4    4    0    0 -0.99912674366E+01 -0.83307519794E+02 -0.51398124376E+02  0.15915163703E+03  0.12509000000E+03 0.  0.
<mgrwt>
<rscale>  2 0.45020963E+03</rscale>
<asrwt>0</asrwt>
<pdfrwt beam="1">  1       21 0.24976797E-01 0.45020963E+03</pdfrwt>
<pdfrwt beam="2">  1       21 0.43874785E-01 0.45020963E+03</pdfrwt>
<totfact> 0.70200808E+04</totfact>
</mgrwt>
</event>
<event>
 7    0  0.4712189E-002  0.4548519E+03  0.7546771E-02  0.1026285E+00
         21   -1    0    0  502  501  0.00000000000E+00  0.00000000000E+00  0.36222993542E+03  0.36222993542E+03  0.00000000000E+00 0. -1.
         21   -1    0    0  501  502 -0.00000000000E+00 -0.00000000000E+00 -0.14278929978E+03  0.14278929978E+03  0.00000000000E+00 0. -1.
      99926    2    1    2    0    0  0.71054273576E-14  0.00000000000E+00  0.21944063564E+03  0.50501923520E+03  0.45485188287E+03 0.  0.
      99925    2    3    3    0    0  0.32504351776E+02  0.68669087546E+02  0.23071711690E+03  0.35823148504E+03  0.26330102995E+03 0.  0.
         25    1    3    3    0    0 -0.32504351776E+02 -0.68669087546E+02 -0.11276481258E+02  0.14678775016E+03  0.12509000000E+03 0.  0.
         25    1    4    4    0    0  0.42523602994E+02  0.17494447415E+02  0.14930497313E+03  0.20013444382E+03  0.12509000000E+03 0.  0.
         25    1    4    4    0    0 -0.10019251218E+02  0.51174640130E+02  0.81412143766E+02  0.15809704121E+03  0.12509000000E+03 0.  0.
<mgrwt>
<rscale>  2 0.45485188E+03</rscale>
<asrwt>0</asrwt>
<pdfrwt beam="1">  1       21 0.53269108E-01 0.45485188E+03</pdfrwt>
<pdfrwt beam="2">  1       21 0.20998427E-01 0.45485188E+03</pdfrwt>
<totfact> 0.64995844E+04</totfact>
</mgrwt>
</event>
<event>
 7    0  0.4712189E-002  0.4614661E+03  0.7546771E-02  0.1024357E+00
         21   -1    0    0  502  501  0.00000000000E+00  0.00000000000E+00  0.29694864716E+02  0.29694864716E+02  0.00000000000E+00 0.  1.
         21   -1    0    0  501  502 -0.00000000000E+00 -0.00000000000E+00 -0.17928266698E+04  0.17928266698E+04  0.00000000000E+00 0.  1.
      99926    2    1    2    0    0 -0.71054273576E-14  0.00000000000E+00 -0.17631318051E+04  0.18225215345E+04  0.46146612192E+03 0.  0.
      99925    2    3    3    0    0 -0.37774700266E+02 -0.10920593895E+03 -0.12172313228E+04  0.12506756552E+04  0.26302972479E+03 0.  0.
         25    1    4    4    0    0  0.10802208071E+02 -0.62519823356E+02 -0.72043948594E+03  0.73396592361E+03  0.12509000000E+03 0.  0.
         25    1    3    3    0    0  0.37774700266E+02  0.10920593895E+03 -0.54590048231E+03  0.57184587939E+03  0.12509000000E+03 0.  0.
         25    1    4    4    0    0 -0.48576908337E+02 -0.46686115589E+02 -0.49679183686E+03  0.51670973155E+03  0.12509000000E+03 0.  0.
<mgrwt>
<rscale>  2 0.46146612E+03</rscale>
<asrwt>0</asrwt>
<pdfrwt beam="1">  1       21 0.43668915E-02 0.46146612E+03</pdfrwt>
<pdfrwt beam="2">  1       21 0.26365100E+00 0.46146612E+03</pdfrwt>
<totfact> 0.16011730E+04</totfact>
</mgrwt>
</event>
<event>
 7    0  0.4712189E-002  0.4260082E+03  0.7546771E-02  0.1035128E+00
         21   -1    0    0  502  501  0.00000000000E+00  0.00000000000E+00  0.17526701283E+04  0.17526701283E+04  0.00000000000E+00 0.  1.
         21   -1    0    0  501  502 -0.00000000000E+00 -0.00000000000E+00 -0.25886644677E+02  0.25886644677E+02  0.00000000000E+00 0.  1.
      99926    2    1    2    0    0  0.00000000000E+00  0.00000000000E+00  0.17267834836E+04  0.17785567730E+04  0.42600821047E+03 0.  0.
      99925    2    3    3    0    0 -0.22697551531E+02 -0.67213994199E+02  0.93580635271E+03  0.97461322422E+03  0.26287736150E+03 0.  0.
         25    1    4    4    0    0  0.21291719885E+01 -0.28990087322E+02  0.32473094451E+03  0.34920288223E+03  0.12509000000E+03 0.  0.
         25    1    4    4    0    0 -0.24826723520E+02 -0.38223906878E+02  0.61107540820E+03  0.62541034199E+03  0.12509000000E+03 0.  0.
         25    1    3    3    0    0  0.22697551531E+02  0.67213994199E+02  0.79097713089E+03  0.80394354874E+03  0.12509000000E+03 0.  0.
<mgrwt>
<rscale>  2 0.42600821E+03</rscale>
<asrwt>0</asrwt>
<pdfrwt beam="1">  1       21 0.25774553E+00 0.42600821E+03</pdfrwt>
<pdfrwt beam="2">  1       21 0.38068607E-02 0.42600821E+03</pdfrwt>
<totfact> 0.22283189E+04</totfact>
</mgrwt>
</event>
<event>
 7    0  0.4712189E-002  0.4547372E+03  0.7546771E-02  0.1026319E+00
         21   -1    0    0  502  501  0.00000000000E+00  0.00000000000E+00  0.76399548237E+03  0.76399548237E+03  0.00000000000E+00 0. -1.
         21   -1    0    0  501  502 -0.00000000000E+00 -0.00000000000E+00 -0.67665951114E+02  0.67665951114E+02  0.00000000000E+00 0. -1.
      99926    2    1    2    0    0 -0.35527136788E-14  0.00000000000E+00  0.69632953125E+03  0.83166143348E+03  0.45473720306E+03 0.  0.
      99925    2    3    3    0    0 -0.19531779732E+02  0.12879039783E+02  0.23626379652E+03  0.35431947172E+03  0.26301016408E+03 0.  0.
         25    1    4    4    0    0 -0.29928258108E+02  0.41598596535E+02  0.12596341816E+03  0.18477130373E+03  0.12509000000E+03 0.  0.
         25    1    4    4    0    0  0.10396478376E+02 -0.28719556752E+02  0.11030037837E+03  0.16954816799E+03  0.12509000000E+03 0.  0.
         25    1    3    3    0    0  0.19531779732E+02 -0.12879039783E+02  0.46006573473E+03  0.47734196176E+03  0.12509000000E+03 0.  0.
<mgrwt>
<rscale>  2 0.45473720E+03</rscale>
<asrwt>0</asrwt>
<pdfrwt beam="1">  1       21 0.11235227E+00 0.45473720E+03</pdfrwt>
<pdfrwt beam="2">  1       21 0.99508756E-02 0.45473720E+03</pdfrwt>
<totfact> 0.46366730E+04</totfact>
</mgrwt>
</event>
<event>
 7    0  0.4712189E-002  0.4669546E+03  0.7546771E-02  0.1022783E+00
         21   -1    0    0  502  501  0.00000000000E+00  0.00000000000E+00  0.39476703243E+03  0.39476703243E+03  0.00000000000E+00 0.  1.
         21   -1    0    0  501  502 -0.00000000000E+00 -0.00000000000E+00 -0.13808559784E+03  0.13808559784E+03  0.00000000000E+00 0.  1.
      99926    2    1    2    0    0  0.00000000000E+00  0.00000000000E+00  0.25668143459E+03  0.53285263028E+03  0.46695456603E+03 0.  0.
      99925    2    3    3    0    0 -0.55186037689E+02 -0.66915997794E+02  0.59104992337E+02  0.28343890141E+03  0.26328874111E+03 0.  0.
         25    1    4    4    0    0 -0.61001755952E+02 -0.12717079846E+02  0.17843630330E+02  0.14088591694E+03  0.12509000000E+03 0.  0.
         25    1    3    3    0    0  0.55186037689E+02  0.66915997794E+02  0.19757644225E+03  0.24941372887E+03  0.12509000000E+03 0.  0.
         25    1    4    4    0    0  0.58157182621E+01 -0.54198917948E+02  0.41261362007E+02  0.14255298447E+03  0.12509000000E+03 0.  0.
<mgrwt>
<rscale>  2 0.46695457E+03</rscale>
<asrwt>0</asrwt>
<pdfrwt beam="1">  1       21 0.58053975E-01 0.46695457E+03</pdfrwt>
<pdfrwt beam="2">  1       21 0.20306706E-01 0.46695457E+03</pdfrwt>
<totfact> 0.57380366E+04</totfact>
</mgrwt>
</event>
<event>
 7    0  0.4712189E-002  0.4405039E+03  0.7546771E-02  0.1030592E+00
         21   -1    0    0  502  501  0.00000000000E+00  0.00000000000E+00  0.30553599477E+02  0.30553599477E+02  0.00000000000E+00 0. -1.
         21   -1    0    0  501  502 -0.00000000000E+00 -0.00000000000E+00 -0.15877320280E+04  0.15877320280E+04  0.00000000000E+00 0. -1.
      99926    2    1    2    0    0  0.00000000000E+00  0.00000000000E+00 -0.15571784286E+04  0.16182856275E+04  0.44050393170E+03 0.  0.
      99925    2    3    3    0    0  0.67656459462E+02 -0.40912466242E+02 -0.12122262224E+04  0.12429314494E+04  0.26293525287E+03 0.  0.
         25    1    4    4    0    0 -0.43601953318E+01 -0.17389580878E+02 -0.63635692138E+03  0.64878274354E+03  0.12509000000E+03 0.  0.
         25    1    3    3    0    0 -0.67656459462E+02  0.40912466242E+02 -0.34495220613E+03  0.37535417810E+03  0.12509000000E+03 0.  0.
         25    1    4    4    0    0  0.72016654794E+02 -0.23522885364E+02 -0.57586930106E+03  0.59414870588E+03  0.12509000000E+03 0.  0.
<mgrwt>
<rscale>  2 0.44050393E+03</rscale>
<asrwt>0</asrwt>
<pdfrwt beam="1">  1       21 0.44931778E-02 0.44050393E+03</pdfrwt>
<pdfrwt beam="2">  1       21 0.23348993E+00 0.44050393E+03</pdfrwt>
<totfact> 0.23562431E+04</totfact>
</mgrwt>
</event>
<event>
 7    0  0.4712189E-002  0.4566526E+03  0.7546771E-02  0.1025757E+00
         21   -1    0    0  502  501  0.00000000000E+00  0.00000000000E+00  0.11886413761E+03  0.11886413761E+03  0.00000000000E+00 0.  1.
         21   -1    0    0  501  502 -0.00000000000E+00 -0.00000000000E+00 -0.43859230258E+03  0.43859230258E+03  0.00000000000E+00 0.  1.
      99926    2    1    2    0    0 -0.71054273576E-14  0.00000000000E+00 -0.31972816497E+03  0.55745644018E+03  0.45665258482E+03 0.  0.
      99925    2    3    3    0    0  0.63866703215E+02 -0.94876612491E+02 -0.18983222124E+03  0.34391255319E+03  0.26298107278E+03 0.  0.
         25    1    4    4    0    0  0.36818388154E+02 -0.58627273519E+01 -0.95037529432E+02  0.16146084782E+03  0.12509000000E+03 0.  0.
         25    1    4    4    0    0  0.27048315061E+02 -0.89013885139E+02 -0.94794691810E+02  0.18245170536E+03  0.12509000000E+03 0.  0.
         25    1    3    3    0    0 -0.63866703215E+02  0.94876612491E+02 -0.12989594373E+03  0.21354388700E+03  0.12509000000E+03 0.  0.
<mgrwt>
<rscale>  2 0.45665258E+03</rscale>
<asrwt>0</asrwt>
<pdfrwt beam="1">  1       21 0.17480021E-01 0.45665258E+03</pdfrwt>
<pdfrwt beam="2">  1       21 0.64498866E-01 0.45665258E+03</pdfrwt>
<totfact> 0.60580616E+04</totfact>
</mgrwt>
</event>
<event>
 7    0  0.4712189E-002  0.4523696E+03  0.7546771E-02  0.1027018E+00
         21   -1    0    0  502  501  0.00000000000E+00  0.00000000000E+00  0.84779200048E+02  0.84779200048E+02  0.00000000000E+00 0. -1.
         21   -1    0    0  501  502 -0.00000000000E+00 -0.00000000000E+00 -0.60344472101E+03  0.60344472101E+03  0.00000000000E+00 0. -1.
      99926    2    1    2    0    0  0.44408920985E-15  0.00000000000E+00 -0.51866552096E+03  0.68822392106E+03  0.45236958660E+03 0.  0.
      99925    2    3    3    0    0 -0.28594106072E+01  0.29280155556E+02 -0.16480701613E+03  0.31175499368E+03  0.26299110209E+03 0.  0.
         25    1    3    3    0    0  0.28594106072E+01 -0.29280155556E+02 -0.35385850483E+03  0.37646892738E+03  0.12509000000E+03 0.  0.
         25    1    4    4    0    0  0.78860789442E+01  0.40646672134E+02 -0.11924170907E+03  0.17770885031E+03  0.12509000000E+03 0.  0.
         25    1    4    4    0    0 -0.10745489551E+02 -0.11366516578E+02 -0.45565307057E+02  0.13404614337E+03  0.12509000000E+03 0.  0.
<mgrwt>
<rscale>  2 0.45236959E+03</rscale>
<asrwt>0</asrwt>
<pdfrwt beam="1">  1       21 0.12467530E-01 0.45236959E+03</pdfrwt>
<pdfrwt beam="2">  1       21 0.88741870E-01 0.45236959E+03</pdfrwt>
<totfact> 0.54670456E+04</totfact>
</mgrwt>
</event>
<event>
 7    0  0.4712189E-002  0.4215697E+03  0.7546771E-02  0.1036557E+00
         21   -1    0    0  502  501  0.00000000000E+00  0.00000000000E+00  0.14031835808E+03  0.14031835808E+03  0.00000000000E+00 0.  1.
         21   -1    0    0  501  502 -0.00000000000E+00 -0.00000000000E+00 -0.31663890501E+03  0.31663890501E+03  0.00000000000E+00 0.  1.
      99926    2    1    2    0    0  0.00000000000E+00 -0.22204460493E-15 -0.17632054693E+03  0.45695726309E+03  0.42156969177E+03 0.  0.
      99925    2    3    3    0    0 -0.17760349790E+02 -0.17373549356E+01 -0.19669419428E+03  0.32896881817E+03  0.26308445191E+03 0.  0.
         25    1    4    4    0    0 -0.48608759130E+02  0.46117507588E+01 -0.10951959562E+03  0.17328049409E+03  0.12509000000E+03 0.  0.
         25    1    4    4    0    0  0.30848409340E+02 -0.63491056944E+01 -0.87174598662E+02  0.15568832408E+03  0.12509000000E+03 0.  0.
         25    1    3    3    0    0  0.17760349790E+02  0.17373549356E+01  0.20373647349E+02  0.12798844492E+03  0.12509000000E+03 0.  0.
<mgrwt>
<rscale>  2 0.42156969E+03</rscale>
<asrwt>0</asrwt>
<pdfrwt beam="1">  1       21 0.20635053E-01 0.42156969E+03</pdfrwt>
<pdfrwt beam="2">  1       21 0.46564544E-01 0.42156969E+03</pdfrwt>
<totfact> 0.90037866E+04</totfact>
</mgrwt>
</event>
<event>
 7    0  0.4712189E-002  0.4556085E+03  0.7546771E-02  0.1026063E+00
         21   -1    0    0  502  501  0.00000000000E+00  0.00000000000E+00  0.94077215957E+03  0.94077215957E+03  0.00000000000E+00 0. -1.
         21   -1    0    0  501  502 -0.00000000000E+00 -0.00000000000E+00 -0.55161904768E+02  0.55161904768E+02  0.00000000000E+00 0. -1.
      99926    2    1    2    0    0  0.00000000000E+00  0.53290705182E-14  0.88561025481E+03  0.99593406434E+03  0.45560853493E+03 0.  0.
      99925    2    3    3    0    0 -0.80871524060E+02  0.25355285021E+01  0.73170027245E+03  0.78173223644E+03  0.26300830495E+03 0.  0.
         25    1    4    4    0    0 -0.61512046279E+02 -0.33888291561E+02  0.38250644587E+03  0.40852275013E+03  0.12509000000E+03 0.  0.
         25    1    4    4    0    0 -0.19359477781E+02  0.36423820063E+02  0.34919382658E+03  0.37320948630E+03  0.12509000000E+03 0.  0.
         25    1    3    3    0    0  0.80871524060E+02 -0.25355285021E+01  0.15390998236E+03  0.21420182790E+03  0.12509000000E+03 0.  0.
<mgrwt>
<rscale>  2 0.45560853E+03</rscale>
<asrwt>0</asrwt>
<pdfrwt beam="1">  1       21 0.13834884E+00 0.45560853E+03</pdfrwt>
<pdfrwt beam="2">  1       21 0.81120454E-02 0.45560853E+03</pdfrwt>
<totfact> 0.39138960E+04</totfact>
</mgrwt>
</event>
<event>
 7    0  0.4712189E-002  0.4525162E+03  0.7546771E-02  0.1026974E+00
         21   -1    0    0  502  501  0.00000000000E+00  0.00000000000E+00  0.11080423832E+03  0.11080423832E+03  0.00000000000E+00 0.  1.
         21   -1    0    0  501  502 -0.00000000000E+00 -0.00000000000E+00 -0.46201057507E+03  0.46201057507E+03  0.00000000000E+00 0.  1.
      99926    2    1    2    0    0  0.00000000000E+00  0.00000000000E+00 -0.35120633675E+03  0.57281481339E+03  0.45251620907E+03 0.  0.
      99925    2    3    3    0    0 -0.82502257014E+02  0.73797625576E+02 -0.22960605767E+03  0.36620685632E+03  0.26293688966E+03 0.  0.
         25    1    4    4    0    0 -0.46173190591E+02 -0.96374091177E+00 -0.87821998291E+02  0.15966559996E+03  0.12509000000E+03 0.  0.
         25    1    4    4    0    0 -0.36329066423E+02  0.74761366488E+02 -0.14178405938E+03  0.20654125637E+03  0.12509000000E+03 0.  0.
         25    1    3    3    0    0  0.82502257014E+02 -0.73797625576E+02 -0.12160027907E+03  0.20660795707E+03  0.12509000000E+03 0.  0.
<mgrwt>
<rscale>  2 0.45251621E+03</rscale>
<asrwt>0</asrwt>
<pdfrwt beam="1">  1       21 0.16294741E-01 0.45251621E+03</pdfrwt>
<pdfrwt beam="2">  1       21 0.67942732E-01 0.45251621E+03</pdfrwt>
<totfact> 0.61584205E+04</totfact>
</mgrwt>
</event>
<event>
 7    0  0.4712189E-002  0.4517977E+03  0.7546771E-02  0.1027187E+00
         21   -1    0    0  502  501  0.00000000000E+00  0.00000000000E+00  0.58916164707E+02  0.58916164707E+02  0.00000000000E+00 0. -1.
         21   -1    0    0  501  502 -0.00000000000E+00 -0.00000000000E+00 -0.86615109676E+03  0.86615109676E+03  0.00000000000E+00 0. -1.
      99926    2    1    2    0    0  0.00000000000E+00  0.00000000000E+00 -0.80723493205E+03  0.92506726147E+03  0.45179774536E+03 0.  0.
      99925    2    3    3    0    0 -0.62059490838E+02  0.35313168171E+02 -0.68120778209E+03  0.73368086990E+03  0.26295470375E+03 0.  0.
         25    1    4    4    0    0 -0.11499675475E+02  0.38341335506E+02 -0.25848844237E+03  0.28994151735E+03  0.12509000000E+03 0.  0.
         25    1    4    4    0    0 -0.50559815363E+02 -0.30281673353E+01 -0.42271933973E+03  0.44373935256E+03  0.12509000000E+03 0.  0.
         25    1    3    3    0    0  0.62059490838E+02 -0.35313168171E+02 -0.12602714996E+03  0.19138639156E+03  0.12509000000E+03 0.  0.
<mgrwt>
<rscale>  2 0.45179775E+03</rscale>
<asrwt>0</asrwt>
<pdfrwt beam="1">  1       21 0.86641425E-02 0.45179775E+03</pdfrwt>
<pdfrwt beam="2">  1       21 0.12737515E+00 0.45179775E+03</pdfrwt>
<totfact> 0.43240249E+04</totfact>
</mgrwt>
</event>
<event>
 7    0  0.4712189E-002  0.4553009E+03  0.7546771E-02  0.1026153E+00
         21   -1    0    0  502  501  0.00000000000E+00  0.00000000000E+00  0.25402200693E+03  0.25402200693E+03  0.00000000000E+00 0.  1.
         21   -1    0    0  501  502 -0.00000000000E+00 -0.00000000000E+00 -0.20401668517E+03  0.20401668517E+03  0.00000000000E+00 0.  1.
      99926    2    1    2    0    0  0.35527136788E-14  0.00000000000E+00  0.50005321758E+02  0.45803869210E+03  0.45530090189E+03 0.  0.
      99925    2    3    3    0    0 -0.44162118601E+01 -0.11151276141E+03  0.53511604369E+02  0.29036519687E+03  0.26266681722E+03 0.  0.
         25    1    3    3    0    0  0.44162118601E+01  0.11151276141E+03 -0.35062826111E+01  0.16767349523E+03  0.12509000000E+03 0.  0.
         25    1    4    4    0    0 -0.40945824400E+02 -0.47226593386E+02  0.20218955102E+02  0.14129128035E+03  0.12509000000E+03 0.  0.
         25    1    4    4    0    0  0.36529612540E+02 -0.64286168025E+02  0.33292649267E+02  0.14907391652E+03  0.12509000000E+03 0.  0.
<mgrwt>
<rscale>  2 0.45530090E+03</rscale>
<asrwt>0</asrwt>
<pdfrwt beam="1">  1       21 0.37356178E-01 0.45530090E+03</pdfrwt>
<pdfrwt beam="2">  1       21 0.30002453E-01 0.45530090E+03</pdfrwt>
<totfact> 0.68159917E+04</totfact>
</mgrwt>
</event>
<event>
 7    0  0.4712189E-002  0.4562373E+03  0.7546771E-02  0.1025878E+00
         21   -1    0    0  502  501  0.00000000000E+00  0.00000000000E+00  0.30654628412E+03  0.30654628412E+03  0.00000000000E+00 0.  1.
         21   -1    0    0  501  502 -0.00000000000E+00 -0.00000000000E+00 -0.16975618416E+03  0.16975618416E+03  0.00000000000E+00 0.  1.
      99926    2    1    2    0    0 -0.26645352591E-14  0.00000000000E+00  0.13679009996E+03  0.47630246828E+03  0.45623733938E+03 0.  0.
      99925    2    3    3    0    0 -0.52064539863E+01 -0.11319090101E+03  0.69301320279E+02  0.29452917344E+03  0.26287919997E+03 0.  0.
         25    1    4    4    0    0  0.22871805551E+02 -0.25190271135E+02  0.44527439655E+02  0.13706885216E+03  0.12509000000E+03 0.  0.
         25    1    4    4    0    0 -0.28078259537E+02 -0.88000629876E+02  0.24773880625E+02  0.15746032128E+03  0.12509000000E+03 0.  0.
         25    1    3    3    0    0  0.52064539863E+01  0.11319090101E+03  0.67488779679E+02  0.18177329484E+03  0.12509000000E+03 0.  0.
<mgrwt>
<rscale>  2 0.45623734E+03</rscale>
<asrwt>0</asrwt>
<pdfrwt beam="1">  1       21 0.45080336E-01 0.45623734E+03</pdfrwt>
<pdfrwt beam="2">  1       21 0.24964145E-01 0.45623734E+03</pdfrwt>
<totfact> 0.66316656E+04</totfact>
</mgrwt>
</event>
<event>
 7    0  0.4712189E-002  0.4618475E+03  0.7546771E-02  0.1024247E+00
         21   -1    0    0  502  501  0.00000000000E+00  0.00000000000E+00  0.23684306373E+04  0.23684306373E+04  0.00000000000E+00 0. -1.
         21   -1    0    0  501  502 -0.00000000000E+00 -0.00000000000E+00 -0.22515234349E+02  0.22515234349E+02  0.00000000000E+00 0. -1.
      99926    2    1    2    0    0 -0.35527136788E-14  0.14210854715E-13  0.23459154029E+04  0.23909458716E+04  0.46184746762E+03 0.  0.
      99925    2    3    3    0    0 -0.30198816260E+02  0.11271252155E+03  0.15984355876E+04  0.16241410311E+04  0.26310013342E+03 0.  0.
         25    1    3    3    0    0  0.30198816260E+02 -0.11271252155E+03  0.74747981532E+03  0.76680484051E+03  0.12509000000E+03 0.  0.
         25    1    4    4    0    0 -0.50940068097E+02  0.44391916997E+02  0.70830261551E+03  0.72243036763E+03  0.12509000000E+03 0.  0.
         25    1    4    4    0    0  0.20741251837E+02  0.68320604553E+02  0.89013297207E+03  0.90171066347E+03  0.12509000000E+03 0.  0.
<mgrwt>
<rscale>  2 0.46184747E+03</rscale>
<asrwt>0</asrwt>
<pdfrwt beam="1">  1       21 0.34829845E+00 0.46184747E+03</pdfrwt>
<pdfrwt beam="2">  1       21 0.33110655E-02 0.46184747E+03</pdfrwt>
<totfact> 0.78848370E+03</totfact>
</mgrwt>
</event>
<event>
 7    0  0.4712189E-002  0.4578095E+03  0.7546771E-02  0.1025418E+00
         21   -1    0    0  502  501  0.00000000000E+00  0.00000000000E+00  0.39599107448E+03  0.39599107448E+03  0.00000000000E+00 0. -1.
         21   -1    0    0  501  502 -0.00000000000E+00 -0.00000000000E+00 -0.13231962708E+03  0.13231962708E+03  0.00000000000E+00 0. -1.
      99926    2    1    2    0    0 -0.14210854715E-13  0.71054273576E-14  0.26367144739E+03  0.52831070156E+03  0.45780952940E+03 0.  0.
      99925    2    3    3    0    0 -0.80948970737E+02  0.56721388050E+02  0.95803430815E+02  0.29679994411E+03  0.26294839368E+03 0.  0.
         25    1    4    4    0    0 -0.32998724919E+01  0.40117288465E+02  0.59518380188E+02  0.14425751860E+03  0.12509000000E+03 0.  0.
         25    1    3    3    0    0  0.80948970737E+02 -0.56721388050E+02  0.16786801658E+03  0.23151075745E+03  0.12509000000E+03 0.  0.
         25    1    4    4    0    0 -0.77649098245E+02  0.16604099586E+02  0.36285050627E+02  0.15254242551E+03  0.12509000000E+03 0.  0.
<mgrwt>
<rscale>  2 0.45780953E+03</rscale>
<asrwt>0</asrwt>
<pdfrwt beam="1">  1       21 0.58233981E-01 0.45780953E+03</pdfrwt>
<pdfrwt beam="2">  1       21 0.19458769E-01 0.45780953E+03</pdfrwt>
<totfact> 0.61930272E+04</totfact>
</mgrwt>
</event>
<event>
 7    0  0.4712189E-002  0.4567338E+03  0.7546771E-02  0.1025733E+00
         21   -1    0    0  502  501  0.00000000000E+00  0.00000000000E+00  0.13019633886E+04  0.13019633886E+04  0.00000000000E+00 0. -1.
         21   -1    0    0  501  502 -0.00000000000E+00 -0.00000000000E+00 -0.40056002161E+02  0.40056002161E+02  0.00000000000E+00 0. -1.
      99926    2    1    2    0    0  0.71054273576E-14 -0.14210854715E-13  0.12619073864E+04  0.13420193907E+04  0.45673383193E+03 0.  0.
      99925    2    3    3    0    0 -0.43948884845E+02  0.10524752848E+03  0.82922840703E+03  0.87740433068E+03  0.26307805256E+03 0.  0.
         25    1    3    3    0    0  0.43948884845E+02 -0.10524752848E+03  0.43267897938E+03  0.46461506005E+03  0.12509000000E+03 0.  0.
         25    1    4    4    0    0 -0.36756084820E+02  0.33132371711E+02  0.29989291239E+03  0.32868226424E+03  0.12509000000E+03 0.  0.
         25    1    4    4    0    0 -0.71928000251E+01  0.72115156770E+02  0.52933549465E+03  0.54872206644E+03  0.12509000000E+03 0.  0.
<mgrwt>
<rscale>  2 0.45673383E+03</rscale>
<asrwt>0</asrwt>
<pdfrwt beam="1">  1       21 0.19146518E+00 0.45673383E+03</pdfrwt>
<pdfrwt beam="2">  1       21 0.58905894E-02 0.45673383E+03</pdfrwt>
<totfact> 0.27545225E+04</totfact>
</mgrwt>
</event>
<event>
 7    0  0.4712189E-002  0.4503776E+03  0.7546771E-02  0.1027610E+00
         21   -1    0    0  502  501  0.00000000000E+00  0.00000000000E+00  0.32102803402E+03  0.32102803402E+03  0.00000000000E+00 0. -1.
         21   -1    0    0  501  502 -0.00000000000E+00 -0.00000000000E+00 -0.15796126444E+03  0.15796126444E+03  0.00000000000E+00 0. -1.
      99926    2    1    2    0    0  0.00000000000E+00  0.00000000000E+00  0.16306676958E+03  0.47898929846E+03  0.45037759347E+03 0.  0.
      99925    2    3    3    0    0 -0.32373646420E+02  0.95017750581E+02  0.60823381852E+02  0.28878508099E+03  0.26385775205E+03 0.  0.
         25    1    4    4    0    0  0.17572371262E+02  0.39456285451E+02  0.53977671714E+02  0.14292195016E+03  0.12509000000E+03 0.  0.
         25    1    4    4    0    0 -0.49946017682E+02  0.55561465130E+02  0.68457101376E+01  0.14586313083E+03  0.12509000000E+03 0.  0.
         25    1    3    3    0    0  0.32373646420E+02 -0.95017750581E+02  0.10224338773E+03  0.19020421747E+03  0.12509000000E+03 0.  0.
<mgrwt>
<rscale>  2 0.45037759E+03</rscale>
<asrwt>0</asrwt>
<pdfrwt beam="1">  1       21 0.47210005E-01 0.45037759E+03</pdfrwt>
<pdfrwt beam="2">  1       21 0.23229598E-01 0.45037759E+03</pdfrwt>
<totfact> 0.69281106E+04</totfact>
</mgrwt>
</event>
<event>
 7    0  0.4712189E-002  0.4544496E+03  0.7546771E-02  0.1026403E+00
         21   -1    0    0  502  501  0.00000000000E+00  0.00000000000E+00  0.12475636811E+03  0.12475636811E+03  0.00000000000E+00 0.  1.
         21   -1    0    0  501  502 -0.00000000000E+00 -0.00000000000E+00 -0.41385559092E+03  0.41385559092E+03  0.00000000000E+00 0.  1.
      99926    2    1    2    0    0  0.71054273576E-14  0.00000000000E+00 -0.28909922281E+03  0.53861195903E+03  0.45444964714E+03 0.  0.
      99925    2    3    3    0    0  0.20593625009E+02  0.20813596211E+02 -0.31084795617E+03  0.40831300017E+03  0.26312687257E+03 0.  0.
         25    1    4    4    0    0  0.45893568284E+02  0.29541744647E+02 -0.17094831751E+03  0.21874590201E+03  0.12509000000E+03 0.  0.
         25    1    3    3    0    0 -0.20593625009E+02 -0.20813596211E+02  0.21748733364E+02  0.13029895886E+03  0.12509000000E+03 0.  0.
         25    1    4    4    0    0 -0.25299943276E+02 -0.87281484363E+01 -0.13989963866E+03  0.18956709815E+03  0.12509000000E+03 0.  0.
<mgrwt>
<rscale>  2 0.45444965E+03</rscale>
<asrwt>0</asrwt>
<pdfrwt beam="1">  1       21 0.18346525E-01 0.45444965E+03</pdfrwt>
<pdfrwt beam="2">  1       21 0.60861116E-01 0.45444965E+03</pdfrwt>
<totfact> 0.62898889E+04</totfact>
</mgrwt>
</event>
<event>
 7    0  0.4712189E-002  0.4717208E+03  0.7546771E-02  0.1021436E+00
         21   -1    0    0  502  501  0.00000000000E+00  0.00000000000E+00  0.11284411326E+03  0.11284411326E+03  0.00000000000E+00 0. -1.
         21   -1    0    0  501  502 -0.00000000000E+00 -0.00000000000E+00 -0.49298219409E+03  0.49298219409E+03  0.00000000000E+00 0. -1.
      99926    2    1    2    0    0  0.00000000000E+00  0.00000000000E+00 -0.38013808084E+03  0.60582630735E+03  0.47172084349E+03 0.  0.
      99925    2    3    3    0    0 -0.72691116505E+02 -0.46403875456E+02 -0.35758936552E+03  0.45222529584E+03  0.26305939593E+03 0.  0.
         25    1    4    4    0    0 -0.10566074376E+02 -0.24943482132E+02 -0.11808041297E+03  0.17413877011E+03  0.12509000000E+03 0.  0.
         25    1    3    3    0    0  0.72691116505E+02  0.46403875456E+02 -0.22548715318E+02  0.15360101152E+03  0.12509000000E+03 0.  0.
         25    1    4    4    0    0 -0.62125042128E+02 -0.21460393324E+02 -0.23950895255E+03  0.27808652573E+03  0.12509000000E+03 0.  0.
<mgrwt>
<rscale>  2 0.47172084E+03</rscale>
<asrwt>0</asrwt>
<pdfrwt beam="1">  1       21 0.16594723E-01 0.47172084E+03</pdfrwt>
<pdfrwt beam="2">  1       21 0.72497380E-01 0.47172084E+03</pdfrwt>
<totfact> 0.51212791E+04</totfact>
</mgrwt>
</event>
<event>
 7    0  0.4712189E-002  0.4560190E+03  0.7546771E-02  0.1025942E+00
         21   -1    0    0  502  501  0.00000000000E+00  0.00000000000E+00  0.71324907843E+02  0.71324907843E+02  0.00000000000E+00 0. -1.
         21   -1    0    0  501  502 -0.00000000000E+00 -0.00000000000E+00 -0.72889439998E+03  0.72889439998E+03  0.00000000000E+00 0. -1.
      99926    2    1    2    0    0  0.71054273576E-14  0.00000000000E+00 -0.65756949214E+03  0.80021930782E+03  0.45601897288E+03 0.  0.
      99925    2    3    3    0    0  0.55488818362E+02 -0.95687788567E+02 -0.35883029596E+03  0.45797995112E+03  0.26220467670E+03 0.  0.
         25    1    4    4    0    0  0.29479751258E+01 -0.62022760953E+02 -0.13601556130E+03  0.19494423420E+03  0.12509000000E+03 0.  0.
         25    1    4    4    0    0  0.52540843236E+02 -0.33665027614E+02 -0.22281473466E+03  0.26303571691E+03  0.12509000000E+03 0.  0.
         25    1    3    3    0    0 -0.55488818362E+02  0.95687788567E+02 -0.29873919618E+03  0.34223935671E+03  0.12509000000E+03 0.  0.
<mgrwt>
<rscale>  2 0.45601897E+03</rscale>
<asrwt>0</asrwt>
<pdfrwt beam="1">  1       21 0.10488957E-01 0.45601897E+03</pdfrwt>
<pdfrwt beam="2">  1       21 0.10719035E+00 0.45601897E+03</pdfrwt>
<totfact> 0.47374228E+04</totfact>
</mgrwt>
</event>
<event>
 7    0  0.4712189E-002  0.4570217E+03  0.7546771E-02  0.1025649E+00
         21   -1    0    0  502  501  0.00000000000E+00  0.00000000000E+00  0.79914181455E+02  0.79914181455E+02  0.00000000000E+00 0. -1.
         21   -1    0    0  501  502 -0.00000000000E+00 -0.00000000000E+00 -0.65341603484E+03  0.65341603484E+03  0.00000000000E+00 0. -1.
      99926    2    1    2    0    0  0.00000000000E+00  0.00000000000E+00 -0.57350185338E+03  0.73333021629E+03  0.45702169565E+03 0.  0.
      99925    2    3    3    0    0  0.97374406446E+02  0.20938736355E+02 -0.45242941958E+03  0.53276539376E+03  0.26310906365E+03 0.  0.
         25    1    4    4    0    0  0.80715507420E+02  0.37761867059E+02 -0.26203293501E+03  0.30372638817E+03  0.12509000000E+03 0.  0.
         25    1    3    3    0    0 -0.97374406446E+02 -0.20938736355E+02 -0.12107243380E+03  0.20056482253E+03  0.12509000000E+03 0.  0.
         25    1    4    4    0    0  0.16658899026E+02 -0.16823130704E+02 -0.19039648457E+03  0.22903900559E+03  0.12509000000E+03 0.  0.
<mgrwt>
<rscale>  2 0.45702170E+03</rscale>
<asrwt>0</asrwt>
<pdfrwt beam="1">  1       21 0.11752086E-01 0.45702170E+03</pdfrwt>
<pdfrwt beam="2">  1       21 0.96090593E-01 0.45702170E+03</pdfrwt>
<totfact> 0.50325670E+04</totfact>
</mgrwt>
</event>
<event>
 7    0  0.4712189E-002  0.4505166E+03  0.7546771E-02  0.1027568E+00
         21   -1    0    0  502  501  0.00000000000E+00  0.00000000000E+00  0.21721173932E+03  0.21721173932E+03  0.00000000000E+00 0.  1.
         21   -1    0    0  501  502 -0.00000000000E+00 -0.00000000000E+00 -0.23360295533E+03  0.23360295533E+03  0.00000000000E+00 0.  1.
      99926    2    1    2    0    0  0.00000000000E+00  0.00000000000E+00 -0.16391216017E+02  0.45081469465E+03  0.45051661118E+03 0.  0.
      99925    2    3    3    0    0  0.84209028798E+02  0.46733810077E+02 -0.61149348888E+02  0.28672323207E+03  0.26305086847E+03 0.  0.
         25    1    3    3    0    0 -0.84209028798E+02 -0.46733810077E+02  0.44758132871E+02  0.16409146259E+03  0.12509000000E+03 0.  0.
         25    1    4    4    0    0  0.63572403551E+02  0.24806627330E+02 -0.67981107836E+02  0.15787893582E+03  0.12509000000E+03 0.  0.
         25    1    4    4    0    0  0.20636625247E+02  0.21927182747E+02  0.68317589483E+01  0.12884429625E+03  0.12509000000E+03 0.  0.
<mgrwt>
<rscale>  2 0.45051661E+03</rscale>
<asrwt>0</asrwt>
<pdfrwt beam="1">  1       21 0.31942903E-01 0.45051661E+03</pdfrwt>
<pdfrwt beam="2">  1       21 0.34353376E-01 0.45051661E+03</pdfrwt>
<totfact> 0.71372730E+04</totfact>
</mgrwt>
</event>
<event>
 7    0  0.4712189E-002  0.4454488E+03  0.7546771E-02  0.1029088E+00
         21   -1    0    0  502  501  0.00000000000E+00  0.00000000000E+00  0.76835520488E+02  0.76835520488E+02  0.00000000000E+00 0.  1.
         21   -1    0    0  501  502 -0.00000000000E+00 -0.00000000000E+00 -0.64561494258E+03  0.64561494258E+03  0.00000000000E+00 0.  1.
      99926    2    1    2    0    0  0.35527136788E-14  0.00000000000E+00 -0.56877942210E+03  0.72245046307E+03  0.44544880805E+03 0.  0.
      99925    2    3    3    0    0 -0.20632642729E+02  0.61768147502E+02 -0.23001517648E+03  0.35550396534E+03  0.26312559352E+03 0.  0.
         25    1    4    4    0    0 -0.32932157984E+02  0.29050655086E+02 -0.16055297710E+03  0.20821439467E+03  0.12509000000E+03 0.  0.
         25    1    3    3    0    0  0.20632642729E+02 -0.61768147502E+02 -0.33876424562E+03  0.36694649774E+03  0.12509000000E+03 0.  0.
         25    1    4    4    0    0  0.12299515255E+02  0.32717492416E+02 -0.69462199379E+02  0.14728957067E+03  0.12509000000E+03 0.  0.
<mgrwt>
<rscale>  2 0.44544881E+03</rscale>
<asrwt>0</asrwt>
<pdfrwt beam="1">  1       21 0.11299341E-01 0.44544881E+03</pdfrwt>
<pdfrwt beam="2">  1       21 0.94943372E-01 0.44544881E+03</pdfrwt>
<totfact> 0.55774119E+04</totfact>
</mgrwt>
</event>
<event>
 7    0  0.4712189E-002  0.4395765E+03  0.7546771E-02  0.1030877E+00
         21   -1    0    0  502  501  0.00000000000E+00  0.00000000000E+00  0.10444932407E+03  0.10444932407E+03  0.00000000000E+00 0.  1.
         21   -1    0    0  501  502 -0.00000000000E+00 -0.00000000000E+00 -0.46249102683E+03  0.46249102683E+03  0.00000000000E+00 0.  1.
      99926    2    1    2    0    0  0.00000000000E+00 -0.17763568394E-14 -0.35804170276E+03  0.56694035090E+03  0.43957650138E+03 0.  0.
      99925    2    3    3    0    0  0.58788893313E+02 -0.95877805160E+01 -0.32898617251E+03  0.42537838055E+03  0.26299582777E+03 0.  0.
         25    1    4    4    0    0 -0.23188285732E+01 -0.30586991393E+02 -0.16194580152E+03  0.20691759649E+03  0.12509000000E+03 0.  0.
         25    1    3    3    0    0 -0.58788893313E+02  0.95877805160E+01 -0.29055530257E+02  0.14156197035E+03  0.12509000000E+03 0.  0.
         25    1    4    4    0    0  0.61107721886E+02  0.20999210877E+02 -0.16704037098E+03  0.21846078406E+03  0.12509000000E+03 0.  0.
<mgrwt>
<rscale>  2 0.43957650E+03</rscale>
<asrwt>0</asrwt>
<pdfrwt beam="1">  1       21 0.15360194E-01 0.43957650E+03</pdfrwt>
<pdfrwt beam="2">  1       21 0.68013388E-01 0.43957650E+03</pdfrwt>
<totfact> 0.68773090E+04</totfact>
</mgrwt>
</event>
<event>
 7    0  0.4712189E-002  0.4569532E+03  0.7546771E-02  0.1025669E+00
         21   -1    0    0  502  501  0.00000000000E+00  0.00000000000E+00  0.14821333779E+04  0.14821333779E+04  0.00000000000E+00 0. -1.
         21   -1    0    0  501  502 -0.00000000000E+00 -0.00000000000E+00 -0.35220546538E+02  0.35220546538E+02  0.00000000000E+00 0. -1.
      99926    2    1    2    0    0  0.00000000000E+00  0.00000000000E+00  0.14469128314E+04  0.15173539245E+04  0.45695316002E+03 0.  0.
      99925    2    3    3    0    0 -0.78116103785E+02  0.71579093032E+02  0.10552343236E+04  0.10927538140E+04  0.26337374225E+03 0.  0.
         25    1    4    4    0    0 -0.90489056036E+01  0.63542862692E+02  0.54207089724E+03  0.56000709265E+03  0.12509000000E+03 0.  0.
         25    1    3    3    0    0  0.78116103785E+02 -0.71579093032E+02  0.39167850775E+03  0.42460011041E+03  0.12509000000E+03 0.  0.
         25    1    4    4    0    0 -0.69067198181E+02  0.80362303404E+01  0.51316342640E+03  0.53274672139E+03  0.12509000000E+03 0.  0.
<mgrwt>
<rscale>  2 0.45695316E+03</rscale>
<asrwt>0</asrwt>
<pdfrwt beam="1">  1       21 0.21796075E+00 0.45695316E+03</pdfrwt>
<pdfrwt beam="2">  1       21 0.51794931E-02 0.45695316E+03</pdfrwt>
<totfact> 0.23006007E+04</totfact>
</mgrwt>
</event>
<event>
 7    0  0.4712189E-002  0.4383548E+03  0.7546771E-02  0.1031253E+00
         21   -1    0    0  502  501  0.00000000000E+00  0.00000000000E+00  0.37017065687E+02  0.37017065687E+02  0.00000000000E+00 0. -1.
         21   -1    0    0  501  502 -0.00000000000E+00 -0.00000000000E+00 -0.12977453403E+04  0.12977453403E+04  0.00000000000E+00 0. -1.
      99926    2    1    2    0    0  0.00000000000E+00  0.00000000000E+00 -0.12607282746E+04  0.13347624059E+04  0.43835476274E+03 0.  0.
      99925    2    3    3    0    0  0.77984251133E+02 -0.57283162440E+02 -0.80430341241E+03  0.85171575496E+03  0.26296928322E+03 0.  0.
         25    1    4    4    0    0  0.68983544182E+02 -0.11367581135E+02 -0.48159129265E+03  0.50245958297E+03  0.12509000000E+03 0.  0.
         25    1    3    3    0    0 -0.77984251133E+02  0.57283162440E+02 -0.45642486216E+03  0.48304665098E+03  0.12509000000E+03 0.  0.
         25    1    4    4    0    0  0.90007069505E+01 -0.45915581305E+02 -0.32271211976E+03  0.34925617199E+03  0.12509000000E+03 0.  0.
<mgrwt>
<rscale>  2 0.43835476E+03</rscale>
<asrwt>0</asrwt>
<pdfrwt beam="1">  1       21 0.54436858E-02 0.43835476E+03</pdfrwt>
<pdfrwt beam="2">  1       21 0.19084491E+00 0.43835476E+03</pdfrwt>
<totfact> 0.32076511E+04</totfact>
</mgrwt>
</event>
<event>
 6    0  0.4712189E-002  0.4553413E+03  0.7546771E-02  0.1026141E+00
         21   -1    0    0  502  501  0.00000000000E+00  0.00000000000E+00  0.15213565034E+03  0.15213565034E+03  0.00000000000E+00 0. -1.
         21   -1    0    0  501  502 -0.00000000000E+00 -0.00000000000E+00 -0.34070853759E+03  0.34070853759E+03  0.00000000000E+00 0. -1.
      99926    2    1    2    0    0  0.00000000000E+00  0.00000000000E+00 -0.18857288725E+03  0.49284418793E+03  0.45534125639E+03 0.  0.
         25    1    3    3    0    0 -0.35331500613E+02  0.71785569858E+02 -0.67401553143E+02  0.16307041559E+03  0.12509000000E+03 0.  0.
         25    1    3    3    0    0  0.20861035510E+01  0.15206758402E+02  0.94014760075E+01  0.12637837307E+03  0.12509000000E+03 0.  0.
         25    1    3    3    0    0  0.33245397062E+02 -0.86992328260E+02 -0.13057281012E+03  0.20339539927E+03  0.12509000000E+03 0.  0.
<mgrwt>
<rscale>  2 0.45534126E+03</rscale>
<asrwt>0</asrwt>
<pdfrwt beam="1">  1       21 0.22372890E-01 0.45534126E+03</pdfrwt>
<pdfrwt beam="2">  1       21 0.50104196E-01 0.45534126E+03</pdfrwt>
<totfact> 0.65598460E+04</totfact>
</mgrwt>
</event>
<event>
 7    0  0.4712189E-002  0.4537682E+03  0.7546771E-02  0.1026604E+00
         21   -1    0    0  502  501  0.00000000000E+00  0.00000000000E+00  0.67258193550E+03  0.67258193550E+03  0.00000000000E+00 0. -1.
         21   -1    0    0  501  502 -0.00000000000E+00 -0.00000000000E+00 -0.76535494577E+02  0.76535494577E+02  0.00000000000E+00 0. -1.
      99926    2    1    2    0    0  0.00000000000E+00  0.14210854715E-13  0.59604644092E+03  0.74911743008E+03  0.45376818345E+03 0.  0.
      99925    2    3    3    0    0  0.48925694919E+02 -0.83568086353E+02  0.46840538941E+03  0.54585136106E+03  0.26300713083E+03 0.  0.
         25    1    3    3    0    0 -0.48925694919E+02  0.83568086353E+02  0.12764105152E+03  0.20326606901E+03  0.12509000000E+03 0.  0.
         25    1    4    4    0    0  0.34119993597E+02 -0.61228991712E+01  0.18225717715E+03  0.22375623026E+03  0.12509000000E+03 0.  0.
         25    1    4    4    0    0  0.14805701322E+02 -0.77445187181E+02  0.28614821226E+03  0.32209513081E+03  0.12509000000E+03 0.  0.
<mgrwt>
<rscale>  2 0.45376818E+03</rscale>
<asrwt>0</asrwt>
<pdfrwt beam="1">  1       21 0.98909105E-01 0.45376818E+03</pdfrwt>
<pdfrwt beam="2">  1       21 0.11255220E-01 0.45376818E+03</pdfrwt>
<totfact> 0.50806102E+04</totfact>
</mgrwt>
</event>
<event>
 7    0  0.4712189E-002  0.4494018E+03  0.7546771E-02  0.1027901E+00
         21   -1    0    0  502  501  0.00000000000E+00  0.00000000000E+00  0.12962280048E+03  0.12962280048E+03  0.00000000000E+00 0.  1.
         21   -1    0    0  501  502 -0.00000000000E+00 -0.00000000000E+00 -0.38951869659E+03  0.38951869659E+03  0.00000000000E+00 0.  1.
      99926    2    1    2    0    0  0.00000000000E+00  0.00000000000E+00 -0.25989589612E+03  0.51914149707E+03  0.44940184375E+03 0.  0.
      99925    2    3    3    0    0  0.95610530595E+01 -0.94985052786E+02 -0.22199642006E+03  0.35728522634E+03  0.26316676928E+03 0.  0.
         25    1    4    4    0    0 -0.92959797515E+01 -0.73516916961E+01 -0.90260407007E+02  0.15470911991E+03  0.12509000000E+03 0.  0.
         25    1    4    4    0    0  0.18857032811E+02 -0.87633361090E+02 -0.13173601306E+03  0.20257610643E+03  0.12509000000E+03 0.  0.
         25    1    3    3    0    0 -0.95610530595E+01  0.94985052786E+02 -0.37899476054E+02  0.16185627073E+03  0.12509000000E+03 0.  0.
<mgrwt>
<rscale>  2 0.44940184E+03</rscale>
<asrwt>0</asrwt>
<pdfrwt beam="1">  1       21 0.19062177E-01 0.44940184E+03</pdfrwt>
<pdfrwt beam="2">  1       21 0.57282161E-01 0.44940184E+03</pdfrwt>
<totfact> 0.66866224E+04</totfact>
</mgrwt>
</event>
<event>
 7    0  0.4712189E-002  0.4513364E+03  0.7546771E-02  0.1027324E+00
         21   -1    0    0  502  501  0.00000000000E+00  0.00000000000E+00  0.25202093511E+03  0.25202093511E+03  0.00000000000E+00 0.  1.
         21   -1    0    0  501  502 -0.00000000000E+00 -0.00000000000E+00 -0.20207108719E+03  0.20207108719E+03  0.00000000000E+00 0.  1.
      99926    2    1    2    0    0  0.71054273576E-14 -0.17763568394E-14  0.49949847923E+02  0.45409202231E+03  0.45133643484E+03 0.  0.
      99925    2    3    3    0    0  0.47253452921E+02 -0.92299932368E+01 -0.67581007269E+02  0.27582511116E+03  0.26304793824E+03 0.  0.
         25    1    4    4    0    0  0.24864264205E+02 -0.29472445316E+02 -0.91533057110E+00  0.13090149960E+03  0.12509000000E+03 0.  0.
         25    1    4    4    0    0  0.22389188716E+02  0.20242452080E+02 -0.66665676698E+02  0.14492361156E+03  0.12509000000E+03 0.  0.
         25    1    3    3    0    0 -0.47253452921E+02  0.92299932368E+01  0.11753085519E+03  0.17826691115E+03  0.12509000000E+03 0.  0.
<mgrwt>
<rscale>  2 0.45133643E+03</rscale>
<asrwt>0</asrwt>
<pdfrwt beam="1">  1       21 0.37061902E-01 0.45133643E+03</pdfrwt>
<pdfrwt beam="2">  1       21 0.29716336E-01 0.45133643E+03</pdfrwt>
<totfact> 0.70655050E+04</totfact>
</mgrwt>
</event>
<event>
 7    0  0.4712189E-002  0.4497019E+03  0.7546771E-02  0.1027811E+00
         21   -1    0    0  502  501  0.00000000000E+00  0.00000000000E+00  0.11155613761E+03  0.11155613761E+03  0.00000000000E+00 0. -1.
         21   -1    0    0  501  502 -0.00000000000E+00 -0.00000000000E+00 -0.45320625337E+03  0.45320625337E+03  0.00000000000E+00 0. -1.
      99926    2    1    2    0    0  0.53290705182E-14  0.00000000000E+00 -0.34165011576E+03  0.56476239097E+03  0.44970185307E+03 0.  0.
      99925    2    3    3    0    0  0.13723024217E+02 -0.10483363383E+03 -0.24467928143E+03  0.37442252918E+03  0.26295601804E+03 0.  0.
         25    1    4    4    0    0 -0.32151369606E+02 -0.59736609382E+02 -0.11247376291E+03  0.18138365007E+03  0.12509000000E+03 0.  0.
         25    1    4    4    0    0  0.45874393823E+02 -0.45097024449E+02 -0.13220551852E+03  0.19303887911E+03  0.12509000000E+03 0.  0.
         25    1    3    3    0    0 -0.13723024217E+02  0.10483363383E+03 -0.96970834327E+02  0.19033986179E+03  0.12509000000E+03 0.  0.
<mgrwt>
<rscale>  2 0.44970185E+03</rscale>
<asrwt>0</asrwt>
<pdfrwt beam="1">  1       21 0.16405314E-01 0.44970185E+03</pdfrwt>
<pdfrwt beam="2">  1       21 0.66647979E-01 0.44970185E+03</pdfrwt>
<totfact> 0.63521547E+04</totfact>
</mgrwt>
</event>
<event>
 7    0  0.4712189E-002  0.4507866E+03  0.7546771E-02  0.1027488E+00
         21   -1    0    0  502  501  0.00000000000E+00  0.00000000000E+00  0.23245804780E+03  0.23245804780E+03  0.00000000000E+00 0. -1.
         21   -1    0    0  501  502 -0.00000000000E+00 -0.00000000000E+00 -0.21854326466E+03  0.21854326466E+03  0.00000000000E+00 0. -1.
      99926    2    1    2    0    0  0.00000000000E+00 -0.71054273576E-14  0.13914783139E+02  0.45100131246E+03  0.45078660434E+03 0.  0.
      99925    2    3    3    0    0  0.10432272305E+03  0.32053744081E+02  0.11759057128E+02  0.28498074653E+03  0.26299254251E+03 0.  0.
         25    1    4    4    0    0  0.78186439490E+02 -0.15104328448E+02  0.11936353196E+02  0.14876573761E+03  0.12509000000E+03 0.  0.
         25    1    4    4    0    0  0.26136283563E+02  0.47158072529E+02 -0.17729606786E+00  0.13621500893E+03  0.12509000000E+03 0.  0.
         25    1    3    3    0    0 -0.10432272305E+03 -0.32053744081E+02  0.21557260109E+01  0.16602056592E+03  0.12509000000E+03 0.  0.
<mgrwt>
<rscale>  2 0.45078660E+03</rscale>
<asrwt>0</asrwt>
<pdfrwt beam="1">  1       21 0.34185007E-01 0.45078660E+03</pdfrwt>
<pdfrwt beam="2">  1       21 0.32138715E-01 0.45078660E+03</pdfrwt>
<totfact> 0.71203549E+04</totfact>
</mgrwt>
</event>
<event>
 7    0  0.4712189E-002  0.4603462E+03  0.7546771E-02  0.1024681E+00
         21   -1    0    0  502  501  0.00000000000E+00  0.00000000000E+00  0.11648180393E+03  0.11648180393E+03  0.00000000000E+00 0.  1.
         21   -1    0    0  501  502 -0.00000000000E+00 -0.00000000000E+00 -0.45483209985E+03  0.45483209985E+03  0.00000000000E+00 0.  1.
      99926    2    1    2    0    0  0.00000000000E+00  0.35527136788E-14 -0.33835029593E+03  0.57131390378E+03  0.46034623263E+03 0.  0.
      99925    2    3    3    0    0  0.60424197319E+02 -0.24710831640E+02 -0.33400577120E+03  0.43014701029E+03  0.26306821634E+03 0.  0.
         25    1    3    3    0    0 -0.60424197319E+02  0.24710831640E+02 -0.43445247287E+01  0.14116689349E+03  0.12509000000E+03 0.  0.
         25    1    4    4    0    0  0.75225026930E+01 -0.26295096220E+01 -0.21182211137E+03  0.24612926956E+03  0.12509000000E+03 0.  0.
         25    1    4    4    0    0  0.52901694626E+02 -0.22081322018E+02 -0.12218365983E+03  0.18401774074E+03  0.12509000000E+03 0.  0.
<mgrwt>
<rscale>  2 0.46034623E+03</rscale>
<asrwt>0</asrwt>
<pdfrwt beam="1">  1       21 0.17129677E-01 0.46034623E+03</pdfrwt>
<pdfrwt beam="2">  1       21 0.66887075E-01 0.46034623E+03</pdfrwt>
<totfact> 0.57988938E+04</totfact>
</mgrwt>
</event>
<event>
 7    0  0.4712189E-002  0.4550050E+03  0.7546771E-02  0.1026240E+00
         21   -1    0    0  502  501  0.00000000000E+00  0.00000000000E+00  0.35440195246E+03  0.35440195246E+03  0.00000000000E+00 0.  1.
         21   -1    0    0  501  502 -0.00000000000E+00 -0.00000000000E+00 -0.14604147830E+03  0.14604147830E+03  0.00000000000E+00 0.  1.
      99926    2    1    2    0    0  0.17763568394E-14  0.00000000000E+00  0.20836047416E+03  0.50044343076E+03  0.45500498920E+03 0.  0.
      99925    2    3    3    0    0 -0.12778281838E+02  0.87256385209E+02  0.53089381504E+02  0.28242145581E+03  0.26299512358E+03 0.  0.
         25    1    3    3    0    0  0.12778281838E+02 -0.87256385209E+02  0.15527109266E+03  0.21802197495E+03  0.12509000000E+03 0.  0.
         25    1    4    4    0    0  0.49230132173E+01  0.17890996726E+02 -0.61203707066E+01  0.12660683576E+03  0.12509000000E+03 0.  0.
         25    1    4    4    0    0 -0.17701295055E+02  0.69365388483E+02  0.59209752210E+02  0.15581462005E+03  0.12509000000E+03 0.  0.
<mgrwt>
<rscale>  2 0.45500499E+03</rscale>
<asrwt>0</asrwt>
<pdfrwt beam="1">  1       21 0.52117934E-01 0.45500499E+03</pdfrwt>
<pdfrwt beam="2">  1       21 0.21476688E-01 0.45500499E+03</pdfrwt>
<totfact> 0.65236937E+04</totfact>
</mgrwt>
</event>
<event>
 7    0  0.4712189E-002  0.4540824E+03  0.7546771E-02  0.1026512E+00
         21   -1    0    0  502  501  0.00000000000E+00  0.00000000000E+00  0.14870436305E+04  0.14870436305E+04  0.00000000000E+00 0.  1.
         21   -1    0    0  501  502 -0.00000000000E+00 -0.00000000000E+00 -0.34664558934E+02  0.34664558934E+02  0.00000000000E+00 0.  1.
      99926    2    1    2    0    0  0.00000000000E+00  0.00000000000E+00  0.14523790715E+04  0.15217081894E+04  0.45408242233E+03 0.  0.
      99925    2    3    3    0    0  0.33619019965E+02  0.10085916622E+03  0.10355946493E+04  0.10737577763E+04  0.26305260789E+03 0.  0.
         25    1    3    3    0    0 -0.33619019965E+02 -0.10085916622E+03  0.41678442225E+03  0.44795041315E+03  0.12509000000E+03 0.  0.
         25    1    4    4    0    0  0.16801522306E+02  0.73373379786E+01  0.48240351252E+03  0.49869508186E+03  0.12509000000E+03 0.  0.
         25    1    4    4    0    0  0.16817497658E+02  0.93521828239E+02  0.55319113678E+03  0.57506269440E+03  0.12509000000E+03 0.  0.
<mgrwt>
<rscale>  2 0.45408242E+03</rscale>
<asrwt>0</asrwt>
<pdfrwt beam="1">  1       21 0.21868284E+00 0.45408242E+03</pdfrwt>
<pdfrwt beam="2">  1       21 0.50977302E-02 0.45408242E+03</pdfrwt>
<totfact> 0.23418525E+04</totfact>
</mgrwt>
</event>
<event>
 7    0  0.4712189E-002  0.4524048E+03  0.7546771E-02  0.1027007E+00
         21   -1    0    0  502  501  0.00000000000E+00  0.00000000000E+00  0.30218798818E+02  0.30218798818E+02  0.00000000000E+00 0. -1.
         21   -1    0    0  501  502 -0.00000000000E+00 -0.00000000000E+00 -0.16932345719E+04  0.16932345719E+04  0.00000000000E+00 0. -1.
      99926    2    1    2    0    0  0.00000000000E+00 -0.14210854715E-13 -0.16630157731E+04  0.17234533707E+04  0.45240475188E+03 0.  0.
      99925    2    3    3    0    0  0.20799112635E+02 -0.10874397627E+03 -0.10447347883E+04  0.10830029513E+04  0.26299573994E+03 0.  0.
         25    1    3    3    0    0 -0.20799112635E+02  0.10874397627E+03 -0.61828098481E+03  0.64045041942E+03  0.12509000000E+03 0.  0.
         25    1    4    4    0    0  0.64466357212E+01 -0.81414716196E+02 -0.43916884523E+03  0.46388220256E+03  0.12509000000E+03 0.  0.
         25    1    4    4    0    0  0.14352476914E+02 -0.27329260077E+02 -0.60556594307E+03  0.61912074877E+03  0.12509000000E+03 0.  0.
<mgrwt>
<rscale>  2 0.45240475E+03</rscale>
<asrwt>0</asrwt>
<pdfrwt beam="1">  1       21 0.44439413E-02 0.45240475E+03</pdfrwt>
<pdfrwt beam="2">  1       21 0.24900507E+00 0.45240475E+03</pdfrwt>
<totfact> 0.19160885E+04</totfact>
</mgrwt>
</event>
<event>
 7    0  0.4712189E-002  0.4622372E+03  0.7546771E-02  0.1024134E+00
         21   -1    0    0  502  501  0.00000000000E+00  0.00000000000E+00  0.12024057443E+03  0.12024057443E+03  0.00000000000E+00 0. -1.
         21   -1    0    0  501  502 -0.00000000000E+00 -0.00000000000E+00 -0.44424103677E+03  0.44424103677E+03  0.00000000000E+00 0. -1.
      99926    2    1    2    0    0 -0.71054273576E-14  0.00000000000E+00 -0.32400046233E+03  0.56448161120E+03  0.46223715752E+03 0.  0.
      99925    2    3    3    0    0  0.41797158121E+02  0.87555785107E+02 -0.11629449934E+03  0.30332592373E+03  0.26281017389E+03 0.  0.
         25    1    4    4    0    0  0.19083166705E+02  0.37831536914E+02 -0.10037849771E+03  0.16588774319E+03  0.12509000000E+03 0.  0.
         25    1    4    4    0    0  0.22713991416E+02  0.49724248193E+02 -0.15916001630E+02  0.13743818055E+03  0.12509000000E+03 0.  0.
         25    1    3    3    0    0 -0.41797158121E+02 -0.87555785107E+02 -0.20770596300E+03  0.26115568747E+03  0.12509000000E+03 0.  0.
<mgrwt>
<rscale>  2 0.46223716E+03</rscale>
<asrwt>0</asrwt>
<pdfrwt beam="1">  1       21 0.17682437E-01 0.46223716E+03</pdfrwt>
<pdfrwt beam="2">  1       21 0.65329565E-01 0.46223716E+03</pdfrwt>
<totfact> 0.57553795E+04</totfact>
</mgrwt>
</event>
<event>
 7    0  0.4712189E-002  0.4490474E+03  0.7546771E-02  0.1028006E+00
         21   -1    0    0  502  501  0.00000000000E+00  0.00000000000E+00  0.89168575874E+03  0.89168575874E+03  0.00000000000E+00 0.  1.
         21   -1    0    0  501  502 -0.00000000000E+00 -0.00000000000E+00 -0.56534373754E+02  0.56534373754E+02  0.00000000000E+00 0.  1.
      99926    2    1    2    0    0 -0.71054273576E-14  0.00000000000E+00  0.83515138499E+03  0.94822013250E+03  0.44904741823E+03 0.  0.
      99925    2    3    3    0    0  0.35217241285E+02  0.39679352838E+02  0.33099113198E+03  0.42607094506E+03  0.26299546698E+03 0.  0.
         25    1    4    4    0    0 -0.16622334614E+02 -0.32237940949E+01  0.15302052535E+03  0.19836704397E+03  0.12509000000E+03 0.  0.
         25    1    4    4    0    0  0.51839575899E+02  0.42903146933E+02  0.17797060663E+03  0.22770390109E+03  0.12509000000E+03 0.  0.
         25    1    3    3    0    0 -0.35217241285E+02 -0.39679352838E+02  0.50416025301E+03  0.52214918744E+03  0.12509000000E+03 0.  0.
<mgrwt>
<rscale>  2 0.44904742E+03</rscale>
<asrwt>0</asrwt>
<pdfrwt beam="1">  1       21 0.13113025E+00 0.44904742E+03</pdfrwt>
<pdfrwt beam="2">  1       21 0.83138791E-02 0.44904742E+03</pdfrwt>
<totfact> 0.43188542E+04</totfact>
</mgrwt>
</event>
<event>
 7    0  0.4712189E-002  0.4457163E+03  0.7546771E-02  0.1029007E+00
         21   -1    0    0  502  501  0.00000000000E+00  0.00000000000E+00  0.18319432077E+04  0.18319432077E+04  0.00000000000E+00 0. -1.
         21   -1    0    0  501  502 -0.00000000000E+00 -0.00000000000E+00 -0.27110974732E+02  0.27110974732E+02  0.00000000000E+00 0. -1.
      99926    2    1    2    0    0  0.00000000000E+00  0.00000000000E+00  0.18048322330E+04  0.18590541825E+04  0.44571634934E+03 0.  0.
      99925    2    3    3    0    0  0.57898666585E+02  0.47444903567E+02  0.14478838268E+04  0.14734858393E+04  0.26303929026E+03 0.  0.
         25    1    3    3    0    0 -0.57898666585E+02 -0.47444903567E+02  0.35694840617E+03  0.38556834314E+03  0.12509000000E+03 0.  0.
         25    1    4    4    0    0 -0.72713859146E+01  0.32986786459E+02  0.78342734896E+03  0.79406984600E+03  0.12509000000E+03 0.  0.
         25    1    4    4    0    0  0.65170052500E+02  0.14458117108E+02  0.66445647789E+03  0.67941599334E+03  0.12509000000E+03 0.  0.
<mgrwt>
<rscale>  2 0.44571635E+03</rscale>
<asrwt>0</asrwt>
<pdfrwt beam="1">  1       21 0.26940333E+00 0.44571635E+03</pdfrwt>
<pdfrwt beam="2">  1       21 0.39869093E-02 0.44571635E+03</pdfrwt>
<totfact> 0.17368627E+04</totfact>
</mgrwt>
</event>
<event>
 7    0  0.4712189E-002  0.4511443E+03  0.7546771E-02  0.1027381E+00
         21   -1    0    0  502  501  0.00000000000E+00  0.00000000000E+00  0.24352150816E+03  0.24352150816E+03  0.00000000000E+00 0.  1.
         21   -1    0    0  501  502 -0.00000000000E+00 -0.00000000000E+00 -0.20894576340E+03  0.20894576340E+03  0.00000000000E+00 0.  1.
      99926    2    1    2    0    0  0.00000000000E+00  0.00000000000E+00  0.34575744756E+02  0.45246727156E+03  0.45114426707E+03 0.  0.
      99925    2    3    3    0    0 -0.25484495105E+02 -0.60837760597E+02  0.10954666873E+03  0.29240840693E+03  0.26296674925E+03 0.  0.
         25    1    3    3    0    0  0.25484495105E+02  0.60837760597E+02 -0.74970923972E+02  0.16005886463E+03  0.12509000000E+03 0.  0.
         25    1    4    4    0    0 -0.83619132092E+01 -0.30255453601E+02  0.98021057130E+02  0.16199058555E+03  0.12509000000E+03 0.  0.
         25    1    4    4    0    0 -0.17122581895E+02 -0.30582306996E+02  0.11525611597E+02  0.13041782138E+03  0.12509000000E+03 0.  0.
<mgrwt>
<rscale>  2 0.45114427E+03</rscale>
<asrwt>0</asrwt>
<pdfrwt beam="1">  1       21 0.35811987E-01 0.45114427E+03</pdfrwt>
<pdfrwt beam="2">  1       21 0.30727318E-01 0.45114427E+03</pdfrwt>
<totfact> 0.70887573E+04</totfact>
</mgrwt>
</event>
<event>
 7    0  0.4712189E-002  0.4504636E+03  0.7546771E-02  0.1027584E+00
         21   -1    0    0  502  501  0.00000000000E+00  0.00000000000E+00  0.20869672980E+03  0.20869672980E+03  0.00000000000E+00 0.  1.
         21   -1    0    0  501  502 -0.00000000000E+00 -0.00000000000E+00 -0.24307694943E+03  0.24307694943E+03  0.00000000000E+00 0.  1.
      99926    2    1    2    0    0  0.00000000000E+00 -0.17763568394E-14 -0.34380219632E+02  0.45177367923E+03  0.45046360313E+03 0.  0.
      99925    2    3    3    0    0  0.45504771929E+02 -0.11693117041E+02  0.76694894444E+02  0.27801349299E+03  0.26306269633E+03 0.  0.
         25    1    4    4    0    0  0.15064809385E+02 -0.35278833520E+02  0.66404973620E+02  0.14672652520E+03  0.12509000000E+03 0.  0.
         25    1    4    4    0    0  0.30439962544E+02  0.23585716479E+02  0.10289920825E+02  0.13128696779E+03  0.12509000000E+03 0.  0.
         25    1    3    3    0    0 -0.45504771929E+02  0.11693117041E+02 -0.11107511408E+03  0.17376018624E+03  0.12509000000E+03 0.  0.
<mgrwt>
<rscale>  2 0.45046360E+03</rscale>
<asrwt>0</asrwt>
<pdfrwt beam="1">  1       21 0.30690695E-01 0.45046360E+03</pdfrwt>
<pdfrwt beam="2">  1       21 0.35746610E-01 0.45046360E+03</pdfrwt>
<totfact> 0.71329842E+04</totfact>
</mgrwt>
</event>
<event>
 7    0  0.4712189E-002  0.4087293E+03  0.7546771E-02  0.1040798E+00
         21   -1    0    0  502  501  0.00000000000E+00  0.00000000000E+00  0.58658691539E+03  0.58658691539E+03  0.00000000000E+00 0.  1.
         21   -1    0    0  501  502 -0.00000000000E+00 -0.00000000000E+00 -0.71199859349E+02  0.71199859349E+02  0.00000000000E+00 0.  1.
      99926    2    1    2    0    0  0.00000000000E+00  0.71054273576E-14  0.51538705604E+03  0.65778677474E+03  0.40872927897E+03 0.  0.
      99925    2    3    3    0    0  0.43356756956E+02  0.37909669260E+02  0.31150093578E+03  0.41175017272E+03  0.26303691822E+03 0.  0.
         25    1    3    3    0    0 -0.43356756956E+02 -0.37909669260E+02  0.20388612026E+03  0.24603660202E+03  0.12509000000E+03 0.  0.
         25    1    4    4    0    0  0.40074735072E+02 -0.92224955993E+00  0.20222265378E+03  0.24113967890E+03  0.12509000000E+03 0.  0.
         25    1    4    4    0    0  0.32820218846E+01  0.38831918820E+02  0.10927828200E+03  0.17061049382E+03  0.12509000000E+03 0.  0.
<mgrwt>
<rscale>  2 0.40872928E+03</rscale>
<asrwt>0</asrwt>
<pdfrwt beam="1">  1       21 0.86262779E-01 0.40872928E+03</pdfrwt>
<pdfrwt beam="2">  1       21 0.10470568E-01 0.40872928E+03</pdfrwt>
<totfact> 0.80984821E+04</totfact>
</mgrwt>
</event>
<event>
 7    0  0.4712189E-002  0.4542622E+03  0.7546771E-02  0.1026459E+00
         21   -1    0    0  502  501  0.00000000000E+00  0.00000000000E+00  0.19498296411E+03  0.19498296411E+03  0.00000000000E+00 0.  1.
         21   -1    0    0  501  502 -0.00000000000E+00 -0.00000000000E+00 -0.26457968547E+03  0.26457968547E+03  0.00000000000E+00 0.  1.
      99926    2    1    2    0    0  0.71054273576E-14  0.00000000000E+00 -0.69596721358E+02  0.45956264959E+03  0.45426217680E+03 0.  0.
      99925    2    3    3    0    0 -0.57873909545E+02  0.14402366647E+02  0.52630326288E+02  0.27478230202E+03  0.26301814516E+03 0.  0.
         25    1    4    4    0    0 -0.59929675261E+02  0.29183520680E+02  0.11269338562E+02  0.14218913442E+03  0.12509000000E+03 0.  0.
         25    1    4    4    0    0  0.20557657162E+01 -0.14781154033E+02  0.41360987726E+02  0.13259316760E+03  0.12509000000E+03 0.  0.
         25    1    3    3    0    0  0.57873909545E+02 -0.14402366647E+02 -0.12222704765E+03  0.18478034757E+03  0.12509000000E+03 0.  0.
<mgrwt>
<rscale>  2 0.45426218E+03</rscale>
<asrwt>0</asrwt>
<pdfrwt beam="1">  1       21 0.28673966E-01 0.45426218E+03</pdfrwt>
<pdfrwt beam="2">  1       21 0.38908777E-01 0.45426218E+03</pdfrwt>
<totfact> 0.68615279E+04</totfact>
</mgrwt>
</event>
<event>
 7    0  0.4712189E-002  0.4531105E+03  0.7546771E-02  0.1026798E+00
         21   -1    0    0  502  501  0.00000000000E+00  0.00000000000E+00  0.30637218775E+03  0.30637218775E+03  0.00000000000E+00 0. -1.
         21   -1    0    0  501  502 -0.00000000000E+00 -0.00000000000E+00 -0.16753247074E+03  0.16753247074E+03  0.00000000000E+00 0. -1.
      99926    2    1    2    0    0 -0.14210854715E-13  0.35527136788E-14  0.13883971701E+03  0.47390465850E+03  0.45311053654E+03 0.  0.
      99925    2    3    3    0    0 -0.10597104478E+03  0.29090036835E+02  0.67415782957E+02  0.29272800705E+03  0.26280925734E+03 0.  0.
         25    1    4    4    0    0 -0.68441834016E+02  0.25540405142E+02 -0.18182019612E+01  0.14487032442E+03  0.12509000000E+03 0.  0.
         25    1    3    3    0    0  0.10597104478E+03 -0.29090036835E+02  0.71423934054E+02  0.18117665145E+03  0.12509000000E+03 0.  0.
         25    1    4    4    0    0 -0.37529210764E+02  0.35496316924E+01  0.69233984918E+02  0.14785768263E+03  0.12509000000E+03 0.  0.
<mgrwt>
<rscale>  2 0.45311054E+03</rscale>
<asrwt>0</asrwt>
<pdfrwt beam="1">  1       21 0.45054733E-01 0.45311054E+03</pdfrwt>
<pdfrwt beam="2">  1       21 0.24637128E-01 0.45311054E+03</pdfrwt>
<totfact> 0.68162896E+04</totfact>
</mgrwt>
</event>
<event>
 7    0  0.4712189E-002  0.4453823E+03  0.7546771E-02  0.1029108E+00
         21   -1    0    0  502  501  0.00000000000E+00  0.00000000000E+00  0.67335908610E+03  0.67335908610E+03  0.00000000000E+00 0.  1.
         21   -1    0    0  501  502 -0.00000000000E+00 -0.00000000000E+00 -0.73647716751E+02  0.73647716751E+02  0.00000000000E+00 0.  1.
      99926    2    1    2    0    0  0.00000000000E+00  0.00000000000E+00  0.59971136935E+03  0.74700680285E+03  0.44538234920E+03 0.  0.
      99925    2    3    3    0    0 -0.85157307089E+02  0.45665220799E+02  0.31642846191E+03  0.42260921795E+03  0.26293440294E+03 0.  0.
         25    1    4    4    0    0 -0.60812635505E+02  0.33904166385E+02  0.21953250136E+03  0.26208719234E+03  0.12509000000E+03 0.  0.
         25    1    4    4    0    0 -0.24344671584E+02  0.11761054414E+02  0.96895960550E+02  0.16052202561E+03  0.12509000000E+03 0.  0.
         25    1    3    3    0    0  0.85157307089E+02 -0.45665220799E+02  0.28328290744E+03  0.32439758490E+03  0.12509000000E+03 0.  0.
<mgrwt>
<rscale>  2 0.44538235E+03</rscale>
<asrwt>0</asrwt>
<pdfrwt beam="1">  1       21 0.99023392E-01 0.44538235E+03</pdfrwt>
<pdfrwt beam="2">  1       21 0.10830547E-01 0.44538235E+03</pdfrwt>
<totfact> 0.54422850E+04</totfact>
</mgrwt>
</event>
<event>
 6    0  0.4712189E-002  0.4582278E+03  0.7546771E-02  0.1025296E+00
         21   -1    0    0  502  501  0.00000000000E+00  0.00000000000E+00  0.91600078059E+03  0.91600078059E+03  0.00000000000E+00 0. -1.
         21   -1    0    0  501  502 -0.00000000000E+00 -0.00000000000E+00 -0.57306908379E+02  0.57306908379E+02  0.00000000000E+00 0. -1.
      99926    2    1    2    0    0 -0.14210854715E-13  0.00000000000E+00  0.85869387221E+03  0.97330768897E+03  0.45822777222E+03 0.  0.
         25    1    3    3    0    0 -0.30076981147E+02 -0.58642053296E+02  0.27724457469E+03  0.31121628734E+03  0.12509000000E+03 0.  0.
         25    1    3    3    0    0  0.86598059633E+02  0.64378725309E+02  0.21786787501E+03  0.27341865932E+03  0.12509000000E+03 0.  0.
         25    1    3    3    0    0 -0.56521078486E+02 -0.57366720127E+01  0.36358142251E+03  0.38867274230E+03  0.12509000000E+03 0.  0.
<mgrwt>
<rscale>  2 0.45822777E+03</rscale>
<asrwt>0</asrwt>
<pdfrwt beam="1">  1       21 0.13470599E+00 0.45822777E+03</pdfrwt>
<pdfrwt beam="2">  1       21 0.84274871E-02 0.45822777E+03</pdfrwt>
<totfact> 0.39212272E+04</totfact>
</mgrwt>
</event>
<event>
 7    0  0.4712189E-002  0.4550363E+03  0.7546771E-02  0.1026231E+00
         21   -1    0    0  502  501  0.00000000000E+00  0.00000000000E+00  0.66954189106E+03  0.66954189106E+03  0.00000000000E+00 0.  1.
         21   -1    0    0  501  502 -0.00000000000E+00 -0.00000000000E+00 -0.77313336167E+02  0.77313336167E+02  0.00000000000E+00 0.  1.
      99926    2    1    2    0    0  0.00000000000E+00 -0.44408920985E-15  0.59222855489E+03  0.74685522722E+03  0.45503633833E+03 0.  0.
      99925    2    3    3    0    0 -0.95574779257E+02  0.17880695178E+01  0.27305352770E+03  0.39096487655E+03  0.26297826922E+03 0.  0.
         25    1    4    4    0    0 -0.10717028342E+02  0.11551434004E+02  0.99529362771E+02  0.16062967496E+03  0.12509000000E+03 0.  0.
         25    1    4    4    0    0 -0.84857750914E+02 -0.97633644862E+01  0.17352416493E+03  0.23033520159E+03  0.12509000000E+03 0.  0.
         25    1    3    3    0    0  0.95574779257E+02 -0.17880695178E+01  0.31917502719E+03  0.35589035068E+03  0.12509000000E+03 0.  0.
<mgrwt>
<rscale>  2 0.45503634E+03</rscale>
<asrwt>0</asrwt>
<pdfrwt beam="1">  1       21 0.98462040E-01 0.45503634E+03</pdfrwt>
<pdfrwt beam="2">  1       21 0.11369609E-01 0.45503634E+03</pdfrwt>
<totfact> 0.50417343E+04</totfact>
</mgrwt>
</event>
<event>
 7    0  0.4712189E-002  0.4762952E+03  0.7546771E-02  0.1020158E+00
         21   -1    0    0  502  501  0.00000000000E+00  0.00000000000E+00  0.17443467594E+03  0.17443467594E+03  0.00000000000E+00 0.  1.
         21   -1    0    0  501  502 -0.00000000000E+00 -0.00000000000E+00 -0.32513185230E+03  0.32513185230E+03  0.00000000000E+00 0.  1.
      99926    2    1    2    0    0  0.00000000000E+00  0.00000000000E+00 -0.15069717636E+03  0.49956652824E+03  0.47629515762E+03 0.  0.
      99925    2    3    3    0    0  0.35210942587E+02  0.12457195710E+03 -0.12110444099E+03  0.31713511356E+03  0.26296465856E+03 0.  0.
         25    1    3    3    0    0 -0.35210942587E+02 -0.12457195710E+03 -0.29592735366E+02  0.18243141468E+03  0.12509000000E+03 0.  0.
         25    1    4    4    0    0  0.24082803101E+02  0.20381665277E+02 -0.65957882389E+02  0.14489080038E+03  0.12509000000E+03 0.  0.
         25    1    4    4    0    0  0.11128139486E+02  0.10419029183E+03 -0.55146558604E+02  0.17224431319E+03  0.12509000000E+03 0.  0.
<mgrwt>
<rscale>  2 0.47629516E+03</rscale>
<asrwt>0</asrwt>
<pdfrwt beam="1">  1       21 0.25652159E-01 0.47629516E+03</pdfrwt>
<pdfrwt beam="2">  1       21 0.47813507E-01 0.47629516E+03</pdfrwt>
<totfact> 0.55337957E+04</totfact>
</mgrwt>
</event>
<event>
 7    0  0.4712189E-002  0.4451137E+03  0.7546771E-02  0.1029189E+00
         21   -1    0    0  502  501  0.00000000000E+00  0.00000000000E+00  0.49714456980E+03  0.49714456980E+03  0.00000000000E+00 0. -1.
         21   -1    0    0  501  502 -0.00000000000E+00 -0.00000000000E+00 -0.99632098999E+02  0.99632098999E+02  0.00000000000E+00 0. -1.
      99926    2    1    2    0    0  0.00000000000E+00  0.00000000000E+00  0.39751247080E+03  0.59677666880E+03  0.44511372477E+03 0.  0.
      99925    2    3    3    0    0  0.45500354987E+02  0.74735546035E+02  0.17803672810E+03  0.32943270706E+03  0.26300788540E+03 0.  0.
         25    1    4    4    0    0  0.22040927917E+02  0.65215509254E+02  0.12990240107E+03  0.19303110385E+03  0.12509000000E+03 0.  0.
         25    1    4    4    0    0  0.23459427069E+02  0.95200367810E+01  0.48134327032E+02  0.13640160321E+03  0.12509000000E+03 0.  0.
         25    1    3    3    0    0 -0.45500354987E+02 -0.74735546035E+02  0.21947574270E+03  0.26734396174E+03  0.12509000000E+03 0.  0.
<mgrwt>
<rscale>  2 0.44511372E+03</rscale>
<asrwt>0</asrwt>
<pdfrwt beam="1">  1       21 0.73109494E-01 0.44511372E+03</pdfrwt>
<pdfrwt beam="2">  1       21 0.14651780E-01 0.44511372E+03</pdfrwt>
<totfact> 0.63710035E+04</totfact>
</mgrwt>
</event>
<event>
 7    0  0.4712189E-002  0.4415408E+03  0.7546771E-02  0.1030275E+00
         21   -1    0    0  502  501  0.00000000000E+00  0.00000000000E+00  0.52422619536E+02  0.52422619536E+02  0.00000000000E+00 0. -1.
         21   -1    0    0  501  502 -0.00000000000E+00 -0.00000000000E+00 -0.92974307272E+03  0.92974307272E+03  0.00000000000E+00 0. -1.
      99926    2    1    2    0    0  0.00000000000E+00  0.35527136788E-14 -0.87732045318E+03  0.98216569225E+03  0.44154079027E+03 0.  0.
      99925    2    3    3    0    0 -0.74171815766E+02 -0.22297986722E+02 -0.42040663920E+03  0.50214860925E+03  0.26346313789E+03 0.  0.
         25    1    3    3    0    0  0.74171815766E+02  0.22297986722E+02 -0.45691381399E+03  0.48001708300E+03  0.12509000000E+03 0.  0.
         25    1    4    4    0    0 -0.29893306583E+02 -0.48519273348E+02 -0.18246811446E+03  0.22845098065E+03  0.12509000000E+03 0.  0.
         25    1    4    4    0    0 -0.44278509182E+02  0.26221286626E+02 -0.23793852474E+03  0.27369762860E+03  0.12509000000E+03 0.  0.
<mgrwt>
<rscale>  2 0.44154079E+03</rscale>
<asrwt>0</asrwt>
<pdfrwt beam="1">  1       21 0.77092090E-02 0.44154079E+03</pdfrwt>
<pdfrwt beam="2">  1       21 0.13672692E+00 0.44154079E+03</pdfrwt>
<totfact> 0.44350063E+04</totfact>
</mgrwt>
</event>
<event>
 7    0  0.4712189E-002  0.4573989E+03  0.7546771E-02  0.1025538E+00
         21   -1    0    0  502  501  0.00000000000E+00  0.00000000000E+00  0.79586005208E+03  0.79586005208E+03  0.00000000000E+00 0. -1.
         21   -1    0    0  501  502 -0.00000000000E+00 -0.00000000000E+00 -0.65719403319E+02  0.65719403319E+02  0.00000000000E+00 0. -1.
      99926    2    1    2    0    0 -0.71054273576E-14 -0.14210854715E-13  0.73014064876E+03  0.86157945540E+03  0.45739894074E+03 0.  0.
      99925    2    3    3    0    0 -0.56958293261E+02 -0.85419113715E+02  0.35917694574E+03  0.45685454979E+03  0.26299682347E+03 0.  0.
         25    1    4    4    0    0 -0.49020519446E+02 -0.37406233894E+02  0.23889115352E+03  0.27662018905E+03  0.12509000000E+03 0.  0.
         25    1    4    4    0    0 -0.79377738143E+01 -0.48012879821E+02  0.12028579222E+03  0.18023436074E+03  0.12509000000E+03 0.  0.
         25    1    3    3    0    0  0.56958293261E+02  0.85419113715E+02  0.37096370302E+03  0.40472490561E+03  0.12509000000E+03 0.  0.
<mgrwt>
<rscale>  2 0.45739894E+03</rscale>
<asrwt>0</asrwt>
<pdfrwt beam="1">  1       21 0.11703824E+00 0.45739894E+03</pdfrwt>
<pdfrwt beam="2">  1       21 0.96646186E-02 0.45739894E+03</pdfrwt>
<totfact> 0.44090235E+04</totfact>
</mgrwt>
</event>
<event>
 7    0  0.4712189E-002  0.4527411E+03  0.7546771E-02  0.1026908E+00
         21   -1    0    0  502  501  0.00000000000E+00  0.00000000000E+00  0.45529287619E+03  0.45529287619E+03  0.00000000000E+00 0.  1.
         21   -1    0    0  501  502 -0.00000000000E+00 -0.00000000000E+00 -0.11255093116E+03  0.11255093116E+03  0.00000000000E+00 0.  1.
      99926    2    1    2    0    0  0.17763568394E-14  0.00000000000E+00  0.34274194503E+03  0.56784380735E+03  0.45274114974E+03 0.  0.
      99925    2    3    3    0    0  0.10618217343E+02 -0.11018203394E+03  0.22616603936E+03  0.36415218498E+03  0.26306445850E+03 0.  0.
         25    1    3    3    0    0 -0.10618217343E+02  0.11018203394E+03  0.11657590567E+03  0.20369162237E+03  0.12509000000E+03 0.  0.
         25    1    4    4    0    0  0.44367649292E+02 -0.45377462016E+02  0.10333867122E+03  0.17422396917E+03  0.12509000000E+03 0.  0.
         25    1    4    4    0    0 -0.33749431950E+02 -0.64804571920E+02  0.12282736814E+03  0.18992821581E+03  0.12509000000E+03 0.  0.
<mgrwt>
<rscale>  2 0.45274115E+03</rscale>
<asrwt>0</asrwt>
<pdfrwt beam="1">  1       21 0.66954834E-01 0.45274115E+03</pdfrwt>
<pdfrwt beam="2">  1       21 0.16551608E-01 0.45274115E+03</pdfrwt>
<totfact> 0.61799124E+04</totfact>
</mgrwt>
</event>
<event>
 7    0  0.4712189E-002  0.4564698E+03  0.7546771E-02  0.1025810E+00
         21   -1    0    0  502  501  0.00000000000E+00  0.00000000000E+00  0.51872551941E+02  0.51872551941E+02  0.00000000000E+00 0. -1.
         21   -1    0    0  501  502 -0.00000000000E+00 -0.00000000000E+00 -0.10042145340E+04  0.10042145340E+04  0.00000000000E+00 0. -1.
      99926    2    1    2    0    0  0.35527136788E-14  0.00000000000E+00 -0.95234198206E+03  0.10560870859E+04  0.45646980437E+03 0.  0.
      99925    2    3    3    0    0 -0.25382734705E+02  0.67806905755E+02 -0.80383679730E+03  0.84885929415E+03  0.26299514233E+03 0.  0.
         25    1    4    4    0    0 -0.18494766849E+02  0.70791871346E+02 -0.48824368672E+03  0.50929652578E+03  0.12509000000E+03 0.  0.
         25    1    3    3    0    0  0.25382734705E+02 -0.67806905755E+02 -0.14850518476E+03  0.20722779179E+03  0.12509000000E+03 0.  0.
         25    1    4    4    0    0 -0.68879678566E+01 -0.29849655912E+01 -0.31559311058E+03  0.33956276837E+03  0.12509000000E+03 0.  0.
<mgrwt>
<rscale>  2 0.45646980E+03</rscale>
<asrwt>0</asrwt>
<pdfrwt beam="1">  1       21 0.76283165E-02 0.45646980E+03</pdfrwt>
<pdfrwt beam="2">  1       21 0.14767861E+00 0.45646980E+03</pdfrwt>
<totfact> 0.36632783E+04</totfact>
</mgrwt>
</event>
<event>
 7    0  0.4712189E-002  0.4548367E+03  0.7546771E-02  0.1026289E+00
         21   -1    0    0  502  501  0.00000000000E+00  0.00000000000E+00  0.41256410299E+03  0.41256410299E+03  0.00000000000E+00 0. -1.
         21   -1    0    0  501  502 -0.00000000000E+00 -0.00000000000E+00 -0.12536016989E+03  0.12536016989E+03  0.00000000000E+00 0. -1.
      99926    2    1    2    0    0 -0.71054273576E-14  0.00000000000E+00  0.28720393310E+03  0.53792427287E+03  0.45483670054E+03 0.  0.
      99925    2    3    3    0    0  0.48691966211E+02 -0.10219324579E+03  0.18173949444E+03  0.33896542542E+03  0.26278118032E+03 0.  0.
         25    1    3    3    0    0 -0.48691966211E+02  0.10219324579E+03  0.10546443866E+03  0.19895884746E+03  0.12509000000E+03 0.  0.
         25    1    4    4    0    0 -0.85313093386E+01 -0.73818874857E+02  0.86533752436E+02  0.16928558100E+03  0.12509000000E+03 0.  0.
         25    1    4    4    0    0  0.57223275549E+02 -0.28374370937E+02  0.95205742003E+02  0.16967984442E+03  0.12509000000E+03 0.  0.
<mgrwt>
<rscale>  2 0.45483670E+03</rscale>
<asrwt>0</asrwt>
<pdfrwt beam="1">  1       21 0.60671191E-01 0.45483670E+03</pdfrwt>
<pdfrwt beam="2">  1       21 0.18435319E-01 0.45483670E+03</pdfrwt>
<totfact> 0.62752671E+04</totfact>
</mgrwt>
</event>
<event>
 7    0  0.4712189E-002  0.4568203E+03  0.7546771E-02  0.1025707E+00
         21   -1    0    0  502  501  0.00000000000E+00  0.00000000000E+00  0.16490311997E+04  0.16490311997E+04  0.00000000000E+00 0.  1.
         21   -1    0    0  501  502 -0.00000000000E+00 -0.00000000000E+00 -0.31637486743E+02  0.31637486743E+02  0.00000000000E+00 0.  1.
      99926    2    1    2    0    0  0.71054273576E-14 -0.38580250106E-14  0.16173937130E+04  0.16806686865E+04  0.45682032669E+03 0.  0.
      99925    2    3    3    0    0  0.34796881992E+02  0.24430283644E+00  0.61345702189E+03  0.66837067180E+03  0.26301892429E+03 0.  0.
         25    1    4    4    0    0  0.24433998564E+02 -0.36210024236E+02  0.26674391796E+03  0.29783890278E+03  0.12509000000E+03 0.  0.
         25    1    3    3    0    0 -0.34796881992E+02 -0.24430283644E+00  0.10039366911E+04  0.10122980147E+04  0.12509000000E+03 0.  0.
         25    1    4    4    0    0  0.10362883428E+02  0.36454327073E+02  0.34671310393E+03  0.37053176902E+03  0.12509000000E+03 0.  0.
<mgrwt>
<rscale>  2 0.45682033E+03</rscale>
<asrwt>0</asrwt>
<pdfrwt beam="1">  1       21 0.24250453E+00 0.45682033E+03</pdfrwt>
<pdfrwt beam="2">  1       21 0.46525727E-02 0.45682033E+03</pdfrwt>
<totfact> 0.19391320E+04</totfact>
</mgrwt>
</event>
<event>
 7    0  0.4712189E-002  0.4680774E+03  0.7546771E-02  0.1022464E+00
         21   -1    0    0  502  501  0.00000000000E+00  0.00000000000E+00  0.11303847307E+04  0.11303847307E+04  0.00000000000E+00 0. -1.
         21   -1    0    0  501  502 -0.00000000000E+00 -0.00000000000E+00 -0.48456174555E+02  0.48456174555E+02  0.00000000000E+00 0. -1.
      99926    2    1    2    0    0  0.35527136788E-14  0.00000000000E+00  0.10819285562E+04  0.11788409053E+04  0.46807742875E+03 0.  0.
      99925    2    3    3    0    0  0.85938034385E+01  0.96359627227E+02  0.87267838080E+03  0.91655828060E+03  0.26296861829E+03 0.  0.
         25    1    4    4    0    0 -0.33709947245E+02  0.33207183112E+02  0.42790430615E+03  0.44831761160E+03  0.12509000000E+03 0.  0.
         25    1    4    4    0    0  0.42303750683E+02  0.63152444115E+02  0.44477407465E+03  0.46824066900E+03  0.12509000000E+03 0.  0.
         25    1    3    3    0    0 -0.85938034385E+01 -0.96359627227E+02  0.20925017537E+03  0.26228262468E+03  0.12509000000E+03 0.  0.
<mgrwt>
<rscale>  2 0.46807743E+03</rscale>
<asrwt>0</asrwt>
<pdfrwt beam="1">  1       21 0.16623303E+00 0.46807743E+03</pdfrwt>
<pdfrwt beam="2">  1       21 0.71259087E-02 0.46807743E+03</pdfrwt>
<totfact> 0.29691185E+04</totfact>
</mgrwt>
</event>
<event>
 7    0  0.4712189E-002  0.4532766E+03  0.7546771E-02  0.1026749E+00
         21   -1    0    0  502  501  0.00000000000E+00  0.00000000000E+00  0.37856462078E+03  0.37856462078E+03  0.00000000000E+00 0. -1.
         21   -1    0    0  501  502 -0.00000000000E+00 -0.00000000000E+00 -0.13568333075E+03  0.13568333075E+03  0.00000000000E+00 0. -1.
      99926    2    1    2    0    0  0.35527136788E-14  0.00000000000E+00  0.24288129003E+03  0.51424795153E+03  0.45327655422E+03 0.  0.
      99925    2    3    3    0    0  0.15337264280E+02  0.69085502696E+01  0.27820931758E+03  0.38318103209E+03  0.26295307418E+03 0.  0.
         25    1    3    3    0    0 -0.15337264280E+02 -0.69085502696E+01 -0.35328027542E+02  0.13106691944E+03  0.12509000000E+03 0.  0.
         25    1    4    4    0    0  0.40611653835E+02 -0.50130318047E+01  0.10888461870E+03  0.17081511995E+03  0.12509000000E+03 0.  0.
         25    1    4    4    0    0 -0.25274389554E+02  0.11921582074E+02  0.16932469888E+03  0.21236591214E+03  0.12509000000E+03 0.  0.
<mgrwt>
<rscale>  2 0.45327655E+03</rscale>
<asrwt>0</asrwt>
<pdfrwt beam="1">  1       21 0.55671267E-01 0.45327655E+03</pdfrwt>
<pdfrwt beam="2">  1       21 0.19953431E-01 0.45327655E+03</pdfrwt>
<totfact> 0.65167506E+04</totfact>
</mgrwt>
</event>
<event>
 7    0  0.4712189E-002  0.4526510E+03  0.7546771E-02  0.1026934E+00
         21   -1    0    0  502  501  0.00000000000E+00  0.00000000000E+00  0.28697628262E+02  0.28697628262E+02  0.00000000000E+00 0.  1.
         21   -1    0    0  501  502 -0.00000000000E+00 -0.00000000000E+00 -0.17849288242E+04  0.17849288242E+04  0.00000000000E+00 0.  1.
      99926    2    1    2    0    0  0.00000000000E+00  0.00000000000E+00 -0.17562311960E+04  0.18136264525E+04  0.45265096431E+03 0.  0.
      99925    2    3    3    0    0 -0.34651277484E+02 -0.88585877529E+02 -0.13352127406E+04  0.13642355129E+04  0.26324380955E+03 0.  0.
         25    1    4    4    0    0 -0.58377530446E+01 -0.83477324044E+02 -0.77554638032E+03  0.79001407526E+03  0.12509000000E+03 0.  0.
         25    1    4    4    0    0 -0.28813524439E+02 -0.51085534847E+01 -0.55966636024E+03  0.57422143759E+03  0.12509000000E+03 0.  0.
         25    1    3    3    0    0  0.34651277484E+02  0.88585877529E+02 -0.42101845541E+03  0.44939093964E+03  0.12509000000E+03 0.  0.
<mgrwt>
<rscale>  2 0.45265096E+03</rscale>
<asrwt>0</asrwt>
<pdfrwt beam="1">  1       21 0.42202398E-02 0.45265096E+03</pdfrwt>
<pdfrwt beam="2">  1       21 0.26248951E+00 0.45265096E+03</pdfrwt>
<totfact> 0.17312666E+04</totfact>
</mgrwt>
</event>
<event>
 7    0  0.4712189E-002  0.4639054E+03  0.7546771E-02  0.1023655E+00
         21   -1    0    0  502  501  0.00000000000E+00  0.00000000000E+00  0.31322386919E+03  0.31322386919E+03  0.00000000000E+00 0. -1.
         21   -1    0    0  501  502 -0.00000000000E+00 -0.00000000000E+00 -0.17176870887E+03  0.17176870887E+03  0.00000000000E+00 0. -1.
      99926    2    1    2    0    0  0.17763568394E-14  0.00000000000E+00  0.14145516032E+03  0.48499257806E+03  0.46390541966E+03 0.  0.
      99925    2    3    3    0    0  0.14530310452E+02  0.11070292293E+03  0.13788984425E+03  0.31728304749E+03  0.26303736618E+03 0.  0.
         25    1    3    3    0    0 -0.14530310452E+02 -0.11070292293E+03  0.35653160638E+01  0.16770953057E+03  0.12509000000E+03 0.  0.
         25    1    4    4    0    0 -0.16092354084E+02  0.40717881927E+02  0.99623371687E+02  0.16579877579E+03  0.12509000000E+03 0.  0.
         25    1    4    4    0    0  0.30622664536E+02  0.69985041001E+02  0.38266472565E+02  0.15148427169E+03  0.12509000000E+03 0.  0.
<mgrwt>
<rscale>  2 0.46390542E+03</rscale>
<asrwt>0</asrwt>
<pdfrwt beam="1">  1       21 0.46062334E-01 0.46390542E+03</pdfrwt>
<pdfrwt beam="2">  1       21 0.25260104E-01 0.46390542E+03</pdfrwt>
<totfact> 0.61849589E+04</totfact>
</mgrwt>
</event>
<event>
 7    0  0.4712189E-002  0.4500221E+03  0.7546771E-02  0.1027715E+00
         21   -1    0    0  502  501  0.00000000000E+00  0.00000000000E+00  0.27111892122E+02  0.27111892122E+02  0.00000000000E+00 0. -1.
         21   -1    0    0  501  502 -0.00000000000E+00 -0.00000000000E+00 -0.18674452943E+04  0.18674452943E+04  0.00000000000E+00 0. -1.
      99926    2    1    2    0    0  0.00000000000E+00  0.00000000000E+00 -0.18403334022E+04  0.18945571864E+04  0.45002211218E+03 0.  0.
      99925    2    3    3    0    0 -0.10024369623E+03 -0.34933776832E+02 -0.10747606353E+04  0.11116023111E+04  0.26321114590E+03 0.  0.
         25    1    3    3    0    0  0.10024369623E+03  0.34933776832E+02 -0.76557276685E+03  0.78295487536E+03  0.12509000000E+03 0.  0.
         25    1    4    4    0    0 -0.55166807020E+02 -0.21704045565E+02 -0.70444672654E+03  0.71791861713E+03  0.12509000000E+03 0.  0.
         25    1    4    4    0    0 -0.45076889208E+02 -0.13229731267E+02 -0.37031390877E+03  0.39368369392E+03  0.12509000000E+03 0.  0.
<mgrwt>
<rscale>  2 0.45002211E+03</rscale>
<asrwt>0</asrwt>
<pdfrwt beam="1">  1       21 0.39870438E-02 0.45002211E+03</pdfrwt>
<pdfrwt beam="2">  1       21 0.27462425E+00 0.45002211E+03</pdfrwt>
<totfact> 0.16122525E+04</totfact>
</mgrwt>
</event>
<event>
 7    0  0.4712189E-002  0.4518651E+03  0.7546771E-02  0.1027167E+00
         21   -1    0    0  502  501  0.00000000000E+00  0.00000000000E+00  0.66101673233E+02  0.66101673233E+02  0.00000000000E+00 0.  1.
         21   -1    0    0  501  502 -0.00000000000E+00 -0.00000000000E+00 -0.77222734285E+03  0.77222734285E+03  0.00000000000E+00 0.  1.
      99926    2    1    2    0    0  0.00000000000E+00  0.00000000000E+00 -0.70612566962E+03  0.83832901609E+03  0.45186511031E+03 0.  0.
      99925    2    3    3    0    0  0.66370348692E+02 -0.87814210333E+02 -0.43606677675E+03  0.52100320176E+03  0.26300901835E+03 0.  0.
         25    1    4    4    0    0  0.34612594809E+02 -0.40225610255E+02 -0.29060558156E+03  0.32080405791E+03  0.12509000000E+03 0.  0.
         25    1    4    4    0    0  0.31757753884E+02 -0.47588600079E+02 -0.14546119519E+03  0.20019914384E+03  0.12509000000E+03 0.  0.
         25    1    3    3    0    0 -0.66370348692E+02  0.87814210333E+02 -0.27005889287E+03  0.31732581433E+03  0.12509000000E+03 0.  0.
<mgrwt>
<rscale>  2 0.45186511E+03</rscale>
<asrwt>0</asrwt>
<pdfrwt beam="1">  1       21 0.97208353E-02 0.45186511E+03</pdfrwt>
<pdfrwt beam="2">  1       21 0.11356283E+00 0.45186511E+03</pdfrwt>
<totfact> 0.47114174E+04</totfact>
</mgrwt>
</event>
<event>
 7    0  0.4712189E-002  0.4603576E+03  0.7546771E-02  0.1024678E+00
         21   -1    0    0  502  501  0.00000000000E+00  0.00000000000E+00  0.16309672942E+03  0.16309672942E+03  0.00000000000E+00 0.  1.
         21   -1    0    0  501  502 -0.00000000000E+00 -0.00000000000E+00 -0.32485183731E+03  0.32485183731E+03  0.00000000000E+00 0.  1.
      99926    2    1    2    0    0  0.00000000000E+00  0.00000000000E+00 -0.16175510788E+03  0.48794856673E+03  0.46035756630E+03 0.  0.
      99925    2    3    3    0    0  0.53908797154E+02 -0.22819662181E+02  0.74052255541E+01  0.26956903037E+03  0.26303180297E+03 0.  0.
         25    1    3    3    0    0 -0.53908797154E+02  0.22819662181E+02 -0.16916033344E+03  0.21837953636E+03  0.12509000000E+03 0.  0.
         25    1    4    4    0    0  0.52154542537E+02 -0.40560890155E+02 -0.10945661036E+02  0.14188938548E+03  0.12509000000E+03 0.  0.
         25    1    4    4    0    0  0.17542546171E+01  0.17741227974E+02  0.18350886590E+02  0.12767964488E+03  0.12509000000E+03 0.  0.
<mgrwt>
<rscale>  2 0.46035757E+03</rscale>
<asrwt>0</asrwt>
<pdfrwt beam="1">  1       21 0.23984813E-01 0.46035757E+03</pdfrwt>
<pdfrwt beam="2">  1       21 0.47772329E-01 0.46035757E+03</pdfrwt>
<totfact> 0.63386852E+04</totfact>
</mgrwt>
</event>
<event>
 7    0  0.4712189E-002  0.4570233E+03  0.7546771E-02  0.1025648E+00
         21   -1    0    0  502  501  0.00000000000E+00  0.00000000000E+00  0.26897809784E+03  0.26897809784E+03  0.00000000000E+00 0. -1.
         21   -1    0    0  501  502 -0.00000000000E+00 -0.00000000000E+00 -0.19413320286E+03  0.19413320286E+03  0.00000000000E+00 0. -1.
      99926    2    1    2    0    0  0.00000000000E+00  0.00000000000E+00  0.74844894979E+02  0.46311130071E+03  0.45702332385E+03 0.  0.
      99925    2    3    3    0    0 -0.57664108417E+02 -0.93611431195E+02  0.18291886497E+02  0.28723065846E+03  0.26472364571E+03 0.  0.
         25    1    4    4    0    0 -0.81430124038E+01 -0.32968641552E+02 -0.27923844704E+02  0.13259143705E+03  0.12509000000E+03 0.  0.
         25    1    3    3    0    0  0.57664108417E+02  0.93611431195E+02  0.56553008482E+02  0.17588064225E+03  0.12509000000E+03 0.  0.
         25    1    4    4    0    0 -0.49521096014E+02 -0.60642789643E+02  0.46215731201E+02  0.15463922140E+03  0.12509000000E+03 0.  0.
<mgrwt>
<rscale>  2 0.45702332E+03</rscale>
<asrwt>0</asrwt>
<pdfrwt beam="1">  1       21 0.39555603E-01 0.45702332E+03</pdfrwt>
<pdfrwt beam="2">  1       21 0.28549000E-01 0.45702332E+03</pdfrwt>
<totfact> 0.66868496E+04</totfact>
</mgrwt>
</event>
<event>
 7    0  0.4712189E-002  0.4592175E+03  0.7546771E-02  0.1025008E+00
         21   -1    0    0  502  501  0.00000000000E+00  0.00000000000E+00  0.25446658189E+02  0.25446658189E+02  0.00000000000E+00 0.  1.
         21   -1    0    0  501  502 -0.00000000000E+00 -0.00000000000E+00 -0.20717920659E+04  0.20717920659E+04  0.00000000000E+00 0.  1.
      99926    2    1    2    0    0  0.00000000000E+00 -0.17763568394E-14 -0.20463454077E+04  0.20972387241E+04  0.45921752815E+03 0.  0.
      99925    2    3    3    0    0  0.11394952162E+02  0.13753051091E+02 -0.18112221554E+04  0.18303128107E+04  0.26305949427E+03 0.  0.
         25    1    3    3    0    0 -0.11394952162E+02 -0.13753051091E+02 -0.23512325229E+03  0.26692591335E+03  0.12509000000E+03 0.  0.
         25    1    4    4    0    0  0.19387642444E+02  0.39455062725E+01 -0.11735756795E+04  0.11803892711E+04  0.12509000000E+03 0.  0.
         25    1    4    4    0    0 -0.79926902820E+01  0.98075448187E+01 -0.63764647595E+03  0.64992353968E+03  0.12509000000E+03 0.  0.
<mgrwt>
<rscale>  2 0.45921753E+03</rscale>
<asrwt>0</asrwt>
<pdfrwt beam="1">  1       21 0.37421554E-02 0.45921753E+03</pdfrwt>
<pdfrwt beam="2">  1       21 0.30467532E+00 0.45921753E+03</pdfrwt>
<totfact> 0.11795399E+04</totfact>
</mgrwt>
</event>
<event>
 7    0  0.4712189E-002  0.4543263E+03  0.7546771E-02  0.1026440E+00
         21   -1    0    0  502  501  0.00000000000E+00  0.00000000000E+00  0.11103812911E+03  0.11103812911E+03  0.00000000000E+00 0. -1.
         21   -1    0    0  501  502 -0.00000000000E+00 -0.00000000000E+00 -0.46473310851E+03  0.46473310851E+03  0.00000000000E+00 0. -1.
      99926    2    1    2    0    0  0.00000000000E+00  0.00000000000E+00 -0.35369497940E+03  0.57577123762E+03  0.45432629201E+03 0.  0.
      99925    2    3    3    0    0 -0.97225637603E+01 -0.75265413098E+02 -0.11755926025E+03  0.29798175508E+03  0.26308465564E+03 0.  0.
         25    1    3    3    0    0  0.97225637603E+01  0.75265413098E+02 -0.23613571915E+03  0.27778948254E+03  0.12509000000E+03 0.  0.
         25    1    4    4    0    0  0.14440812861E+02 -0.33198883433E+01 -0.38729430837E+02  0.13178404929E+03  0.12509000000E+03 0.  0.
         25    1    4    4    0    0 -0.24163376621E+02 -0.71945524755E+02 -0.78829829417E+02  0.16619770578E+03  0.12509000000E+03 0.  0.
<mgrwt>
<rscale>  2 0.45432629E+03</rscale>
<asrwt>0</asrwt>
<pdfrwt beam="1">  1       21 0.16329136E-01 0.45432629E+03</pdfrwt>
<pdfrwt beam="2">  1       21 0.68343105E-01 0.45432629E+03</pdfrwt>
<totfact> 0.60516671E+04</totfact>
</mgrwt>
</event>
<event>
 7    0  0.4712189E-002  0.4567415E+03  0.7546771E-02  0.1025731E+00
         21   -1    0    0  502  501  0.00000000000E+00  0.00000000000E+00  0.54226465179E+03  0.54226465179E+03  0.00000000000E+00 0. -1.
         21   -1    0    0  501  502 -0.00000000000E+00 -0.00000000000E+00 -0.96176643928E+02  0.96176643928E+02  0.00000000000E+00 0. -1.
      99926    2    1    2    0    0  0.00000000000E+00  0.00000000000E+00  0.44608800786E+03  0.63844129572E+03  0.45674147755E+03 0.  0.
      99925    2    3    3    0    0  0.65006431210E+02 -0.53282453487E+02  0.38960436797E+03  0.47749793418E+03  0.26295980235E+03 0.  0.
         25    1    4    4    0    0  0.59181797283E+02 -0.33386175838E+02  0.15248271994E+03  0.20860395454E+03  0.12509000000E+03 0.  0.
         25    1    4    4    0    0  0.58246339273E+01 -0.19896277649E+02  0.23712164802E+03  0.26889397964E+03  0.12509000000E+03 0.  0.
         25    1    3    3    0    0 -0.65006431210E+02  0.53282453487E+02  0.56483639891E+02  0.16094336154E+03  0.12509000000E+03 0.  0.
<mgrwt>
<rscale>  2 0.45674148E+03</rscale>
<asrwt>0</asrwt>
<pdfrwt beam="1">  1       21 0.79744800E-01 0.45674148E+03</pdfrwt>
<pdfrwt beam="2">  1       21 0.14143624E-01 0.45674148E+03</pdfrwt>
<totfact> 0.55604183E+04</totfact>
</mgrwt>
</event>
<event>
 7    0  0.4712189E-002  0.4530292E+03  0.7546771E-02  0.1026823E+00
         21   -1    0    0  502  501  0.00000000000E+00  0.00000000000E+00  0.79717517836E+02  0.79717517836E+02  0.00000000000E+00 0. -1.
         21   -1    0    0  501  502 -0.00000000000E+00 -0.00000000000E+00 -0.64363360191E+03  0.64363360191E+03  0.00000000000E+00 0. -1.
      99926    2    1    2    0    0 -0.14210854715E-13  0.00000000000E+00 -0.56391608408E+03  0.72335111975E+03  0.45302924029E+03 0.  0.
      99925    2    3    3    0    0 -0.78788990382E+02 -0.76135328095E+02 -0.32399904424E+03  0.43144019618E+03  0.26298473155E+03 0.  0.
         25    1    4    4    0    0 -0.67604847456E+01 -0.24232378127E+02 -0.11207361048E+03  0.16982613041E+03  0.12509000000E+03 0.  0.
         25    1    4    4    0    0 -0.72028505636E+02 -0.51902949968E+02 -0.21192543375E+03  0.26161406577E+03  0.12509000000E+03 0.  0.
         25    1    3    3    0    0  0.78788990382E+02  0.76135328095E+02 -0.23991703984E+03  0.29191092356E+03  0.12509000000E+03 0.  0.
<mgrwt>
<rscale>  2 0.45302924E+03</rscale>
<asrwt>0</asrwt>
<pdfrwt beam="1">  1       21 0.11723164E-01 0.45302924E+03</pdfrwt>
<pdfrwt beam="2">  1       21 0.94652005E-01 0.45302924E+03</pdfrwt>
<totfact> 0.52461884E+04</totfact>
</mgrwt>
</event>
<event>
 7    0  0.4712189E-002  0.4574578E+03  0.7546771E-02  0.1025521E+00
         21   -1    0    0  502  501  0.00000000000E+00  0.00000000000E+00  0.28322290077E+02  0.28322290077E+02  0.00000000000E+00 0. -1.
         21   -1    0    0  501  502 -0.00000000000E+00 -0.00000000000E+00 -0.18471993763E+04  0.18471993763E+04  0.00000000000E+00 0. -1.
      99926    2    1    2    0    0  0.00000000000E+00  0.71054273576E-14 -0.18188770862E+04  0.18755216664E+04  0.45745783004E+03 0.  0.
      99925    2    3    3    0    0  0.82516341147E+02  0.41390303539E+02 -0.14259456320E+04  0.14529524536E+04  0.26311173135E+03 0.  0.
         25    1    3    3    0    0 -0.82516341147E+02 -0.41390303539E+02 -0.39293145425E+03  0.42256921282E+03  0.12509000000E+03 0.  0.
         25    1    4    4    0    0  0.37213925567E+02  0.44431863075E+02 -0.89651525121E+03  0.90705356538E+03  0.12509000000E+03 0.  0.
         25    1    4    4    0    0  0.45302415580E+02 -0.30415595367E+01 -0.52943038076E+03  0.54589888817E+03  0.12509000000E+03 0.  0.
<mgrwt>
<rscale>  2 0.45745783E+03</rscale>
<asrwt>0</asrwt>
<pdfrwt beam="1">  1       21 0.41650419E-02 0.45745783E+03</pdfrwt>
<pdfrwt beam="2">  1       21 0.27164702E+00 0.45745783E+03</pdfrwt>
<totfact> 0.15551720E+04</totfact>
</mgrwt>
</event>
<event>
 7    0  0.4712189E-002  0.4495004E+03  0.7546771E-02  0.1027871E+00
         21   -1    0    0  502  501  0.00000000000E+00  0.00000000000E+00  0.10715399741E+03  0.10715399741E+03  0.00000000000E+00 0. -1.
         21   -1    0    0  501  502 -0.00000000000E+00 -0.00000000000E+00 -0.47140247308E+03  0.47140247308E+03  0.00000000000E+00 0. -1.
      99926    2    1    2    0    0  0.00000000000E+00  0.00000000000E+00 -0.36424847567E+03  0.57855647048E+03  0.44950043105E+03 0.  0.
      99925    2    3    3    0    0  0.47157977427E+02  0.97017999157E+02 -0.22535259566E+03  0.36274187279E+03  0.26298575419E+03 0.  0.
         25    1    3    3    0    0 -0.47157977427E+02 -0.97017999157E+02 -0.13889588001E+03  0.21581459769E+03  0.12509000000E+03 0.  0.
         25    1    4    4    0    0  0.21752764532E+02  0.75792607639E+01 -0.11790163879E+03  0.17343278954E+03  0.12509000000E+03 0.  0.
         25    1    4    4    0    0  0.25405212895E+02  0.89438738393E+02 -0.10745095687E+03  0.18930908325E+03  0.12509000000E+03 0.  0.
<mgrwt>
<rscale>  2 0.44950043E+03</rscale>
<asrwt>0</asrwt>
<pdfrwt beam="1">  1       21 0.15757941E-01 0.44950043E+03</pdfrwt>
<pdfrwt beam="2">  1       21 0.69323892E-01 0.44950043E+03</pdfrwt>
<totfact> 0.62699956E+04</totfact>
</mgrwt>
</event>
<event>
 6    0  0.4712189E-002  0.4564443E+03  0.7546771E-02  0.1025818E+00
         21   -1    0    0  502  501  0.00000000000E+00  0.00000000000E+00  0.47507932227E+02  0.47507932227E+02  0.00000000000E+00 0.  1.
         21   -1    0    0  501  502 -0.00000000000E+00 -0.00000000000E+00 -0.10963504097E+04  0.10963504097E+04  0.00000000000E+00 0.  1.
      99926    2    1    2    0    0 -0.14210854715E-13 -0.14210854715E-13 -0.10488424775E+04  0.11438583419E+04  0.45644426149E+03 0.  0.
         25    1    3    3    0    0 -0.46563465063E+02  0.77629566291E+02 -0.35054427773E+03  0.38304478145E+03  0.12509000000E+03 0.  0.
         25    1    3    3    0    0 -0.23434806946E+02  0.12392615547E+01 -0.41031810709E+03  0.42960351843E+03  0.12509000000E+03 0.  0.
         25    1    3    3    0    0  0.69998272008E+02 -0.78868827846E+02 -0.28798009265E+03  0.33121004205E+03  0.12509000000E+03 0.  0.
<mgrwt>
<rscale>  2 0.45644426E+03</rscale>
<asrwt>0</asrwt>
<pdfrwt beam="1">  1       21 0.69864607E-02 0.45644426E+03</pdfrwt>
<pdfrwt beam="2">  1       21 0.16122800E+00 0.45644426E+03</pdfrwt>
<totfact> 0.33608169E+04</totfact>
</mgrwt>
</event>
<event>
 7    0  0.4712189E-002  0.4552586E+03  0.7546771E-02  0.1026165E+00
         21   -1    0    0  502  501  0.00000000000E+00  0.00000000000E+00  0.66269437032E+03  0.66269437032E+03  0.00000000000E+00 0. -1.
         21   -1    0    0  501  502 -0.00000000000E+00 -0.00000000000E+00 -0.78188530597E+02  0.78188530597E+02  0.00000000000E+00 0. -1.
      99926    2    1    2    0    0 -0.71054273576E-14  0.00000000000E+00  0.58450583972E+03  0.74088290091E+03  0.45525860365E+03 0.  0.
      99925    2    3    3    0    0  0.55648789367E+02  0.74297759409E+02  0.26152128903E+03  0.38229752350E+03  0.26294689016E+03 0.  0.
         25    1    4    4    0    0 -0.10740256704E+02  0.45825604802E+02  0.11171420312E+03  0.17419216529E+03  0.12509000000E+03 0.  0.
         25    1    4    4    0    0  0.66389046071E+02  0.28472154607E+02  0.14980708591E+03  0.20810535821E+03  0.12509000000E+03 0.  0.
         25    1    3    3    0    0 -0.55648789367E+02 -0.74297759409E+02  0.32298455069E+03  0.35858537742E+03  0.12509000000E+03 0.  0.
<mgrwt>
<rscale>  2 0.45525860E+03</rscale>
<asrwt>0</asrwt>
<pdfrwt beam="1">  1       21 0.97455052E-01 0.45525860E+03</pdfrwt>
<pdfrwt beam="2">  1       21 0.11498314E-01 0.45525860E+03</pdfrwt>
<totfact> 0.50635833E+04</totfact>
</mgrwt>
</event>
<event>
 7    0  0.4712189E-002  0.4551751E+03  0.7546771E-02  0.1026190E+00
         21   -1    0    0  502  501  0.00000000000E+00  0.00000000000E+00  0.61139939209E+03  0.61139939209E+03  0.00000000000E+00 0.  1.
         21   -1    0    0  501  502 -0.00000000000E+00 -0.00000000000E+00 -0.84717265272E+02  0.84717265272E+02  0.00000000000E+00 0.  1.
      99926    2    1    2    0    0  0.00000000000E+00  0.00000000000E+00  0.52668212682E+03  0.69611665736E+03  0.45517506297E+03 0.  0.
      99925    2    3    3    0    0  0.85029497988E+02  0.67253565532E+02  0.38167642478E+03  0.47605480395E+03  0.26305555596E+03 0.  0.
         25    1    3    3    0    0 -0.85029497988E+02 -0.67253565532E+02  0.14500570203E+03  0.22006185341E+03  0.12509000000E+03 0.  0.
         25    1    4    4    0    0  0.81763173893E+02  0.38620069908E+02  0.18152486869E+03  0.23827612649E+03  0.12509000000E+03 0.  0.
         25    1    4    4    0    0  0.32663240953E+01  0.28633495625E+02  0.20015155610E+03  0.23777867746E+03  0.12509000000E+03 0.  0.
<mgrwt>
<rscale>  2 0.45517506E+03</rscale>
<asrwt>0</asrwt>
<pdfrwt beam="1">  1       21 0.89911673E-01 0.45517506E+03</pdfrwt>
<pdfrwt beam="2">  1       21 0.12458422E-01 0.45517506E+03</pdfrwt>
<totfact> 0.53041205E+04</totfact>
</mgrwt>
</event>
<event>
 7    0  0.4712189E-002  0.4536044E+03  0.7546771E-02  0.1026653E+00
         21   -1    0    0  502  501  0.00000000000E+00  0.00000000000E+00  0.23195654809E+03  0.23195654809E+03  0.00000000000E+00 0. -1.
         21   -1    0    0  501  502 -0.00000000000E+00 -0.00000000000E+00 -0.22176242474E+03  0.22176242474E+03  0.00000000000E+00 0. -1.
      99926    2    1    2    0    0  0.14210854715E-13 -0.22204460493E-14  0.10194123351E+02  0.45371897283E+03  0.45360443798E+03 0.  0.
      99925    2    3    3    0    0  0.96880158264E+02  0.38543349968E+01 -0.49930153208E+02  0.28441729624E+03  0.26267766795E+03 0.  0.
         25    1    4    4    0    0  0.30633753676E+02 -0.30879067034E+02 -0.39936194264E+02  0.13832697263E+03  0.12509000000E+03 0.  0.
         25    1    3    3    0    0 -0.96880158264E+02 -0.38543349968E+01  0.60124276559E+02  0.16930167659E+03  0.12509000000E+03 0.  0.
         25    1    4    4    0    0  0.66246404588E+02  0.34733402031E+02 -0.99939589432E+01  0.14609032361E+03  0.12509000000E+03 0.  0.
<mgrwt>
<rscale>  2 0.45360444E+03</rscale>
<asrwt>0</asrwt>
<pdfrwt beam="1">  1       21 0.34111257E-01 0.45360444E+03</pdfrwt>
<pdfrwt beam="2">  1       21 0.32612121E-01 0.45360444E+03</pdfrwt>
<totfact> 0.69409413E+04</totfact>
</mgrwt>
</event>
<event>
 6    0  0.4712189E-002  0.4438561E+03  0.7546771E-02  0.1029570E+00
         21   -1    0    0  502  501  0.00000000000E+00  0.00000000000E+00  0.73809015283E+03  0.73809015283E+03  0.00000000000E+00 0.  1.
         21   -1    0    0  501  502 -0.00000000000E+00 -0.00000000000E+00 -0.66729058820E+02  0.66729058820E+02  0.00000000000E+00 0.  1.
      99926    2    1    2    0    0 -0.35527136788E-14  0.00000000000E+00  0.67136109401E+03  0.80481921165E+03  0.44385610832E+03 0.  0.
         25    1    3    3    0    0  0.34235141844E+02 -0.15082385050E+02  0.23814884359E+03  0.27159142674E+03  0.12509000000E+03 0.  0.
         25    1    3    3    0    0 -0.21946922634E+02 -0.82770215470E+02  0.20841889062E+03  0.25771790401E+03  0.12509000000E+03 0.  0.
         25    1    3    3    0    0 -0.12288219210E+02  0.97852600520E+02  0.22479335980E+03  0.27550988089E+03  0.12509000000E+03 0.  0.
<mgrwt>
<rscale>  2 0.44385611E+03</rscale>
<asrwt>0</asrwt>
<pdfrwt beam="1">  1       21 0.10854266E+00 0.44385611E+03</pdfrwt>
<pdfrwt beam="2">  1       21 0.98130973E-02 0.44385611E+03</pdfrwt>
<totfact> 0.51926988E+04</totfact>
</mgrwt>
</event>
<event>
 7    0  0.4712189E-002  0.4568588E+03  0.7546771E-02  0.1025696E+00
         21   -1    0    0  502  501  0.00000000000E+00  0.00000000000E+00  0.36132615023E+03  0.36132615023E+03  0.00000000000E+00 0. -1.
         21   -1    0    0  501  502 -0.00000000000E+00 -0.00000000000E+00 -0.14441244696E+03  0.14441244696E+03  0.00000000000E+00 0. -1.
      99926    2    1    2    0    0  0.14210854715E-13  0.00000000000E+00  0.21691370328E+03  0.50573859719E+03  0.45685881191E+03 0.  0.
      99925    2    3    3    0    0  0.11103853460E+03 -0.25791865561E+02  0.11601521047E+03  0.30870359917E+03  0.26238065207E+03 0.  0.
         25    1    4    4    0    0  0.74544373988E+02 -0.46396869311E+02  0.47455411644E+02  0.16002830178E+03  0.12509000000E+03 0.  0.
         25    1    3    3    0    0 -0.11103853460E+03  0.25791865561E+02  0.10089849280E+03  0.19703499802E+03  0.12509000000E+03 0.  0.
         25    1    4    4    0    0  0.36494160613E+02  0.20605003751E+02  0.68559798831E+02  0.14867529739E+03  0.12509000000E+03 0.  0.
<mgrwt>
<rscale>  2 0.45685881E+03</rscale>
<asrwt>0</asrwt>
<pdfrwt beam="1">  1       21 0.53136199E-01 0.45685881E+03</pdfrwt>
<pdfrwt beam="2">  1       21 0.21237124E-01 0.45685881E+03</pdfrwt>
<totfact> 0.63921048E+04</totfact>
</mgrwt>
</event>
<event>
 7    0  0.4712189E-002  0.4533521E+03  0.7546771E-02  0.1026727E+00
         21   -1    0    0  502  501  0.00000000000E+00  0.00000000000E+00  0.45627039050E+03  0.45627039050E+03  0.00000000000E+00 0.  1.
         21   -1    0    0  501  502 -0.00000000000E+00 -0.00000000000E+00 -0.11261313375E+03  0.11261313375E+03  0.00000000000E+00 0.  1.
      99926    2    1    2    0    0 -0.71054273576E-14  0.00000000000E+00  0.34365725674E+03  0.56888352425E+03  0.45335213030E+03 0.  0.
      99925    2    3    3    0    0  0.62217083005E+02 -0.91461081035E+02  0.23577556183E+03  0.37008195746E+03  0.26293429772E+03 0.  0.
         25    1    3    3    0    0 -0.62217083005E+02  0.91461081035E+02  0.10788169492E+03  0.19880156679E+03  0.12509000000E+03 0.  0.
         25    1    4    4    0    0  0.62091061316E+02 -0.26969705686E+02  0.95120982455E+02  0.17110866233E+03  0.12509000000E+03 0.  0.
         25    1    4    4    0    0  0.12602168827E+00 -0.64491375349E+02  0.14065457937E+03  0.19897329513E+03  0.12509000000E+03 0.  0.
<mgrwt>
<rscale>  2 0.45335213E+03</rscale>
<asrwt>0</asrwt>
<pdfrwt beam="1">  1       21 0.67098586E-01 0.45335213E+03</pdfrwt>
<pdfrwt beam="2">  1       21 0.16560755E-01 0.45335213E+03</pdfrwt>
<totfact> 0.61432293E+04</totfact>
</mgrwt>
</event>
<event>
 7    0  0.4712189E-002  0.4504135E+03  0.7546771E-02  0.1027599E+00
         21   -1    0    0  502  501  0.00000000000E+00  0.00000000000E+00  0.39570339142E+02  0.39570339142E+02  0.00000000000E+00 0.  1.
         21   -1    0    0  501  502 -0.00000000000E+00 -0.00000000000E+00 -0.12817194421E+04  0.12817194421E+04  0.00000000000E+00 0.  1.
      99926    2    1    2    0    0  0.00000000000E+00  0.00000000000E+00 -0.12421491030E+04  0.13212897813E+04  0.45041346787E+03 0.  0.
      99925    2    3    3    0    0  0.31241816559E+02  0.75946143457E+02 -0.57647611011E+03  0.63900544952E+03  0.26317179024E+03 0.  0.
         25    1    3    3    0    0 -0.31241816559E+02 -0.75946143457E+02 -0.66567299285E+03  0.68228433173E+03  0.12509000000E+03 0.  0.
         25    1    4    4    0    0 -0.16749484548E+02  0.61329051271E+02 -0.27307772887E+03  0.30701913925E+03  0.12509000000E+03 0.  0.
         25    1    4    4    0    0  0.47991301107E+02  0.14617092185E+02 -0.30339838125E+03  0.33198631027E+03  0.12509000000E+03 0.  0.
<mgrwt>
<rscale>  2 0.45041347E+03</rscale>
<asrwt>0</asrwt>
<pdfrwt beam="1">  1       21 0.58191677E-02 0.45041347E+03</pdfrwt>
<pdfrwt beam="2">  1       21 0.18848815E+00 0.45041347E+03</pdfrwt>
<totfact> 0.29542277E+04</totfact>
</mgrwt>
</event>
<event>
 7    0  0.4712189E-002  0.4632586E+03  0.7546771E-02  0.1023840E+00
         21   -1    0    0  502  501  0.00000000000E+00  0.00000000000E+00  0.23538953087E+03  0.23538953087E+03  0.00000000000E+00 0.  1.
         21   -1    0    0  501  502 -0.00000000000E+00 -0.00000000000E+00 -0.22792914385E+03  0.22792914385E+03  0.00000000000E+00 0.  1.
      99926    2    1    2    0    0  0.14210854715E-13  0.00000000000E+00  0.74603870141E+01  0.46331867472E+03  0.46325860701E+03 0.  0.
      99925    2    3    3    0    0  0.76534514437E+02 -0.31451580184E+02  0.92608890364E+02  0.29085270845E+03  0.26300600306E+03 0.  0.
         25    1    3    3    0    0 -0.76534514437E+02  0.31451580184E+02 -0.85148503350E+02  0.17246596626E+03  0.12509000000E+03 0.  0.
         25    1    4    4    0    0  0.20688983795E+02  0.18235320398E+02  0.60367594753E+02  0.14160619886E+03  0.12509000000E+03 0.  0.
         25    1    4    4    0    0  0.55845530642E+02 -0.49686900582E+02  0.32241295612E+02  0.14924650959E+03  0.12509000000E+03 0.  0.
<mgrwt>
<rscale>  2 0.46325861E+03</rscale>
<asrwt>0</asrwt>
<pdfrwt beam="1">  1       21 0.34616108E-01 0.46325861E+03</pdfrwt>
<pdfrwt beam="2">  1       21 0.33518991E-01 0.46325861E+03</pdfrwt>
<totfact> 0.63642376E+04</totfact>
</mgrwt>
</event>
<event>
 7    0  0.4712189E-002  0.4509765E+03  0.7546771E-02  0.1027431E+00
         21   -1    0    0  502  501  0.00000000000E+00  0.00000000000E+00  0.63738969281E+03  0.63738969281E+03  0.00000000000E+00 0. -1.
         21   -1    0    0  501  502 -0.00000000000E+00 -0.00000000000E+00 -0.79770601712E+02  0.79770601712E+02  0.00000000000E+00 0. -1.
      99926    2    1    2    0    0  0.35527136788E-14  0.35527136788E-14  0.55761909110E+03  0.71716029453E+03  0.45097653740E+03 0.  0.
      99925    2    3    3    0    0  0.21552797353E+02  0.16506282456E+02  0.52050996237E+03  0.58388773182E+03  0.26316778301E+03 0.  0.
         25    1    4    4    0    0  0.48967992177E+02  0.15304545357E+02  0.23837302633E+03  0.27404616609E+03  0.12509000000E+03 0.  0.
         25    1    4    4    0    0 -0.27415194824E+02  0.12017370990E+01  0.28213693604E+03  0.30984156573E+03  0.12509000000E+03 0.  0.
         25    1    3    3    0    0 -0.21552797353E+02 -0.16506282456E+02  0.37109128736E+02  0.13327256270E+03  0.12509000000E+03 0.  0.
<mgrwt>
<rscale>  2 0.45097654E+03</rscale>
<asrwt>0</asrwt>
<pdfrwt beam="1">  1       21 0.93733776E-01 0.45097654E+03</pdfrwt>
<pdfrwt beam="2">  1       21 0.11730971E-01 0.45097654E+03</pdfrwt>
<totfact> 0.53659390E+04</totfact>
</mgrwt>
</event>
<event>
 7    0  0.4712189E-002  0.4579378E+03  0.7546771E-02  0.1025381E+00
         21   -1    0    0  502  501  0.00000000000E+00  0.00000000000E+00  0.32504743432E+02  0.32504743432E+02  0.00000000000E+00 0. -1.
         21   -1    0    0  501  502 -0.00000000000E+00 -0.00000000000E+00 -0.16128954391E+04  0.16128954391E+04  0.00000000000E+00 0. -1.
      99926    2    1    2    0    0  0.00000000000E+00  0.00000000000E+00 -0.15803906957E+04  0.16454001825E+04  0.45793777932E+03 0.  0.
      99925    2    3    3    0    0  0.91671049828E+02  0.70825729973E+02 -0.97842094871E+03  0.10197525583E+04  0.26299783612E+03 0.  0.
         25    1    4    4    0    0  0.61966169563E+02  0.70772084695E+02 -0.60047456030E+03  0.62053662246E+03  0.12509000000E+03 0.  0.
         25    1    3    3    0    0 -0.91671049828E+02 -0.70825729973E+02 -0.60196974696E+03  0.62564762428E+03  0.12509000000E+03 0.  0.
         25    1    4    4    0    0  0.29704880265E+02  0.53645277875E-01 -0.37794638841E+03  0.39921593581E+03  0.12509000000E+03 0.  0.
<mgrwt>
<rscale>  2 0.45793778E+03</rscale>
<asrwt>0</asrwt>
<pdfrwt beam="1">  1       21 0.47801081E-02 0.45793778E+03</pdfrwt>
<pdfrwt beam="2">  1       21 0.23719057E+00 0.45793778E+03</pdfrwt>
<totfact> 0.19963734E+04</totfact>
</mgrwt>
</event>
<event>
 7    0  0.4712189E-002  0.4519391E+03  0.7546771E-02  0.1027145E+00
         21   -1    0    0  502  501  0.00000000000E+00  0.00000000000E+00  0.68740455882E+02  0.68740455882E+02  0.00000000000E+00 0.  1.
         21   -1    0    0  501  502 -0.00000000000E+00 -0.00000000000E+00 -0.74282653765E+03  0.74282653765E+03  0.00000000000E+00 0.  1.
      99926    2    1    2    0    0  0.71054273576E-14  0.00000000000E+00 -0.67408608177E+03  0.81156699353E+03  0.45193908811E+03 0.  0.
      99925    2    3    3    0    0  0.54481161369E+02 -0.66213720963E+02 -0.54965740636E+03  0.61539753324E+03  0.26313191703E+03 0.  0.
         25    1    3    3    0    0 -0.54481161369E+02  0.66213720963E+02 -0.12442867540E+03  0.19616946029E+03  0.12509000000E+03 0.  0.
         25    1    4    4    0    0  0.48468332825E+02 -0.60719881553E+02 -0.34912050888E+03  0.37890463328E+03  0.12509000000E+03 0.  0.
         25    1    4    4    0    0  0.60128285444E+01 -0.54938394095E+01 -0.20053689749E+03  0.23649289996E+03  0.12509000000E+03 0.  0.
<mgrwt>
<rscale>  2 0.45193909E+03</rscale>
<asrwt>0</asrwt>
<pdfrwt beam="1">  1       21 0.10108891E-01 0.45193909E+03</pdfrwt>
<pdfrwt beam="2">  1       21 0.10923920E+00 0.45193909E+03</pdfrwt>
<totfact> 0.48361609E+04</totfact>
</mgrwt>
</event>
<event>
 7    0  0.4712189E-002  0.4532188E+03  0.7546771E-02  0.1026766E+00
         21   -1    0    0  502  501  0.00000000000E+00  0.00000000000E+00  0.18748427836E+03  0.18748427836E+03  0.00000000000E+00 0. -1.
         21   -1    0    0  501  502 -0.00000000000E+00 -0.00000000000E+00 -0.27389933774E+03  0.27389933774E+03  0.00000000000E+00 0. -1.
      99926    2    1    2    0    0  0.00000000000E+00  0.14210854715E-13 -0.86415059378E+02  0.46138361610E+03  0.45321879784E+03 0.  0.
      99925    2    3    3    0    0 -0.71659864580E+02  0.85401542557E+02 -0.58289290618E+02  0.29148032999E+03  0.26293455784E+03 0.  0.
         25    1    4    4    0    0 -0.95340610607E+00  0.59450899573E+02 -0.15748164233E+02  0.13939451646E+03  0.12509000000E+03 0.  0.
         25    1    3    3    0    0  0.71659864580E+02 -0.85401542557E+02 -0.28125768760E+02  0.16990328611E+03  0.12509000000E+03 0.  0.
         25    1    4    4    0    0 -0.70706458474E+02  0.25950642984E+02 -0.42541126385E+02  0.15208581352E+03  0.12509000000E+03 0.  0.
<mgrwt>
<rscale>  2 0.45321880E+03</rscale>
<asrwt>0</asrwt>
<pdfrwt beam="1">  1       21 0.27571217E-01 0.45321880E+03</pdfrwt>
<pdfrwt beam="2">  1       21 0.40279314E-01 0.45321880E+03</pdfrwt>
<totfact> 0.69052031E+04</totfact>
</mgrwt>
</event>
<event>
 7    0  0.4712189E-002  0.4797572E+03  0.7546771E-02  0.1019202E+00
         21   -1    0    0  502  501  0.00000000000E+00  0.00000000000E+00  0.11121452341E+04  0.11121452341E+04  0.00000000000E+00 0.  1.
         21   -1    0    0  501  502 -0.00000000000E+00 -0.00000000000E+00 -0.51739404881E+02  0.51739404881E+02  0.00000000000E+00 0.  1.
      99926    2    1    2    0    0  0.00000000000E+00 -0.14210854715E-13  0.10604058292E+04  0.11638846389E+04  0.47975715754E+03 0.  0.
      99925    2    3    3    0    0 -0.78965173430E+02 -0.10032819628E+03  0.54720106074E+03  0.62044385281E+03  0.26309756371E+03 0.  0.
         25    1    3    3    0    0  0.78965173430E+02  0.10032819628E+03  0.51320476845E+03  0.54344078614E+03  0.12509000000E+03 0.  0.
         25    1    4    4    0    0 -0.77717384564E+02 -0.36281439224E+02  0.27165851213E+03  0.31113050318E+03  0.12509000000E+03 0.  0.
         25    1    4    4    0    0 -0.12477888654E+01 -0.64046757051E+02  0.27554254860E+03  0.30931334963E+03  0.12509000000E+03 0.  0.
<mgrwt>
<rscale>  2 0.47975716E+03</rscale>
<asrwt>0</asrwt>
<pdfrwt beam="1">  1       21 0.16355075E+00 0.47975716E+03</pdfrwt>
<pdfrwt beam="2">  1       21 0.76087367E-02 0.47975716E+03</pdfrwt>
<totfact> 0.27600262E+04</totfact>
</mgrwt>
</event>
<event>
 7    0  0.4712189E-002  0.4577572E+03  0.7546771E-02  0.1025434E+00
         21   -1    0    0  502  501  0.00000000000E+00  0.00000000000E+00  0.36888364256E+03  0.36888364256E+03  0.00000000000E+00 0. -1.
         21   -1    0    0  501  502 -0.00000000000E+00 -0.00000000000E+00 -0.14201066073E+03  0.14201066073E+03  0.00000000000E+00 0. -1.
      99926    2    1    2    0    0  0.00000000000E+00  0.14210854715E-13  0.22687298183E+03  0.51089430328E+03  0.45775718371E+03 0.  0.
      99925    2    3    3    0    0  0.80586739467E+02  0.81275588594E+02  0.16191019169E+03  0.32932443772E+03  0.26294435005E+03 0.  0.
         25    1    4    4    0    0  0.35743476383E+02  0.39237896262E+01  0.97478130042E+02  0.16261145767E+03  0.12509000000E+03 0.  0.
         25    1    4    4    0    0  0.44843263084E+02  0.77351798968E+02  0.64432061653E+02  0.16671298005E+03  0.12509000000E+03 0.  0.
         25    1    3    3    0    0 -0.80586739467E+02 -0.81275588594E+02  0.64962790136E+02  0.18156986557E+03  0.12509000000E+03 0.  0.
<mgrwt>
<rscale>  2 0.45775718E+03</rscale>
<asrwt>0</asrwt>
<pdfrwt beam="1">  1       21 0.54247594E-01 0.45775718E+03</pdfrwt>
<pdfrwt beam="2">  1       21 0.20883921E-01 0.45775718E+03</pdfrwt>
<totfact> 0.63119340E+04</totfact>
</mgrwt>
</event>
<event>
 7    0  0.4712189E-002  0.4553678E+03  0.7546771E-02  0.1026133E+00
         21   -1    0    0  502  501  0.00000000000E+00  0.00000000000E+00  0.19925195789E+03  0.19925195789E+03  0.00000000000E+00 0. -1.
         21   -1    0    0  501  502 -0.00000000000E+00 -0.00000000000E+00 -0.26017288503E+03  0.26017288503E+03  0.00000000000E+00 0. -1.
      99926    2    1    2    0    0  0.00000000000E+00  0.00000000000E+00 -0.60920927137E+02  0.45942484293E+03  0.45536779304E+03 0.  0.
      99925    2    3    3    0    0 -0.28005785668E+02 -0.29675541621E+02  0.68590132954E+02  0.27480202584E+03  0.26295738299E+03 0.  0.
         25    1    4    4    0    0 -0.12507329573E+01  0.52203867077E+01 -0.67472252990E+00  0.12520694917E+03  0.12509000000E+03 0.  0.
         25    1    3    3    0    0  0.28005785668E+02  0.29675541621E+02 -0.12951106009E+03  0.18462281708E+03  0.12509000000E+03 0.  0.
         25    1    4    4    0    0 -0.26755052710E+02 -0.34895928329E+02  0.69264855484E+02  0.14959507667E+03  0.12509000000E+03 0.  0.
<mgrwt>
<rscale>  2 0.45536779E+03</rscale>
<asrwt>0</asrwt>
<pdfrwt beam="1">  1       21 0.29301758E-01 0.45536779E+03</pdfrwt>
<pdfrwt beam="2">  1       21 0.38260719E-01 0.45536779E+03</pdfrwt>
<totfact> 0.68022766E+04</totfact>
</mgrwt>
</event>
<event>
 7    0  0.4712189E-002  0.4472187E+03  0.7546771E-02  0.1028555E+00
         21   -1    0    0  502  501  0.00000000000E+00  0.00000000000E+00  0.37689984261E+03  0.37689984261E+03  0.00000000000E+00 0.  1.
         21   -1    0    0  501  502 -0.00000000000E+00 -0.00000000000E+00 -0.13266424670E+03  0.13266424670E+03  0.00000000000E+00 0.  1.
      99926    2    1    2    0    0  0.00000000000E+00  0.00000000000E+00  0.24423559591E+03  0.50956408931E+03  0.44721866554E+03 0.  0.
      99925    2    3    3    0    0  0.70167001529E+02 -0.19380135320E+02  0.24211500341E+03  0.36481947711E+03  0.26301060484E+03 0.  0.
         25    1    4    4    0    0  0.14080591072E+02 -0.15177142168E+02  0.70302696735E+02  0.14497788093E+03  0.12509000000E+03 0.  0.
         25    1    3    3    0    0 -0.70167001529E+02  0.19380135320E+02  0.21205925034E+01  0.14474461220E+03  0.12509000000E+03 0.  0.
         25    1    4    4    0    0  0.56086410457E+02 -0.42029931513E+01  0.17181230667E+03  0.21984159619E+03  0.12509000000E+03 0.  0.
<mgrwt>
<rscale>  2 0.44721867E+03</rscale>
<asrwt>0</asrwt>
<pdfrwt beam="1">  1       21 0.55426447E-01 0.44721867E+03</pdfrwt>
<pdfrwt beam="2">  1       21 0.19509448E-01 0.44721867E+03</pdfrwt>
<totfact> 0.68752018E+04</totfact>
</mgrwt>
</event>
<event>
 7    0  0.4712189E-002  0.4647874E+03  0.7546771E-02  0.1023402E+00
         21   -1    0    0  502  501  0.00000000000E+00  0.00000000000E+00  0.31986537607E+03  0.31986537607E+03  0.00000000000E+00 0.  1.
         21   -1    0    0  501  502 -0.00000000000E+00 -0.00000000000E+00 -0.16884238610E+03  0.16884238610E+03  0.00000000000E+00 0.  1.
      99926    2    1    2    0    0  0.88817841970E-15  0.00000000000E+00  0.15102298997E+03  0.48870776216E+03  0.46478740657E+03 0.  0.
      99925    2    3    3    0    0  0.44357968363E+01  0.11301208601E+03  0.14293540170E+03  0.31987552276E+03  0.26286577017E+03 0.  0.
         25    1    3    3    0    0 -0.44357968363E+01 -0.11301208601E+03  0.80875882694E+01  0.16883223940E+03  0.12509000000E+03 0.  0.
         25    1    4    4    0    0  0.41663959485E+02  0.62261593535E+02  0.80514202825E+02  0.16656060911E+03  0.12509000000E+03 0.  0.
         25    1    4    4    0    0 -0.37228162648E+02  0.50750492474E+02  0.62421198872E+02  0.15331491366E+03  0.12509000000E+03 0.  0.
<mgrwt>
<rscale>  2 0.46478741E+03</rscale>
<asrwt>0</asrwt>
<pdfrwt beam="1">  1       21 0.47039026E-01 0.46478741E+03</pdfrwt>
<pdfrwt beam="2">  1       21 0.24829763E-01 0.46478741E+03</pdfrwt>
<totfact> 0.61178435E+04</totfact>
</mgrwt>
</event>
<event>
 7    0  0.4712189E-002  0.4540837E+03  0.7546771E-02  0.1026511E+00
         21   -1    0    0  502  501  0.00000000000E+00  0.00000000000E+00  0.73501537190E+02  0.73501537190E+02  0.00000000000E+00 0. -1.
         21   -1    0    0  501  502 -0.00000000000E+00 -0.00000000000E+00 -0.70131856305E+03  0.70131856305E+03  0.00000000000E+00 0. -1.
      99926    2    1    2    0    0  0.00000000000E+00  0.00000000000E+00 -0.62781702586E+03  0.77482010024E+03  0.45408365945E+03 0.  0.
      99925    2    3    3    0    0  0.81989750149E+01  0.72489162460E+02 -0.24980269821E+03  0.37001861572E+03  0.26304084489E+03 0.  0.
         25    1    4    4    0    0  0.31351754322E+02  0.58338927251E+02 -0.10182177498E+03  0.17436038797E+03  0.12509000000E+03 0.  0.
         25    1    4    4    0    0 -0.23152779307E+02  0.14150235209E+02 -0.14798092323E+03  0.19565822775E+03  0.12509000000E+03 0.  0.
         25    1    3    3    0    0 -0.81989750149E+01 -0.72489162460E+02 -0.37801432765E+03  0.40480148453E+03  0.12509000000E+03 0.  0.
<mgrwt>
<rscale>  2 0.45408366E+03</rscale>
<asrwt>0</asrwt>
<pdfrwt beam="1">  1       21 0.10809049E-01 0.45408366E+03</pdfrwt>
<pdfrwt beam="2">  1       21 0.10313508E+00 0.45408366E+03</pdfrwt>
<totfact> 0.49360955E+04</totfact>
</mgrwt>
</event>
<event>
 7    0  0.4712189E-002  0.4259627E+03  0.7546771E-02  0.1035143E+00
         21   -1    0    0  502  501  0.00000000000E+00  0.00000000000E+00  0.68085843911E+02  0.68085843911E+02  0.00000000000E+00 0. -1.
         21   -1    0    0  501  502 -0.00000000000E+00 -0.00000000000E+00 -0.66623334485E+03  0.66623334485E+03  0.00000000000E+00 0. -1.
      99926    2    1    2    0    0  0.00000000000E+00  0.00000000000E+00 -0.59814750094E+03  0.73431918876E+03  0.42596271915E+03 0.  0.
      99925    2    3    3    0    0 -0.65215541938E+02  0.37683606656E+02 -0.32714383843E+03  0.42648219568E+03  0.26304153870E+03 0.  0.
         25    1    4    4    0    0  0.88962152994E+01  0.13371826923E+02 -0.15602155247E+03  0.20061949391E+03  0.12509000000E+03 0.  0.
         25    1    4    4    0    0 -0.74111757237E+02  0.24311779733E+02 -0.17112228597E+03  0.22586270177E+03  0.12509000000E+03 0.  0.
         25    1    3    3    0    0  0.65215541938E+02 -0.37683606656E+02 -0.27100366250E+03  0.30783699308E+03  0.12509000000E+03 0.  0.
<mgrwt>
<rscale>  2 0.42596272E+03</rscale>
<asrwt>0</asrwt>
<pdfrwt beam="1">  1       21 0.10012624E-01 0.42596272E+03</pdfrwt>
<pdfrwt beam="2">  1       21 0.97975495E-01 0.42596272E+03</pdfrwt>
<totfact> 0.64615255E+04</totfact>
</mgrwt>
</event>
<event>
 7    0  0.4712189E-002  0.4635380E+03  0.7546771E-02  0.1023760E+00
         21   -1    0    0  502  501  0.00000000000E+00  0.00000000000E+00  0.59608193545E+02  0.59608193545E+02  0.00000000000E+00 0.  1.
         21   -1    0    0  501  502 -0.00000000000E+00 -0.00000000000E+00 -0.90116584626E+03  0.90116584626E+03  0.00000000000E+00 0.  1.
      99926    2    1    2    0    0  0.00000000000E+00  0.35527136788E-14 -0.84155765272E+03  0.96077403981E+03  0.46353799491E+03 0.  0.
      99925    2    3    3    0    0  0.89524362272E+02 -0.28445252305E+02 -0.36811406596E+03  0.46215586749E+03  0.26316598656E+03 0.  0.
         25    1    4    4    0    0  0.11867505757E+02  0.86681703698E+01 -0.19197537117E+03  0.22960406378E+03  0.12509000000E+03 0.  0.
         25    1    3    3    0    0 -0.89524362272E+02  0.28445252305E+02 -0.47344358676E+03  0.49861817232E+03  0.12509000000E+03 0.  0.
         25    1    4    4    0    0  0.77656856515E+02 -0.37113422675E+02 -0.17613869479E+03  0.23255180371E+03  0.12509000000E+03 0.  0.
<mgrwt>
<rscale>  2 0.46353799E+03</rscale>
<asrwt>0</asrwt>
<pdfrwt beam="1">  1       21 0.87659108E-02 0.46353799E+03</pdfrwt>
<pdfrwt beam="2">  1       21 0.13252439E+00 0.46353799E+03</pdfrwt>
<totfact> 0.38099818E+04</totfact>
</mgrwt>
</event>
<event>
 7    0  0.4712189E-002  0.4429267E+03  0.7546771E-02  0.1029853E+00
         21   -1    0    0  502  501  0.00000000000E+00  0.00000000000E+00  0.11901694710E+03  0.11901694710E+03  0.00000000000E+00 0. -1.
         21   -1    0    0  501  502 -0.00000000000E+00 -0.00000000000E+00 -0.41209271727E+03  0.41209271727E+03  0.00000000000E+00 0. -1.
      99926    2    1    2    0    0  0.14210854715E-13  0.14210854715E-13 -0.29307577017E+03  0.53110966437E+03  0.44292670785E+03 0.  0.
      99925    2    3    3    0    0  0.65748899852E+02  0.66036688261E+02 -0.23453165845E+03  0.36450029145E+03  0.26300494601E+03 0.  0.
         25    1    4    4    0    0  0.60939756712E+02  0.83164119118E+01 -0.13848825861E+03  0.19649255082E+03  0.12509000000E+03 0.  0.
         25    1    4    4    0    0  0.48091431399E+01  0.57720276349E+02 -0.96043399835E+02  0.16800774063E+03  0.12509000000E+03 0.  0.
         25    1    3    3    0    0 -0.65748899852E+02 -0.66036688261E+02 -0.58544111725E+02  0.16660937292E+03  0.12509000000E+03 0.  0.
<mgrwt>
<rscale>  2 0.44292671E+03</rscale>
<asrwt>0</asrwt>
<pdfrwt beam="1">  1       21 0.17502492E-01 0.44292671E+03</pdfrwt>
<pdfrwt beam="2">  1       21 0.60601870E-01 0.44292671E+03</pdfrwt>
<totfact> 0.69543940E+04</totfact>
</mgrwt>
</event>
<event>
 7    0  0.4712189E-002  0.4553416E+03  0.7546771E-02  0.1026141E+00
         21   -1    0    0  502  501  0.00000000000E+00  0.00000000000E+00  0.86131131789E+02  0.86131131789E+02  0.00000000000E+00 0. -1.
         21   -1    0    0  501  502 -0.00000000000E+00 -0.00000000000E+00 -0.60180311505E+03  0.60180311505E+03  0.00000000000E+00 0. -1.
      99926    2    1    2    0    0  0.00000000000E+00  0.00000000000E+00 -0.51567198326E+03  0.68793424684E+03  0.45534155713E+03 0.  0.
      99925    2    3    3    0    0  0.70889110773E+02  0.86840737212E+02 -0.35171702957E+03  0.45321033539E+03  0.26292234509E+03 0.  0.
         25    1    4    4    0    0  0.33932758209E+02  0.73351392118E+01 -0.12794713917E+03  0.18227236452E+03  0.12509000000E+03 0.  0.
         25    1    3    3    0    0 -0.70889110773E+02 -0.86840737212E+02 -0.16395495369E+03  0.23472391145E+03  0.12509000000E+03 0.  0.
         25    1    4    4    0    0  0.36956352564E+02  0.79505598000E+02 -0.22376989040E+03  0.27093797087E+03  0.12509000000E+03 0.  0.
<mgrwt>
<rscale>  2 0.45534156E+03</rscale>
<asrwt>0</asrwt>
<pdfrwt beam="1">  1       21 0.12666343E-01 0.45534156E+03</pdfrwt>
<pdfrwt beam="2">  1       21 0.88500455E-01 0.45534156E+03</pdfrwt>
<totfact> 0.53419325E+04</totfact>
</mgrwt>
</event>
<event>
 7    0  0.4712189E-002  0.4526306E+03  0.7546771E-02  0.1026940E+00
         21   -1    0    0  502  501  0.00000000000E+00  0.00000000000E+00  0.98191269396E+02  0.98191269396E+02  0.00000000000E+00 0.  1.
         21   -1    0    0  501  502 -0.00000000000E+00 -0.00000000000E+00 -0.52162092739E+03  0.52162092739E+03  0.00000000000E+00 0.  1.
      99926    2    1    2    0    0  0.71054273576E-14  0.00000000000E+00 -0.42342965799E+03  0.61981219678E+03  0.45263062646E+03 0.  0.
      99925    2    3    3    0    0  0.56830066693E+02 -0.46843104123E+02 -0.15333500808E+03  0.31318121189E+03  0.26295800785E+03 0.  0.
         25    1    4    4    0    0  0.37208507300E+01 -0.53015992931E+02 -0.90845648034E+02  0.16347776639E+03  0.12509000000E+03 0.  0.
         25    1    3    3    0    0 -0.56830066693E+02  0.46843104123E+02 -0.27009464991E+03  0.30663098489E+03  0.12509000000E+03 0.  0.
         25    1    4    4    0    0  0.53109215963E+02  0.61728888079E+01 -0.62489360045E+02  0.14970344550E+03  0.12509000000E+03 0.  0.
<mgrwt>
<rscale>  2 0.45263063E+03</rscale>
<asrwt>0</asrwt>
<pdfrwt beam="1">  1       21 0.14439892E-01 0.45263063E+03</pdfrwt>
<pdfrwt beam="2">  1       21 0.76708961E-01 0.45263063E+03</pdfrwt>
<totfact> 0.58563080E+04</totfact>
</mgrwt>
</event>
<event>
 7    0  0.4712189E-002  0.4631780E+03  0.7546771E-02  0.1023864E+00
         21   -1    0    0  502  501  0.00000000000E+00  0.00000000000E+00  0.16725243175E+03  0.16725243175E+03  0.00000000000E+00 0.  1.
         21   -1    0    0  501  502 -0.00000000000E+00 -0.00000000000E+00 -0.32067374957E+03  0.32067374957E+03  0.00000000000E+00 0.  1.
      99926    2    1    2    0    0 -0.35527136788E-14 -0.14210854715E-13 -0.15342131782E+03  0.48792618131E+03  0.46317799780E+03 0.  0.
      99925    2    3    3    0    0  0.31496692789E+02  0.97321015138E+02 -0.16321600287E+03  0.32604083423E+03  0.26305843524E+03 0.  0.
         25    1    3    3    0    0 -0.31496692789E+02 -0.97321015138E+02  0.97946850528E+01  0.16188534708E+03  0.12509000000E+03 0.  0.
         25    1    4    4    0    0  0.40679921945E+02  0.78417557186E+02 -0.10966772414E+03  0.18835786987E+03  0.12509000000E+03 0.  0.
         25    1    4    4    0    0 -0.91832291556E+01  0.18903457952E+02 -0.53548278736E+02  0.13768296436E+03  0.12509000000E+03 0.  0.
<mgrwt>
<rscale>  2 0.46317800E+03</rscale>
<asrwt>0</asrwt>
<pdfrwt beam="1">  1       21 0.24595946E-01 0.46317800E+03</pdfrwt>
<pdfrwt beam="2">  1       21 0.47157904E-01 0.46317800E+03</pdfrwt>
<totfact> 0.62003573E+04</totfact>
</mgrwt>
</event>
<event>
 7    0  0.4712189E-002  0.4974797E+03  0.7546771E-02  0.1014439E+00
         21   -1    0    0  502  501  0.00000000000E+00  0.00000000000E+00  0.62890637728E+02  0.62890637728E+02  0.00000000000E+00 0.  1.
         21   -1    0    0  501  502 -0.00000000000E+00 -0.00000000000E+00 -0.98379518464E+03  0.98379518464E+03  0.00000000000E+00 0.  1.
      99926    2    1    2    0    0  0.00000000000E+00  0.14210854715E-13 -0.92090454692E+03  0.10466858224E+04  0.49747967418E+03 0.  0.
      99925    2    3    3    0    0  0.48301853194E+02  0.11729857458E+03 -0.72645624590E+03  0.78296309963E+03  0.26305990490E+03 0.  0.
         25    1    3    3    0    0 -0.48301853194E+02 -0.11729857458E+03 -0.19444830102E+03  0.26372272274E+03  0.12509000000E+03 0.  0.
         25    1    4    4    0    0 -0.28911181725E+01  0.53345816536E+02 -0.42886104754E+03  0.44991492629E+03  0.12509000000E+03 0.  0.
         25    1    4    4    0    0  0.51192971366E+02  0.63952758041E+02 -0.29759519836E+03  0.33304817334E+03  0.12509000000E+03 0.  0.
<mgrwt>
<rscale>  2 0.49747967E+03</rscale>
<asrwt>0</asrwt>
<pdfrwt beam="1">  1       21 0.92486242E-02 0.49747967E+03</pdfrwt>
<pdfrwt beam="2">  1       21 0.14467575E+00 0.49747967E+03</pdfrwt>
<totfact> 0.27196713E+04</totfact>
</mgrwt>
</event>
<event>
 7    0  0.4712189E-002  0.4511980E+03  0.7546771E-02  0.1027365E+00
         21   -1    0    0  502  501  0.00000000000E+00  0.00000000000E+00  0.20191860397E+04  0.20191860397E+04  0.00000000000E+00 0. -1.
         21   -1    0    0  501  502 -0.00000000000E+00 -0.00000000000E+00 -0.25205660881E+02  0.25205660881E+02  0.00000000000E+00 0. -1.
      99926    2    1    2    0    0  0.00000000000E+00  0.00000000000E+00  0.19939803788E+04  0.20443917005E+04  0.45119804331E+03 0.  0.
      99925    2    3    3    0    0  0.31562193826E+02 -0.10237934444E+03  0.11544538729E+04  0.11888626453E+04  0.26296947049E+03 0.  0.
         25    1    3    3    0    0 -0.31562193826E+02  0.10237934444E+03  0.83952650587E+03  0.85552905526E+03  0.12509000000E+03 0.  0.
         25    1    4    4    0    0  0.14313963357E+02 -0.71656903717E+02  0.45725839760E+03  0.47965857824E+03  0.12509000000E+03 0.  0.
         25    1    4    4    0    0  0.17248230469E+02 -0.30722440720E+02  0.69719547531E+03  0.70920406704E+03  0.12509000000E+03 0.  0.
<mgrwt>
<rscale>  2 0.45119804E+03</rscale>
<asrwt>0</asrwt>
<pdfrwt beam="1">  1       21 0.29693901E+00 0.45119804E+03</pdfrwt>
<pdfrwt beam="2">  1       21 0.37067162E-02 0.45119804E+03</pdfrwt>
<totfact> 0.13389308E+04</totfact>
</mgrwt>
</event>
<event>
 7    0  0.4712189E-002  0.4515660E+03  0.7546771E-02  0.1027256E+00
         21   -1    0    0  502  501  0.00000000000E+00  0.00000000000E+00  0.71689134366E+03  0.71689134366E+03  0.00000000000E+00 0. -1.
         21   -1    0    0  501  502 -0.00000000000E+00 -0.00000000000E+00 -0.71109738933E+02  0.71109738933E+02  0.00000000000E+00 0. -1.
      99926    2    1    2    0    0  0.35527136788E-14  0.00000000000E+00  0.64578160473E+03  0.78800108260E+03  0.45156596989E+03 0.  0.
      99925    2    3    3    0    0 -0.31492924540E+02 -0.10542941927E+03  0.41764541341E+03  0.50551073474E+03  0.26269039733E+03 0.  0.
         25    1    3    3    0    0  0.31492924540E+02  0.10542941927E+03  0.22813619132E+03  0.28249034786E+03  0.12509000000E+03 0.  0.
         25    1    4    4    0    0 -0.76952470596E+01 -0.85472318717E+02  0.26850094151E+03  0.30839098201E+03  0.12509000000E+03 0.  0.
         25    1    4    4    0    0 -0.23797677481E+02 -0.19957100555E+02  0.14914447190E+03  0.19711975273E+03  0.12509000000E+03 0.  0.
<mgrwt>
<rscale>  2 0.45156597E+03</rscale>
<asrwt>0</asrwt>
<pdfrwt beam="1">  1       21 0.10542519E+00 0.45156597E+03</pdfrwt>
<pdfrwt beam="2">  1       21 0.10457315E-01 0.45156597E+03</pdfrwt>
<totfact> 0.49676104E+04</totfact>
</mgrwt>
</event>
<event>
 7    0  0.4712189E-002  0.4521747E+03  0.7546771E-02  0.1027076E+00
         21   -1    0    0  502  501  0.00000000000E+00  0.00000000000E+00  0.20416391906E+04  0.20416391906E+04  0.00000000000E+00 0.  1.
         21   -1    0    0  501  502 -0.00000000000E+00 -0.00000000000E+00 -0.25036493965E+02  0.25036493965E+02  0.00000000000E+00 0.  1.
      99926    2    1    2    0    0  0.00000000000E+00  0.11102230246E-14  0.20166026966E+04  0.20666756846E+04  0.45217468869E+03 0.  0.
      99925    2    3    3    0    0  0.10255811630E+03 -0.15947805620E+01  0.10840959566E+04  0.11202418311E+04  0.26297719794E+03 0.  0.
         25    1    4    4    0    0  0.35971034040E+02  0.36588599551E+02  0.49384426532E+03  0.51201787801E+03  0.12509000000E+03 0.  0.
         25    1    3    3    0    0 -0.10255811630E+03  0.15947805620E+01  0.93250674007E+03  0.94643385343E+03  0.12509000000E+03 0.  0.
         25    1    4    4    0    0  0.66587082263E+02 -0.38183380113E+02  0.59025169123E+03  0.60822395312E+03  0.12509000000E+03 0.  0.
<mgrwt>
<rscale>  2 0.45217469E+03</rscale>
<asrwt>0</asrwt>
<pdfrwt beam="1">  1       21 0.30024095E+00 0.45217469E+03</pdfrwt>
<pdfrwt beam="2">  1       21 0.36818387E-02 0.45217469E+03</pdfrwt>
<totfact> 0.12933007E+04</totfact>
</mgrwt>
</event>
<event>
 7    0  0.4712189E-002  0.4862670E+03  0.7546771E-02  0.1017427E+00
         21   -1    0    0  502  501  0.00000000000E+00  0.00000000000E+00  0.44206753523E+02  0.44206753523E+02  0.00000000000E+00 0.  1.
         21   -1    0    0  501  502 -0.00000000000E+00 -0.00000000000E+00 -0.13372142675E+04  0.13372142675E+04  0.00000000000E+00 0.  1.
      99926    2    1    2    0    0  0.00000000000E+00  0.00000000000E+00 -0.12930075140E+04  0.13814210211E+04  0.48626701115E+03 0.  0.
      99925    2    3    3    0    0 -0.97328697647E+02 -0.99844873330E+02 -0.84215655358E+03  0.89320388623E+03  0.26295179696E+03 0.  0.
         25    1    4    4    0    0 -0.10676863735E+02 -0.43974230835E+02 -0.43784062156E+03  0.45760206117E+03  0.12509000000E+03 0.  0.
         25    1    3    3    0    0  0.97328697647E+02  0.99844873330E+02 -0.45085096043E+03  0.48821713483E+03  0.12509000000E+03 0.  0.
         25    1    4    4    0    0 -0.86651833912E+02 -0.55870642495E+02 -0.40431593202E+03  0.43560182506E+03  0.12509000000E+03 0.  0.
<mgrwt>
<rscale>  2 0.48626701E+03</rscale>
<asrwt>0</asrwt>
<pdfrwt beam="1">  1       21 0.65009942E-02 0.48626701E+03</pdfrwt>
<pdfrwt beam="2">  1       21 0.19664913E+00 0.48626701E+03</pdfrwt>
<totfact> 0.21192701E+04</totfact>
</mgrwt>
</event>
<event>
 7    0  0.4712189E-002  0.4545543E+03  0.7546771E-02  0.1026373E+00
         21   -1    0    0  502  501  0.00000000000E+00  0.00000000000E+00  0.14758417498E+03  0.14758417498E+03  0.00000000000E+00 0. -1.
         21   -1    0    0  501  502 -0.00000000000E+00 -0.00000000000E+00 -0.35000305314E+03  0.35000305314E+03  0.00000000000E+00 0. -1.
      99926    2    1    2    0    0  0.00000000000E+00  0.71054273576E-14 -0.20241887816E+03  0.49758722811E+03  0.45455433926E+03 0.  0.
      99925    2    3    3    0    0 -0.10132489760E+03  0.40810022629E+02 -0.15811840926E+03  0.32570868825E+03  0.26296867766E+03 0.  0.
         25    1    4    4    0    0 -0.78588527388E+02  0.42535826892E+02 -0.59688735290E+02  0.16491120771E+03  0.12509000000E+03 0.  0.
         25    1    3    3    0    0  0.10132489760E+03 -0.40810022629E+02 -0.44300468902E+02  0.17187853987E+03  0.12509000000E+03 0.  0.
         25    1    4    4    0    0 -0.22736370215E+02 -0.17258042623E+01 -0.98429673967E+02  0.16079748054E+03  0.12509000000E+03 0.  0.
<mgrwt>
<rscale>  2 0.45455434E+03</rscale>
<asrwt>0</asrwt>
<pdfrwt beam="1">  1       21 0.21703555E-01 0.45455434E+03</pdfrwt>
<pdfrwt beam="2">  1       21 0.51471038E-01 0.45455434E+03</pdfrwt>
<totfact> 0.65672525E+04</totfact>
</mgrwt>
</event>
<event>
 7    0  0.4712189E-002  0.4399296E+03  0.7546771E-02  0.1030768E+00
         21   -1    0    0  502  501  0.00000000000E+00  0.00000000000E+00  0.93047650659E+03  0.93047650659E+03  0.00000000000E+00 0. -1.
         21   -1    0    0  501  502 -0.00000000000E+00 -0.00000000000E+00 -0.51999707332E+02  0.51999707332E+02  0.00000000000E+00 0. -1.
      99926    2    1    2    0    0  0.00000000000E+00  0.00000000000E+00  0.87847679926E+03  0.98247621392E+03  0.43992956719E+03 0.  0.
      99925    2    3    3    0    0  0.17728320223E+02  0.57280694165E+02  0.38641362093E+03  0.47123356035E+03  0.26296427647E+03 0.  0.
         25    1    4    4    0    0  0.31325345871E+02  0.31859601961E+02  0.25502902873E+03  0.28754760498E+03  0.12509000000E+03 0.  0.
         25    1    4    4    0    0 -0.13597025648E+02  0.25421092204E+02  0.13138459219E+03  0.18368595537E+03  0.12509000000E+03 0.  0.
         25    1    3    3    0    0 -0.17728320223E+02 -0.57280694165E+02  0.49206317833E+03  0.51124265357E+03  0.12509000000E+03 0.  0.
<mgrwt>
<rscale>  2 0.43992957E+03</rscale>
<asrwt>0</asrwt>
<pdfrwt beam="1">  1       21 0.13683477E+00 0.43992957E+03</pdfrwt>
<pdfrwt beam="2">  1       21 0.76470164E-02 0.43992957E+03</pdfrwt>
<totfact> 0.44914241E+04</totfact>
</mgrwt>
</event>
<event>
 7    0  0.4712189E-002  0.4543274E+03  0.7546771E-02  0.1026439E+00
         21   -1    0    0  502  501  0.00000000000E+00  0.00000000000E+00  0.19165462437E+03  0.19165462437E+03  0.00000000000E+00 0.  1.
         21   -1    0    0  501  502 -0.00000000000E+00 -0.00000000000E+00 -0.26925179163E+03  0.26925179163E+03  0.00000000000E+00 0.  1.
      99926    2    1    2    0    0 -0.71054273576E-14 -0.14210854715E-13 -0.77597167258E+02  0.46090641599E+03  0.45432741931E+03 0.  0.
      99925    2    3    3    0    0 -0.39807934392E+02 -0.10519384127E+03 -0.48446027692E+02  0.29017940314E+03  0.26307157301E+03 0.  0.
         25    1    3    3    0    0  0.39807934392E+02  0.10519384127E+03 -0.29151139566E+02  0.17072701286E+03  0.12509000000E+03 0.  0.
         25    1    4    4    0    0  0.56097248956E+01 -0.45464863636E+02 -0.55097067006E+02  0.14415865472E+03  0.12509000000E+03 0.  0.
         25    1    4    4    0    0 -0.45417659288E+02 -0.59728977630E+02  0.66510393133E+01  0.14602074842E+03  0.12509000000E+03 0.  0.
<mgrwt>
<rscale>  2 0.45432742E+03</rscale>
<asrwt>0</asrwt>
<pdfrwt beam="1">  1       21 0.28184504E-01 0.45432742E+03</pdfrwt>
<pdfrwt beam="2">  1       21 0.39595852E-01 0.45432742E+03</pdfrwt>
<totfact> 0.68480448E+04</totfact>
</mgrwt>
</event>
<event>
 7    0  0.4712189E-002  0.4446753E+03  0.7546771E-02  0.1029322E+00
         21   -1    0    0  502  501  0.00000000000E+00  0.00000000000E+00  0.17337310960E+03  0.17337310960E+03  0.00000000000E+00 0. -1.
         21   -1    0    0  501  502 -0.00000000000E+00 -0.00000000000E+00 -0.28513092482E+03  0.28513092482E+03  0.00000000000E+00 0. -1.
      99926    2    1    2    0    0  0.00000000000E+00  0.00000000000E+00 -0.11175781521E+03  0.45850403442E+03  0.44467532011E+03 0.  0.
      99925    2    3    3    0    0 -0.56321505653E+02  0.66791632080E+02 -0.14324123853E+02  0.27746794292E+03  0.26296396085E+03 0.  0.
         25    1    4    4    0    0  0.56503238654E+01  0.34618617173E+02 -0.30060419510E+02  0.13334733494E+03  0.12509000000E+03 0.  0.
         25    1    4    4    0    0 -0.61971829518E+02  0.32173014907E+02  0.15736295656E+02  0.14412060797E+03  0.12509000000E+03 0.  0.
         25    1    3    3    0    0  0.56321505653E+02 -0.66791632080E+02 -0.97433691360E+02  0.18103609150E+03  0.12509000000E+03 0.  0.
<mgrwt>
<rscale>  2 0.44467532E+03</rscale>
<asrwt>0</asrwt>
<pdfrwt beam="1">  1       21 0.25496046E-01 0.44467532E+03</pdfrwt>
<pdfrwt beam="2">  1       21 0.41931017E-01 0.44467532E+03</pdfrwt>
<totfact> 0.74193010E+04</totfact>
</mgrwt>
</event>
<event>
 7    0  0.4712189E-002  0.4559335E+03  0.7546771E-02  0.1025967E+00
         21   -1    0    0  502  501  0.00000000000E+00  0.00000000000E+00  0.23621885874E+04  0.23621885874E+04  0.00000000000E+00 0. -1.
         21   -1    0    0  501  502 -0.00000000000E+00 -0.00000000000E+00 -0.22000295075E+02  0.22000295075E+02  0.00000000000E+00 0. -1.
      99926    2    1    2    0    0  0.17763568394E-14 -0.71054273576E-14  0.23401882923E+04  0.23841888825E+04  0.45593353001E+03 0.  0.
      99925    2    3    3    0    0 -0.14040715881E+02  0.54660916531E+02  0.95323821099E+03  0.99046617199E+03  0.26301177440E+03 0.  0.
         25    1    3    3    0    0  0.14040715881E+02 -0.54660916531E+02  0.13869500813E+04  0.13937227105E+04  0.12509000000E+03 0.  0.
         25    1    4    4    0    0 -0.29602374398E+02  0.36764150292E+02  0.60729426114E+03  0.62183738311E+03  0.12509000000E+03 0.  0.
         25    1    4    4    0    0  0.15561658516E+02  0.17896766239E+02  0.34594394985E+03  0.36862878889E+03  0.12509000000E+03 0.  0.
<mgrwt>
<rscale>  2 0.45593353E+03</rscale>
<asrwt>0</asrwt>
<pdfrwt beam="1">  1       21 0.34738050E+00 0.45593353E+03</pdfrwt>
<pdfrwt beam="2">  1       21 0.32353391E-02 0.45593353E+03</pdfrwt>
<totfact> 0.83298200E+03</totfact>
</mgrwt>
</event>
<event>
 7    0  0.4712189E-002  0.4555160E+03  0.7546771E-02  0.1026090E+00
         21   -1    0    0  502  501  0.00000000000E+00  0.00000000000E+00  0.24226292800E+03  0.24226292800E+03  0.00000000000E+00 0. -1.
         21   -1    0    0  501  502 -0.00000000000E+00 -0.00000000000E+00 -0.21412150256E+03  0.21412150256E+03  0.00000000000E+00 0. -1.
      99926    2    1    2    0    0  0.00000000000E+00  0.35527136788E-14  0.28141425435E+02  0.45638443056E+03  0.45551598065E+03 0.  0.
      99925    2    3    3    0    0 -0.21203444916E+02  0.11073551819E+02  0.12906448990E+03  0.29388771469E+03  0.26294512102E+03 0.  0.
         25    1    4    4    0    0 -0.27459752449E+02  0.32597252809E+02  0.37871579376E+02  0.13747139164E+03  0.12509000000E+03 0.  0.
         25    1    4    4    0    0  0.62563075336E+01 -0.21523700990E+02  0.91192910521E+02  0.15641632305E+03  0.12509000000E+03 0.  0.
         25    1    3    3    0    0  0.21203444916E+02 -0.11073551819E+02 -0.10092306446E+03  0.16249671586E+03  0.12509000000E+03 0.  0.
<mgrwt>
<rscale>  2 0.45551598E+03</rscale>
<asrwt>0</asrwt>
<pdfrwt beam="1">  1       21 0.35626901E-01 0.45551598E+03</pdfrwt>
<pdfrwt beam="2">  1       21 0.31488456E-01 0.45551598E+03</pdfrwt>
<totfact> 0.68163469E+04</totfact>
</mgrwt>
</event>
<event>
 7    0  0.4712189E-002  0.4478190E+03  0.7546771E-02  0.1028374E+00
         21   -1    0    0  502  501  0.00000000000E+00  0.00000000000E+00  0.28317354518E+03  0.28317354518E+03  0.00000000000E+00 0.  1.
         21   -1    0    0  501  502 -0.00000000000E+00 -0.00000000000E+00 -0.17704854707E+03  0.17704854707E+03  0.00000000000E+00 0.  1.
      99926    2    1    2    0    0  0.00000000000E+00  0.71054273576E-14  0.10612499811E+03  0.46022209224E+03  0.44781900246E+03 0.  0.
      99925    2    3    3    0    0  0.59726962451E+02  0.46326076647E+02 -0.94687785957E+01  0.27388142375E+03  0.26307406008E+03 0.  0.
         25    1    4    4    0    0 -0.11541016906E+02  0.26470745574E+02 -0.54580979200E+01  0.12849589245E+03  0.12509000000E+03 0.  0.
         25    1    4    4    0    0  0.71267979358E+02  0.19855331073E+02 -0.40106806758E+01  0.14538553131E+03  0.12509000000E+03 0.  0.
         25    1    3    3    0    0 -0.59726962451E+02 -0.46326076647E+02  0.11559377671E+03  0.18634066849E+03  0.12509000000E+03 0.  0.
<mgrwt>
<rscale>  2 0.44781900E+03</rscale>
<asrwt>0</asrwt>
<pdfrwt beam="1">  1       21 0.41643169E-01 0.44781900E+03</pdfrwt>
<pdfrwt beam="2">  1       21 0.26036551E-01 0.44781900E+03</pdfrwt>
<totfact> 0.72195585E+04</totfact>
</mgrwt>
</event>
<event>
 7    0  0.4712189E-002  0.4533455E+03  0.7546771E-02  0.1026729E+00
         21   -1    0    0  502  501  0.00000000000E+00  0.00000000000E+00  0.14040830230E+03  0.14040830230E+03  0.00000000000E+00 0.  1.
         21   -1    0    0  501  502 -0.00000000000E+00 -0.00000000000E+00 -0.36593652669E+03  0.36593652669E+03  0.00000000000E+00 0.  1.
      99926    2    1    2    0    0  0.00000000000E+00  0.35527136788E-14 -0.22552822438E+03  0.50634482899E+03  0.45334545972E+03 0.  0.
      99925    2    3    3    0    0 -0.80618624849E+02 -0.29318985165E+02 -0.62420820533E+02  0.28361068510E+03  0.26302033439E+03 0.  0.
         25    1    4    4    0    0 -0.20621493560E+02 -0.46491262641E+02 -0.46954891123E+02  0.14296486771E+03  0.12509000000E+03 0.  0.
         25    1    3    3    0    0  0.80618624849E+02  0.29318985165E+02 -0.16310740385E+03  0.22273414389E+03  0.12509000000E+03 0.  0.
         25    1    4    4    0    0 -0.59997131289E+02  0.17172277476E+02 -0.15465929409E+02  0.14064581739E+03  0.12509000000E+03 0.  0.
<mgrwt>
<rscale>  2 0.45334546E+03</rscale>
<asrwt>0</asrwt>
<pdfrwt beam="1">  1       21 0.20648280E-01 0.45334546E+03</pdfrwt>
<pdfrwt beam="2">  1       21 0.53814194E-01 0.45334546E+03</pdfrwt>
<totfact> 0.65685521E+04</totfact>
</mgrwt>
</event>
<event>
 7    0  0.4712189E-002  0.4556897E+03  0.7546771E-02  0.1026039E+00
         21   -1    0    0  502  501  0.00000000000E+00  0.00000000000E+00  0.54395141304E+03  0.54395141304E+03  0.00000000000E+00 0. -1.
         21   -1    0    0  501  502 -0.00000000000E+00 -0.00000000000E+00 -0.95437326301E+02  0.95437326301E+02  0.00000000000E+00 0. -1.
      99926    2    1    2    0    0  0.00000000000E+00  0.00000000000E+00  0.44851408673E+03  0.63938873934E+03  0.45568966852E+03 0.  0.
      99925    2    3    3    0    0  0.19971001263E+02 -0.93878995523E+02  0.36629797384E+03  0.46157112488E+03  0.26393482338E+03 0.  0.
         25    1    4    4    0    0  0.51238437614E+02 -0.53367052163E+02  0.20146817639E+03  0.24841568780E+03  0.12509000000E+03 0.  0.
         25    1    4    4    0    0 -0.31267436352E+02 -0.40511943360E+02  0.16482979744E+03  0.21315543708E+03  0.12509000000E+03 0.  0.
         25    1    3    3    0    0 -0.19971001263E+02  0.93878995523E+02  0.82216112898E+02  0.17781761446E+03  0.12509000000E+03 0.  0.
<mgrwt>
<rscale>  2 0.45568967E+03</rscale>
<asrwt>0</asrwt>
<pdfrwt beam="1">  1       21 0.79992853E-01 0.45568967E+03</pdfrwt>
<pdfrwt beam="2">  1       21 0.14034901E-01 0.45568967E+03</pdfrwt>
<totfact> 0.56011504E+04</totfact>
</mgrwt>
</event>
<event>
 7    0  0.4712189E-002  0.4444047E+03  0.7546771E-02  0.1029404E+00
         21   -1    0    0  502  501  0.00000000000E+00  0.00000000000E+00  0.39685829667E+03  0.39685829667E+03  0.00000000000E+00 0. -1.
         21   -1    0    0  501  502 -0.00000000000E+00 -0.00000000000E+00 -0.12441186589E+03  0.12441186589E+03  0.00000000000E+00 0. -1.
      99926    2    1    2    0    0  0.00000000000E+00  0.00000000000E+00  0.27244643078E+03  0.52127016255E+03  0.44440468576E+03 0.  0.
      99925    2    3    3    0    0  0.32480630712E+02 -0.64266459726E+02  0.25929350268E+03  0.37633680948E+03  0.26308003424E+03 0.  0.
         25    1    3    3    0    0 -0.32480630712E+02  0.64266459726E+02  0.13152928101E+02  0.14493335308E+03  0.12509000000E+03 0.  0.
         25    1    4    4    0    0  0.24801617975E+02 -0.63594190964E+02  0.17319734710E+03  0.22428591245E+03  0.12509000000E+03 0.  0.
         25    1    4    4    0    0  0.76790127373E+01 -0.67226876131E+00  0.86096155581E+02  0.15205089703E+03  0.12509000000E+03 0.  0.
<mgrwt>
<rscale>  2 0.44440469E+03</rscale>
<asrwt>0</asrwt>
<pdfrwt beam="1">  1       21 0.58361514E-01 0.44440469E+03</pdfrwt>
<pdfrwt beam="2">  1       21 0.18295863E-01 0.44440469E+03</pdfrwt>
<totfact> 0.69451260E+04</totfact>
</mgrwt>
</event>
<event>
 7    0  0.4712189E-002  0.4530235E+03  0.7546771E-02  0.1026824E+00
         21   -1    0    0  502  501  0.00000000000E+00  0.00000000000E+00  0.88129027732E+03  0.88129027732E+03  0.00000000000E+00 0.  1.
         21   -1    0    0  501  502 -0.00000000000E+00 -0.00000000000E+00 -0.58218691292E+02  0.58218691292E+02  0.00000000000E+00 0.  1.
      99926    2    1    2    0    0  0.17763568394E-14  0.00000000000E+00  0.82307158603E+03  0.93950896861E+03  0.45302347221E+03 0.  0.
      99925    2    3    3    0    0  0.63213389286E+01  0.11031460162E+03  0.49153324652E+03  0.56832916135E+03  0.26302819725E+03 0.  0.
         25    1    3    3    0    0 -0.63213389286E+01 -0.11031460162E+03  0.33153833951E+03  0.37117980726E+03  0.12509000000E+03 0.  0.
         25    1    4    4    0    0  0.38959203165E+02  0.74325585123E+02  0.24361979794E+03  0.28642665058E+03  0.12509000000E+03 0.  0.
         25    1    4    4    0    0 -0.32637864236E+02  0.35989016493E+02  0.24791344859E+03  0.28190251077E+03  0.12509000000E+03 0.  0.
<mgrwt>
<rscale>  2 0.45302347E+03</rscale>
<asrwt>0</asrwt>
<pdfrwt beam="1">  1       21 0.12960150E+00 0.45302347E+03</pdfrwt>
<pdfrwt beam="2">  1       21 0.85615728E-02 0.45302347E+03</pdfrwt>
<totfact> 0.42217377E+04</totfact>
</mgrwt>
</event>
<event>
 7    0  0.4712189E-002  0.4579372E+03  0.7546771E-02  0.1025381E+00
         21   -1    0    0  502  501  0.00000000000E+00  0.00000000000E+00  0.37234267105E+02  0.37234267105E+02  0.00000000000E+00 0. -1.
         21   -1    0    0  501  502 -0.00000000000E+00 -0.00000000000E+00 -0.14080207607E+04  0.14080207607E+04  0.00000000000E+00 0. -1.
      99926    2    1    2    0    0  0.00000000000E+00 -0.14210854715E-13 -0.13707864936E+04  0.14452550278E+04  0.45793720571E+03 0.  0.
      99925    2    3    3    0    0  0.61887280411E+02 -0.89447850540E+02 -0.73290153374E+03  0.78618319291E+03  0.26288476794E+03 0.  0.
         25    1    4    4    0    0  0.27415952290E+01 -0.12675600912E+02 -0.34779937040E+03  0.36983793391E+03  0.12509000000E+03 0.  0.
         25    1    3    3    0    0 -0.61887280411E+02  0.89447850540E+02 -0.63788495984E+03  0.65907183489E+03  0.12509000000E+03 0.  0.
         25    1    4    4    0    0  0.59145685182E+02 -0.76772249629E+02 -0.38510216334E+03  0.41634525901E+03  0.12509000000E+03 0.  0.
<mgrwt>
<rscale>  2 0.45793721E+03</rscale>
<asrwt>0</asrwt>
<pdfrwt beam="1">  1       21 0.54756272E-02 0.45793721E+03</pdfrwt>
<pdfrwt beam="2">  1       21 0.20706189E+00 0.45793721E+03</pdfrwt>
<totfact> 0.24584737E+04</totfact>
</mgrwt>
</event>
<event>
 7    0  0.4712189E-002  0.4563048E+03  0.7546771E-02  0.1025858E+00
         21   -1    0    0  502  501  0.00000000000E+00  0.00000000000E+00  0.20311019664E+03  0.20311019664E+03  0.00000000000E+00 0.  1.
         21   -1    0    0  501  502 -0.00000000000E+00 -0.00000000000E+00 -0.25628220306E+03  0.25628220306E+03  0.00000000000E+00 0.  1.
      99926    2    1    2    0    0  0.14210854715E-13  0.00000000000E+00 -0.53172006426E+02  0.45939239970E+03  0.45630484836E+03 0.  0.
      99925    2    3    3    0    0 -0.72575499924E+02  0.74286752422E+02 -0.81458538799E+02  0.29436706592E+03  0.26311737150E+03 0.  0.
         25    1    4    4    0    0 -0.35649879330E+02  0.53316468067E+01 -0.66206227380E+02  0.14604832419E+03  0.12509000000E+03 0.  0.
         25    1    3    3    0    0  0.72575499924E+02 -0.74286752422E+02  0.28286532372E+02  0.16502533378E+03  0.12509000000E+03 0.  0.
         25    1    4    4    0    0 -0.36925620594E+02  0.68955105615E+02 -0.15252311418E+02  0.14831874174E+03  0.12509000000E+03 0.  0.
<mgrwt>
<rscale>  2 0.45630485E+03</rscale>
<asrwt>0</asrwt>
<pdfrwt beam="1">  1       21 0.29869147E-01 0.45630485E+03</pdfrwt>
<pdfrwt beam="2">  1       21 0.37688559E-01 0.45630485E+03</pdfrwt>
<totfact> 0.67519443E+04</totfact>
</mgrwt>
</event>
<event>
 7    0  0.4712189E-002  0.4531487E+03  0.7546771E-02  0.1026787E+00
         21   -1    0    0  502  501  0.00000000000E+00  0.00000000000E+00  0.11847612265E+04  0.11847612265E+04  0.00000000000E+00 0. -1.
         21   -1    0    0  501  502 -0.00000000000E+00 -0.00000000000E+00 -0.43330205244E+02  0.43330205244E+02  0.00000000000E+00 0. -1.
      99926    2    1    2    0    0  0.00000000000E+00  0.00000000000E+00  0.11414310213E+04  0.12280914317E+04  0.45314874869E+03 0.  0.
      99925    2    3    3    0    0 -0.10054262673E+03  0.43355363317E+02  0.77537626813E+03  0.82605648587E+03  0.26300656523E+03 0.  0.
         25    1    4    4    0    0 -0.43366503415E+02  0.61554659396E+02  0.41084305238E+03  0.43601508174E+03  0.12509000000E+03 0.  0.
         25    1    3    3    0    0  0.10054262673E+03 -0.43355363317E+02  0.36605475313E+03  0.40203494588E+03  0.12509000000E+03 0.  0.
         25    1    4    4    0    0 -0.57176123311E+02 -0.18199296079E+02  0.36453321575E+03  0.39004140413E+03  0.12509000000E+03 0.  0.
<mgrwt>
<rscale>  2 0.45314875E+03</rscale>
<asrwt>0</asrwt>
<pdfrwt beam="1">  1       21 0.17422957E+00 0.45314875E+03</pdfrwt>
<pdfrwt beam="2">  1       21 0.63720898E-02 0.45314875E+03</pdfrwt>
<totfact> 0.31731569E+04</totfact>
</mgrwt>
</event>
<event>
 7    0  0.4712189E-002  0.4688940E+03  0.7546771E-02  0.1022233E+00
         21   -1    0    0  502  501  0.00000000000E+00  0.00000000000E+00  0.98987707517E+02  0.98987707517E+02  0.00000000000E+00 0. -1.
         21   -1    0    0  501  502 -0.00000000000E+00 -0.00000000000E+00 -0.55527499927E+03  0.55527499927E+03  0.00000000000E+00 0. -1.
      99926    2    1    2    0    0  0.00000000000E+00  0.14210854715E-13 -0.45628729175E+03  0.65426270679E+03  0.46889401455E+03 0.  0.
      99925    2    3    3    0    0  0.25014712658E+02 -0.89726878401E+02 -0.16546895625E+03  0.32426352357E+03  0.26285016394E+03 0.  0.
         25    1    4    4    0    0  0.82995104382E+01 -0.78831534994E+02 -0.61360088398E+02  0.16029928675E+03  0.12509000000E+03 0.  0.
         25    1    3    3    0    0 -0.25014712658E+02  0.89726878401E+02 -0.29081833550E+03  0.32999918321E+03  0.12509000000E+03 0.  0.
         25    1    4    4    0    0  0.16715202220E+02 -0.10895343407E+02 -0.10410886785E+03  0.16396423683E+03  0.12509000000E+03 0.  0.
<mgrwt>
<rscale>  2 0.46889401E+03</rscale>
<asrwt>0</asrwt>
<pdfrwt beam="1">  1       21 0.14557016E-01 0.46889401E+03</pdfrwt>
<pdfrwt beam="2">  1       21 0.81658088E-01 0.46889401E+03</pdfrwt>
<totfact> 0.49772646E+04</totfact>
</mgrwt>
</event>
<event>
 7    0  0.4712189E-002  0.4541929E+03  0.7546771E-02  0.1026479E+00
         21   -1    0    0  502  501  0.00000000000E+00  0.00000000000E+00  0.15524417951E+03  0.15524417951E+03  0.00000000000E+00 0.  1.
         21   -1    0    0  501  502 -0.00000000000E+00 -0.00000000000E+00 -0.33220434931E+03  0.33220434931E+03  0.00000000000E+00 0.  1.
      99926    2    1    2    0    0  0.00000000000E+00  0.00000000000E+00 -0.17696016980E+03  0.48744852882E+03  0.45419287374E+03 0.  0.
      99925    2    3    3    0    0  0.16817803403E+02 -0.44780035442E+02 -0.22062672370E+03  0.34658559503E+03  0.26297781919E+03 0.  0.
         25    1    3    3    0    0 -0.16817803403E+02  0.44780035442E+02  0.43666553902E+02  0.14086293379E+03  0.12509000000E+03 0.  0.
         25    1    4    4    0    0  0.45684810873E+01 -0.13640382610E+02 -0.57798216930E+02  0.13854628482E+03  0.12509000000E+03 0.  0.
         25    1    4    4    0    0  0.12249322316E+02 -0.31139652833E+02 -0.16282850677E+03  0.20803931021E+03  0.12509000000E+03 0.  0.
<mgrwt>
<rscale>  2 0.45419287E+03</rscale>
<asrwt>0</asrwt>
<pdfrwt beam="1">  1       21 0.22830027E-01 0.45419287E+03</pdfrwt>
<pdfrwt beam="2">  1       21 0.48853580E-01 0.45419287E+03</pdfrwt>
<totfact> 0.66587405E+04</totfact>
</mgrwt>
</event>
<event>
 7    0  0.4712189E-002  0.4549587E+03  0.7546771E-02  0.1026254E+00
         21   -1    0    0  502  501  0.00000000000E+00  0.00000000000E+00  0.63042873044E+02  0.63042873044E+02  0.00000000000E+00 0.  1.
         21   -1    0    0  501  502 -0.00000000000E+00 -0.00000000000E+00 -0.82082005429E+03  0.82082005429E+03  0.00000000000E+00 0.  1.
      99926    2    1    2    0    0  0.14210854715E-13  0.35527136788E-14 -0.75777718125E+03  0.88386292733E+03  0.45495869911E+03 0.  0.
      99925    2    3    3    0    0  0.10634805395E+03 -0.10662298213E+02 -0.54889251440E+03  0.61796086768E+03  0.26300009211E+03 0.  0.
         25    1    3    3    0    0 -0.10634805395E+03  0.10662298213E+02 -0.20888466685E+03  0.26590205965E+03  0.12509000000E+03 0.  0.
         25    1    4    4    0    0  0.67117560951E+02 -0.43436773083E+02 -0.30151642793E+03  0.33608210999E+03  0.12509000000E+03 0.  0.
         25    1    4    4    0    0  0.39230492995E+02  0.32774474870E+02 -0.24737608646E+03  0.28187875769E+03  0.12509000000E+03 0.  0.
<mgrwt>
<rscale>  2 0.45495870E+03</rscale>
<asrwt>0</asrwt>
<pdfrwt beam="1">  1       21 0.92710117E-02 0.45495870E+03</pdfrwt>
<pdfrwt beam="2">  1       21 0.12070882E+00 0.45495870E+03</pdfrwt>
<totfact> 0.43952992E+04</totfact>
</mgrwt>
</event>
<event>
 7    0  0.4712189E-002  0.4738289E+03  0.7546771E-02  0.1020845E+00
         21   -1    0    0  502  501  0.00000000000E+00  0.00000000000E+00  0.90916873496E+02  0.90916873496E+02  0.00000000000E+00 0. -1.
         21   -1    0    0  501  502 -0.00000000000E+00 -0.00000000000E+00 -0.61736010847E+03  0.61736010847E+03  0.00000000000E+00 0. -1.
      99926    2    1    2    0    0  0.33306690739E-15  0.35527136788E-14 -0.52644323498E+03  0.70827698197E+03  0.47382887579E+03 0.  0.
      99925    2    3    3    0    0  0.67447621651E+00  0.17209076124E+02 -0.51885515566E+03  0.58177917856E+03  0.26260185230E+03 0.  0.
         25    1    4    4    0    0 -0.32698371609E+02  0.40859251191E+01 -0.21020386490E+03  0.24681785026E+03  0.12509000000E+03 0.  0.
         25    1    3    3    0    0 -0.67447621651E+00 -0.17209076124E+02 -0.75880793124E+01  0.12649780341E+03  0.12509000000E+03 0.  0.
         25    1    4    4    0    0  0.33372847826E+02  0.13123151005E+02 -0.30865129077E+03  0.33496132830E+03  0.12509000000E+03 0.  0.
<mgrwt>
<rscale>  2 0.47382888E+03</rscale>
<asrwt>0</asrwt>
<pdfrwt beam="1">  1       21 0.13370129E-01 0.47382888E+03</pdfrwt>
<pdfrwt beam="2">  1       21 0.90788248E-01 0.47382888E+03</pdfrwt>
<totfact> 0.45351494E+04</totfact>
</mgrwt>
</event>
<event>
 7    0  0.4712189E-002  0.4617379E+03  0.7546771E-02  0.1024278E+00
         21   -1    0    0  502  501  0.00000000000E+00  0.00000000000E+00  0.67794305087E+02  0.67794305087E+02  0.00000000000E+00 0.  1.
         21   -1    0    0  501  502 -0.00000000000E+00 -0.00000000000E+00 -0.78620872191E+03  0.78620872191E+03  0.00000000000E+00 0.  1.
      99926    2    1    2    0    0  0.14210854715E-13 -0.17763568394E-14 -0.71841441682E+03  0.85400302700E+03  0.46173790815E+03 0.  0.
      99925    2    3    3    0    0 -0.89161166774E+02  0.13773388252E+02 -0.59396886274E+03  0.65582728702E+03  0.26300380341E+03 0.  0.
         25    1    3    3    0    0  0.89161166774E+02 -0.13773388252E+02 -0.12444555408E+03  0.19817573998E+03  0.12509000000E+03 0.  0.
         25    1    4    4    0    0 -0.43979928065E+02 -0.52154861096E+01 -0.20396979342E+03  0.24333643396E+03  0.12509000000E+03 0.  0.
         25    1    4    4    0    0 -0.45181238709E+02  0.18988874362E+02 -0.38999906933E+03  0.41249085306E+03  0.12509000000E+03 0.  0.
<mgrwt>
<rscale>  2 0.46173791E+03</rscale>
<asrwt>0</asrwt>
<pdfrwt beam="1">  1       21 0.99697512E-02 0.46173791E+03</pdfrwt>
<pdfrwt beam="2">  1       21 0.11561892E+00 0.46173791E+03</pdfrwt>
<totfact> 0.42945574E+04</totfact>
</mgrwt>
</event>
<event>
 7    0  0.4712189E-002  0.4928815E+03  0.7546771E-02  0.1015654E+00
         21   -1    0    0  502  501  0.00000000000E+00  0.00000000000E+00  0.84311887665E+03  0.84311887665E+03  0.00000000000E+00 0.  1.
         21   -1    0    0  501  502 -0.00000000000E+00 -0.00000000000E+00 -0.72033790348E+02  0.72033790348E+02  0.00000000000E+00 0.  1.
      99926    2    1    2    0    0  0.00000000000E+00  0.00000000000E+00  0.77108508630E+03  0.91515266700E+03  0.49288152085E+03 0.  0.
      99925    2    3    3    0    0 -0.32436955667E+02  0.20927324223E+00  0.73455580061E+03  0.78086157756E+03  0.26290754880E+03 0.  0.
         25    1    3    3    0    0  0.32436955667E+02 -0.20927324223E+00  0.36529285690E+02  0.13429108943E+03  0.12509000000E+03 0.  0.
         25    1    4    4    0    0 -0.56302507808E+02 -0.93027546242E+00  0.40149264751E+03  0.42428138293E+03  0.12509000000E+03 0.  0.
         25    1    4    4    0    0  0.23865552141E+02  0.11395487047E+01  0.33306315310E+03  0.35658019463E+03  0.12509000000E+03 0.  0.
<mgrwt>
<rscale>  2 0.49288152E+03</rscale>
<asrwt>0</asrwt>
<pdfrwt beam="1">  1       21 0.12398806E+00 0.49288152E+03</pdfrwt>
<pdfrwt beam="2">  1       21 0.10593205E-01 0.49288152E+03</pdfrwt>
<totfact> 0.31989719E+04</totfact>
</mgrwt>
</event>
<event>
 7    0  0.4712189E-002  0.4364528E+03  0.7546771E-02  0.1031841E+00
         21   -1    0    0  502  501  0.00000000000E+00  0.00000000000E+00  0.55025506809E+03  0.55025506809E+03  0.00000000000E+00 0. -1.
         21   -1    0    0  501  502 -0.00000000000E+00 -0.00000000000E+00 -0.86546703819E+02  0.86546703819E+02  0.00000000000E+00 0. -1.
      99926    2    1    2    0    0 -0.17763568394E-14  0.00000000000E+00  0.46370836427E+03  0.63680177191E+03  0.43645280342E+03 0.  0.
      99925    2    3    3    0    0  0.11627520599E+02  0.65772970332E+02  0.39514162640E+03  0.47928926922E+03  0.26290685767E+03 0.  0.
         25    1    4    4    0    0 -0.26736982645E+02  0.78389286939E+01  0.18464161261E+03  0.22475842198E+03  0.12509000000E+03 0.  0.
         25    1    3    3    0    0 -0.11627520599E+02 -0.65772970332E+02  0.68566737871E+02  0.15751250269E+03  0.12509000000E+03 0.  0.
         25    1    4    4    0    0  0.38364503244E+02  0.57934041638E+02  0.21050001379E+03  0.25453084724E+03  0.12509000000E+03 0.  0.
<mgrwt>
<rscale>  2 0.43645280E+03</rscale>
<asrwt>0</asrwt>
<pdfrwt beam="1">  1       21 0.80919862E-01 0.43645280E+03</pdfrwt>
<pdfrwt beam="2">  1       21 0.12727457E-01 0.43645280E+03</pdfrwt>
<totfact> 0.65546723E+04</totfact>
</mgrwt>
</event>
<event>
 7    0  0.4712189E-002  0.4640837E+03  0.7546771E-02  0.1023603E+00
         21   -1    0    0  502  501  0.00000000000E+00  0.00000000000E+00  0.11284952183E+04  0.11284952183E+04  0.00000000000E+00 0. -1.
         21   -1    0    0  501  502 -0.00000000000E+00 -0.00000000000E+00 -0.47712588362E+02  0.47712588362E+02  0.00000000000E+00 0. -1.
      99926    2    1    2    0    0  0.00000000000E+00  0.14210854715E-13  0.10807826300E+04  0.11762078067E+04  0.46408373305E+03 0.  0.
      99925    2    3    3    0    0 -0.89113106747E+02  0.79748172612E+02  0.62045632784E+03  0.68442662632E+03  0.26300729123E+03 0.  0.
         25    1    4    4    0    0 -0.83854412468E+02  0.52281454157E+02  0.31103639742E+03  0.34950831400E+03  0.12509000000E+03 0.  0.
         25    1    3    3    0    0  0.89113106747E+02 -0.79748172612E+02  0.46032630214E+03  0.49178118038E+03  0.12509000000E+03 0.  0.
         25    1    4    4    0    0 -0.52586942793E+01  0.27466718455E+02  0.30941993042E+03  0.33491831232E+03  0.12509000000E+03 0.  0.
<mgrwt>
<rscale>  2 0.46408373E+03</rscale>
<asrwt>0</asrwt>
<pdfrwt beam="1">  1       21 0.16595516E+00 0.46408373E+03</pdfrwt>
<pdfrwt beam="2">  1       21 0.70165578E-02 0.46408373E+03</pdfrwt>
<totfact> 0.30688965E+04</totfact>
</mgrwt>
</event>
<event>
 7    0  0.4712189E-002  0.4516093E+03  0.7546771E-02  0.1027243E+00
         21   -1    0    0  502  501  0.00000000000E+00  0.00000000000E+00  0.29578404373E+03  0.29578404373E+03  0.00000000000E+00 0. -1.
         21   -1    0    0  501  502 -0.00000000000E+00 -0.00000000000E+00 -0.17238167612E+03  0.17238167612E+03  0.00000000000E+00 0. -1.
      99926    2    1    2    0    0  0.00000000000E+00  0.17763568394E-14  0.12340236761E+03  0.46816571985E+03  0.45160934104E+03 0.  0.
      99925    2    3    3    0    0  0.79173445495E+02 -0.65036497350E+01  0.15655647166E+03  0.31631897261E+03  0.26312930602E+03 0.  0.
         25    1    4    4    0    0  0.42385936483E+02 -0.24350666335E+02  0.38982307343E+02  0.13984509626E+03  0.12509000000E+03 0.  0.
         25    1    4    4    0    0  0.36787509012E+02  0.17847016600E+02  0.11757416431E+03  0.17647387635E+03  0.12509000000E+03 0.  0.
         25    1    3    3    0    0 -0.79173445495E+02  0.65036497350E+01 -0.33154104046E+02  0.15184674724E+03  0.12509000000E+03 0.  0.
<mgrwt>
<rscale>  2 0.45160934E+03</rscale>
<asrwt>0</asrwt>
<pdfrwt beam="1">  1       21 0.43497654E-01 0.45160934E+03</pdfrwt>
<pdfrwt beam="2">  1       21 0.25350246E-01 0.45160934E+03</pdfrwt>
<totfact> 0.69421020E+04</totfact>
</mgrwt>
</event>
<event>
 7    0  0.4712189E-002  0.4535629E+03  0.7546771E-02  0.1026665E+00
         21   -1    0    0  502  501  0.00000000000E+00  0.00000000000E+00  0.44101234937E+03  0.44101234937E+03  0.00000000000E+00 0. -1.
         21   -1    0    0  501  502 -0.00000000000E+00 -0.00000000000E+00 -0.11661768018E+03  0.11661768018E+03  0.00000000000E+00 0. -1.
      99926    2    1    2    0    0  0.00000000000E+00 -0.35527136788E-14  0.32439466918E+03  0.55763002955E+03  0.45356294873E+03 0.  0.
      99925    2    3    3    0    0 -0.86080345763E+02  0.18282126356E+02  0.28912760916E+03  0.40067355248E+03  0.26305980159E+03 0.  0.
         25    1    3    3    0    0  0.86080345763E+02 -0.18282126356E+02  0.35267060029E+02  0.15695647707E+03  0.12509000000E+03 0.  0.
         25    1    4    4    0    0 -0.35399459605E+02 -0.14703778477E+02  0.18706307222E+03  0.22827488677E+03  0.12509000000E+03 0.  0.
         25    1    4    4    0    0 -0.50680886158E+02  0.32985904833E+02  0.10206453694E+03  0.17239866571E+03  0.12509000000E+03 0.  0.
<mgrwt>
<rscale>  2 0.45356295E+03</rscale>
<asrwt>0</asrwt>
<pdfrwt beam="1">  1       21 0.64854757E-01 0.45356295E+03</pdfrwt>
<pdfrwt beam="2">  1       21 0.17149659E-01 0.45356295E+03</pdfrwt>
<totfact> 0.62067667E+04</totfact>
</mgrwt>
</event>
<event>
 7    0  0.4712189E-002  0.4520055E+03  0.7546771E-02  0.1027126E+00
         21   -1    0    0  502  501  0.00000000000E+00  0.00000000000E+00  0.35082666064E+03  0.35082666064E+03  0.00000000000E+00 0.  1.
         21   -1    0    0  501  502 -0.00000000000E+00 -0.00000000000E+00 -0.14559112780E+03  0.14559112780E+03  0.00000000000E+00 0.  1.
      99926    2    1    2    0    0  0.00000000000E+00  0.71054273576E-14  0.20523553283E+03  0.49641778844E+03  0.45200552734E+03 0.  0.
      99925    2    3    3    0    0  0.95410417129E+02  0.47687638226E+02  0.15952442266E+03  0.32578873983E+03  0.26327362769E+03 0.  0.
         25    1    4    4    0    0  0.70022351292E+02  0.57764715533E+02  0.70706718552E+02  0.16996129027E+03  0.12509000000E+03 0.  0.
         25    1    3    3    0    0 -0.95410417129E+02 -0.47687638226E+02  0.45711110171E+02  0.17062904861E+03  0.12509000000E+03 0.  0.
         25    1    4    4    0    0  0.25388065836E+02 -0.10077077308E+02  0.88817704112E+02  0.15582744956E+03  0.12509000000E+03 0.  0.
<mgrwt>
<rscale>  2 0.45200553E+03</rscale>
<asrwt>0</asrwt>
<pdfrwt beam="1">  1       21 0.51592156E-01 0.45200553E+03</pdfrwt>
<pdfrwt beam="2">  1       21 0.21410460E-01 0.45200553E+03</pdfrwt>
<totfact> 0.67104054E+04</totfact>
</mgrwt>
</event>
<event>
 7    0  0.4712189E-002  0.4515735E+03  0.7546771E-02  0.1027254E+00
         21   -1    0    0  502  501  0.00000000000E+00  0.00000000000E+00  0.36816181763E+03  0.36816181763E+03  0.00000000000E+00 0. -1.
         21   -1    0    0  501  502 -0.00000000000E+00 -0.00000000000E+00 -0.13847077710E+03  0.13847077710E+03  0.00000000000E+00 0. -1.
      99926    2    1    2    0    0  0.00000000000E+00  0.00000000000E+00  0.22969104053E+03  0.50663259473E+03  0.45157348454E+03 0.  0.
      99925    2    3    3    0    0 -0.10800285287E+03  0.20428664168E+02  0.14309974311E+03  0.31894267109E+03  0.26299228964E+03 0.  0.
         25    1    3    3    0    0  0.10800285287E+03 -0.20428664168E+02  0.86591297421E+02  0.18768992364E+03  0.12509000000E+03 0.  0.
         25    1    4    4    0    0 -0.50424028907E+02 -0.29712495236E+02  0.61167524140E+02  0.15104432851E+03  0.12509000000E+03 0.  0.
         25    1    4    4    0    0 -0.57578823965E+02  0.50141159403E+02  0.81932218974E+02  0.16789834258E+03  0.12509000000E+03 0.  0.
<mgrwt>
<rscale>  2 0.45157348E+03</rscale>
<asrwt>0</asrwt>
<pdfrwt beam="1">  1       21 0.54141444E-01 0.45157348E+03</pdfrwt>
<pdfrwt beam="2">  1       21 0.20363350E-01 0.45157348E+03</pdfrwt>
<totfact> 0.66599999E+04</totfact>
</mgrwt>
</event>
<event>
 7    0  0.4712189E-002  0.4169340E+03  0.7546771E-02  0.1038069E+00
         21   -1    0    0  502  501  0.00000000000E+00  0.00000000000E+00  0.62575794165E+02  0.62575794165E+02  0.00000000000E+00 0.  1.
         21   -1    0    0  501  502 -0.00000000000E+00 -0.00000000000E+00 -0.69449369059E+03  0.69449369059E+03  0.00000000000E+00 0.  1.
      99926    2    1    2    0    0  0.00000000000E+00  0.00000000000E+00 -0.63191789642E+03  0.75706948475E+03  0.41693401987E+03 0.  0.
      99925    2    3    3    0    0 -0.37517402836E+02 -0.18866931920E+02 -0.30724798375E+03  0.40661039023E+03  0.26299651955E+03 0.  0.
         25    1    3    3    0    0  0.37517402836E+02  0.18866931920E+02 -0.32466991268E+03  0.35045909452E+03  0.12509000000E+03 0.  0.
         25    1    4    4    0    0 -0.37581994752E+02  0.10951984434E+02 -0.10983364825E+03  0.17100669776E+03  0.12509000000E+03 0.  0.
         25    1    4    4    0    0  0.64591916004E-01 -0.29818916353E+02 -0.19741433550E+03  0.23560369247E+03  0.12509000000E+03 0.  0.
<mgrwt>
<rscale>  2 0.41693402E+03</rscale>
<asrwt>0</asrwt>
<pdfrwt beam="1">  1       21 0.92023230E-02 0.41693402E+03</pdfrwt>
<pdfrwt beam="2">  1       21 0.10213142E+00 0.41693402E+03</pdfrwt>
<totfact> 0.68096022E+04</totfact>
</mgrwt>
</event>
<event>
 7    0  0.4712189E-002  0.4587979E+03  0.7546771E-02  0.1025130E+00
         21   -1    0    0  502  501  0.00000000000E+00  0.00000000000E+00  0.41538649218E+02  0.41538649218E+02  0.00000000000E+00 0. -1.
         21   -1    0    0  501  502 -0.00000000000E+00 -0.00000000000E+00 -0.12668656367E+04  0.12668656367E+04  0.00000000000E+00 0. -1.
      99926    2    1    2    0    0  0.00000000000E+00  0.00000000000E+00 -0.12253269874E+04  0.13084042859E+04  0.45879793935E+03 0.  0.
      99925    2    3    3    0    0  0.81042631500E+02 -0.82638495182E+02 -0.80945668250E+03  0.85896836426E+03  0.26307698674E+03 0.  0.
         25    1    4    4    0    0  0.98757771501E+01 -0.94225753321E+01 -0.36636589798E+03  0.38737294072E+03  0.12509000000E+03 0.  0.
         25    1    3    3    0    0 -0.81042631500E+02  0.82638495182E+02 -0.41587030493E+03  0.44943592161E+03  0.12509000000E+03 0.  0.
         25    1    4    4    0    0  0.71166854350E+02 -0.73215919850E+02 -0.44309078453E+03  0.47159542355E+03  0.12509000000E+03 0.  0.
<mgrwt>
<rscale>  2 0.45879794E+03</rscale>
<asrwt>0</asrwt>
<pdfrwt beam="1">  1       21 0.61086254E-02 0.45879794E+03</pdfrwt>
<pdfrwt beam="2">  1       21 0.18630376E+00 0.45879794E+03</pdfrwt>
<totfact> 0.28034389E+04</totfact>
</mgrwt>
</event>
<event>
 7    0  0.4712189E-002  0.4866501E+03  0.7546771E-02  0.1017323E+00
         21   -1    0    0  502  501  0.00000000000E+00  0.00000000000E+00  0.22247515042E+03  0.22247515042E+03  0.00000000000E+00 0.  1.
         21   -1    0    0  501  502 -0.00000000000E+00 -0.00000000000E+00 -0.26612893378E+03  0.26612893378E+03  0.00000000000E+00 0.  1.
      99926    2    1    2    0    0  0.00000000000E+00  0.00000000000E+00 -0.43653783355E+02  0.48860408420E+03  0.48665007788E+03 0.  0.
      99925    2    3    3    0    0 -0.94503161683E+02  0.88789977510E+02  0.28229165564E+02  0.29462167748E+03  0.26304094620E+03 0.  0.
         25    1    4    4    0    0 -0.77867121385E+02  0.21902552429E+02 -0.36446651325E+00  0.14896526888E+03  0.12509000000E+03 0.  0.
         25    1    3    3    0    0  0.94503161683E+02 -0.88789977510E+02 -0.71882948918E+02  0.19398240673E+03  0.12509000000E+03 0.  0.
         25    1    4    4    0    0 -0.16636040298E+02  0.66887425081E+02  0.28593632077E+02  0.14565640860E+03  0.12509000000E+03 0.  0.
<mgrwt>
<rscale>  2 0.48665008E+03</rscale>
<asrwt>0</asrwt>
<pdfrwt beam="1">  1       21 0.32716934E-01 0.48665008E+03</pdfrwt>
<pdfrwt beam="2">  1       21 0.39136608E-01 0.48665008E+03</pdfrwt>
<totfact> 0.51785381E+04</totfact>
</mgrwt>
</event>
<event>
 7    0  0.4712189E-002  0.4557089E+03  0.7546771E-02  0.1026033E+00
         21   -1    0    0  502  501  0.00000000000E+00  0.00000000000E+00  0.15278064494E+03  0.15278064494E+03  0.00000000000E+00 0. -1.
         21   -1    0    0  501  502 -0.00000000000E+00 -0.00000000000E+00 -0.33981825145E+03  0.33981825145E+03  0.00000000000E+00 0. -1.
      99926    2    1    2    0    0  0.00000000000E+00  0.00000000000E+00 -0.18703760651E+03  0.49259889639E+03  0.45570890541E+03 0.  0.
      99925    2    3    3    0    0  0.36083330074E+02  0.52379351526E+02 -0.21934320135E+03  0.34859624803E+03  0.26336723598E+03 0.  0.
         25    1    4    4    0    0  0.14531618750E+02  0.19776583328E+02 -0.56144952797E+02  0.13929122376E+03  0.12509000000E+03 0.  0.
         25    1    4    4    0    0  0.21551711325E+02  0.32602768198E+02 -0.16319824855E+03  0.20930502427E+03  0.12509000000E+03 0.  0.
         25    1    3    3    0    0 -0.36083330074E+02 -0.52379351526E+02  0.32305594842E+02  0.14400264836E+03  0.12509000000E+03 0.  0.
<mgrwt>
<rscale>  2 0.45570891E+03</rscale>
<asrwt>0</asrwt>
<pdfrwt beam="1">  1       21 0.22467742E-01 0.45570891E+03</pdfrwt>
<pdfrwt beam="2">  1       21 0.49973272E-01 0.45570891E+03</pdfrwt>
<totfact> 0.65424826E+04</totfact>
</mgrwt>
</event>
<event>
 7    0  0.4712189E-002  0.4292114E+03  0.7546771E-02  0.1034109E+00
         21   -1    0    0  502  501  0.00000000000E+00  0.00000000000E+00  0.40069412058E+03  0.40069412058E+03  0.00000000000E+00 0. -1.
         21   -1    0    0  501  502 -0.00000000000E+00 -0.00000000000E+00 -0.11493954357E+03  0.11493954357E+03  0.00000000000E+00 0. -1.
      99926    2    1    2    0    0  0.00000000000E+00  0.35527136788E-14  0.28575457700E+03  0.51563366415E+03  0.42921136673E+03 0.  0.
      99925    2    3    3    0    0 -0.85317212940E+02  0.15215398161E+02  0.17785613473E+03  0.32908576920E+03  0.26297167845E+03 0.  0.
         25    1    3    3    0    0  0.85317212940E+02 -0.15215398161E+02  0.10789844227E+03  0.18654789495E+03  0.12509000000E+03 0.  0.
         25    1    4    4    0    0 -0.70944296644E+02  0.36729972166E+02  0.10739546729E+03  0.18320338036E+03  0.12509000000E+03 0.  0.
         25    1    4    4    0    0 -0.14372916297E+02 -0.21514574006E+02  0.70460667436E+02  0.14588238884E+03  0.12509000000E+03 0.  0.
<mgrwt>
<rscale>  2 0.42921137E+03</rscale>
<asrwt>0</asrwt>
<pdfrwt beam="1">  1       21 0.58925606E-01 0.42921137E+03</pdfrwt>
<pdfrwt beam="2">  1       21 0.16902874E-01 0.42921137E+03</pdfrwt>
<totfact> 0.79166252E+04</totfact>
</mgrwt>
</event>
<event>
 7    0  0.4712189E-002  0.4535568E+03  0.7546771E-02  0.1026667E+00
         21   -1    0    0  502  501  0.00000000000E+00  0.00000000000E+00  0.53650375705E+03  0.53650375705E+03  0.00000000000E+00 0. -1.
         21   -1    0    0  501  502 -0.00000000000E+00 -0.00000000000E+00 -0.95858514749E+02  0.95858514749E+02  0.00000000000E+00 0. -1.
      99926    2    1    2    0    0  0.00000000000E+00  0.00000000000E+00  0.44064524230E+03  0.63236227180E+03  0.45355684675E+03 0.  0.
      99925    2    3    3    0    0  0.93815938949E+02  0.49013624657E+02  0.22800207241E+03  0.36390670452E+03  0.26313376592E+03 0.  0.
         25    1    3    3    0    0 -0.93815938949E+02 -0.49013624657E+02  0.21264316989E+03  0.26845556728E+03  0.12509000000E+03 0.  0.
         25    1    4    4    0    0  0.64251692148E+01  0.29982687841E+02  0.88369308380E+02  0.15619502916E+03  0.12509000000E+03 0.  0.
         25    1    4    4    0    0  0.87390769734E+02  0.19030936816E+02  0.13963276403E+03  0.20771167536E+03  0.12509000000E+03 0.  0.
<mgrwt>
<rscale>  2 0.45355685E+03</rscale>
<asrwt>0</asrwt>
<pdfrwt beam="1">  1       21 0.78897610E-01 0.45355685E+03</pdfrwt>
<pdfrwt beam="2">  1       21 0.14096841E-01 0.45355685E+03</pdfrwt>
<totfact> 0.57380066E+04</totfact>
</mgrwt>
</event>
<event>
 7    0  0.4712189E-002  0.4421713E+03  0.7546771E-02  0.1030083E+00
         21   -1    0    0  502  501  0.00000000000E+00  0.00000000000E+00  0.13728272620E+03  0.13728272620E+03  0.00000000000E+00 0.  1.
         21   -1    0    0  501  502 -0.00000000000E+00 -0.00000000000E+00 -0.35604518500E+03  0.35604518500E+03  0.00000000000E+00 0.  1.
      99926    2    1    2    0    0  0.71054273576E-14 -0.14210854715E-13 -0.21876245880E+03  0.49332791119E+03  0.44217125029E+03 0.  0.
      99925    2    3    3    0    0 -0.46244749185E+02  0.78754691863E+02 -0.18671485776E+03  0.33516522549E+03  0.26293043177E+03 0.  0.
         25    1    4    4    0    0  0.12332080749E+02  0.43370524380E+02 -0.66527540377E+02  0.14868256229E+03  0.12509000000E+03 0.  0.
         25    1    4    4    0    0 -0.58576829933E+02  0.35384167482E+02 -0.12018731738E+03  0.18648266320E+03  0.12509000000E+03 0.  0.
         25    1    3    3    0    0  0.46244749185E+02 -0.78754691863E+02 -0.32047601044E+02  0.15816268571E+03  0.12509000000E+03 0.  0.
<mgrwt>
<rscale>  2 0.44217125E+03</rscale>
<asrwt>0</asrwt>
<pdfrwt beam="1">  1       21 0.20188636E-01 0.44217125E+03</pdfrwt>
<pdfrwt beam="2">  1       21 0.52359585E-01 0.44217125E+03</pdfrwt>
<totfact> 0.72886209E+04</totfact>
</mgrwt>
</event>
<event>
 7    0  0.4712189E-002  0.4543748E+03  0.7546771E-02  0.1026425E+00
         21   -1    0    0  502  501  0.00000000000E+00  0.00000000000E+00  0.85403749368E+02  0.85403749368E+02  0.00000000000E+00 0. -1.
         21   -1    0    0  501  502 -0.00000000000E+00 -0.00000000000E+00 -0.60435413052E+03  0.60435413052E+03  0.00000000000E+00 0. -1.
      99926    2    1    2    0    0  0.71054273576E-14 -0.14210854715E-13 -0.51895038115E+03  0.68975787989E+03  0.45437477347E+03 0.  0.
      99925    2    3    3    0    0 -0.32729826487E+02 -0.80249204799E+02 -0.43581666478E+03  0.51635113460E+03  0.26300409215E+03 0.  0.
         25    1    3    3    0    0  0.32729826487E+02  0.80249204799E+02 -0.83133716365E+02  0.17340674528E+03  0.12509000000E+03 0.  0.
         25    1    4    4    0    0 -0.36599614153E+02 -0.44926375034E+02 -0.15854387935E+03  0.21009897837E+03  0.12509000000E+03 0.  0.
         25    1    4    4    0    0  0.38697876666E+01 -0.35322829765E+02 -0.27727278543E+03  0.30625215624E+03  0.12509000000E+03 0.  0.
<mgrwt>
<rscale>  2 0.45437477E+03</rscale>
<asrwt>0</asrwt>
<pdfrwt beam="1">  1       21 0.12559375E-01 0.45437477E+03</pdfrwt>
<pdfrwt beam="2">  1       21 0.88875604E-01 0.45437477E+03</pdfrwt>
<totfact> 0.53726626E+04</totfact>
</mgrwt>
</event>
<event>
 7    0  0.4712189E-002  0.4346035E+03  0.7546771E-02  0.1032416E+00
         21   -1    0    0  502  501  0.00000000000E+00  0.00000000000E+00  0.27078508225E+03  0.27078508225E+03  0.00000000000E+00 0. -1.
         21   -1    0    0  501  502 -0.00000000000E+00 -0.00000000000E+00 -0.17438203048E+03  0.17438203048E+03  0.00000000000E+00 0. -1.
      99926    2    1    2    0    0  0.00000000000E+00  0.71054273576E-14  0.96403051774E+02  0.44516711273E+03  0.43460350881E+03 0.  0.
      99925    2    3    3    0    0 -0.45695923194E+02  0.53550157365E+02 -0.40858763808E+00  0.27203208342E+03  0.26276520073E+03 0.  0.
         25    1    4    4    0    0 -0.19457241888E+02 -0.13947930143E+02  0.40203280899E+01  0.12742370327E+03  0.12509000000E+03 0.  0.
         25    1    3    3    0    0  0.45695923194E+02 -0.53550157365E+02  0.96811639412E+02  0.17313502932E+03  0.12509000000E+03 0.  0.
         25    1    4    4    0    0 -0.26238681306E+02  0.67498087508E+02 -0.44289157280E+01  0.14460838015E+03  0.12509000000E+03 0.  0.
<mgrwt>
<rscale>  2 0.43460351E+03</rscale>
<asrwt>0</asrwt>
<pdfrwt beam="1">  1       21 0.39821336E-01 0.43460351E+03</pdfrwt>
<pdfrwt beam="2">  1       21 0.25644416E-01 0.43460351E+03</pdfrwt>
<totfact> 0.81778562E+04</totfact>
</mgrwt>
</event>
<event>
 7    0  0.4712189E-002  0.4511909E+03  0.7546771E-02  0.1027367E+00
         21   -1    0    0  502  501  0.00000000000E+00  0.00000000000E+00  0.22953477556E+03  0.22953477556E+03  0.00000000000E+00 0.  1.
         21   -1    0    0  501  502 -0.00000000000E+00 -0.00000000000E+00 -0.22172375283E+03  0.22172375283E+03  0.00000000000E+00 0.  1.
      99926    2    1    2    0    0 -0.35527136788E-14  0.00000000000E+00  0.78110227310E+01  0.45125852838E+03  0.45119092119E+03 0.  0.
      99925    2    3    3    0    0 -0.21347080640E+02  0.42825978567E+02 -0.93650249565E+02  0.28323573181E+03  0.26298735376E+03 0.  0.
         25    1    4    4    0    0 -0.22979624619E+02  0.20416985346E+02 -0.88032683906E+02  0.15601979994E+03  0.12509000000E+03 0.  0.
         25    1    3    3    0    0  0.21347080640E+02 -0.42825978567E+02  0.10146127230E+03  0.16802279657E+03  0.12509000000E+03 0.  0.
         25    1    4    4    0    0  0.16325439788E+01  0.22408993220E+02 -0.56175656596E+01  0.12721593187E+03  0.12509000000E+03 0.  0.
<mgrwt>
<rscale>  2 0.45119092E+03</rscale>
<asrwt>0</asrwt>
<pdfrwt beam="1">  1       21 0.33755114E-01 0.45119092E+03</pdfrwt>
<pdfrwt beam="2">  1       21 0.32606434E-01 0.45119092E+03</pdfrwt>
<totfact> 0.70952798E+04</totfact>
</mgrwt>
</event>
<event>
 7    0  0.4712189E-002  0.4461447E+03  0.7546771E-02  0.1028878E+00
         21   -1    0    0  502  501  0.00000000000E+00  0.00000000000E+00  0.64648241218E+02  0.64648241218E+02  0.00000000000E+00 0. -1.
         21   -1    0    0  501  502 -0.00000000000E+00 -0.00000000000E+00 -0.76972355569E+03  0.76972355569E+03  0.00000000000E+00 0. -1.
      99926    2    1    2    0    0  0.00000000000E+00  0.00000000000E+00 -0.70507531447E+03  0.83437179691E+03  0.44614470343E+03 0.  0.
      99925    2    3    3    0    0  0.16875015531E+02 -0.57507059603E+02 -0.28676569616E+03  0.39366523589E+03  0.26295612828E+03 0.  0.
         25    1    4    4    0    0  0.33539221041E+02 -0.22573751037E+02 -0.98173786752E+02  0.16407331925E+03  0.12509000000E+03 0.  0.
         25    1    4    4    0    0 -0.16664205510E+02 -0.34933308566E+02 -0.18859190941E+03  0.22959191664E+03  0.12509000000E+03 0.  0.
         25    1    3    3    0    0 -0.16875015531E+02  0.57507059603E+02 -0.41830961832E+03  0.44070656102E+03  0.12509000000E+03 0.  0.
<mgrwt>
<rscale>  2 0.44614470E+03</rscale>
<asrwt>0</asrwt>
<pdfrwt beam="1">  1       21 0.95070950E-02 0.44614470E+03</pdfrwt>
<pdfrwt beam="2">  1       21 0.11319463E+00 0.44614470E+03</pdfrwt>
<totfact> 0.49497068E+04</totfact>
</mgrwt>
</event>
<event>
 7    0  0.4712189E-002  0.4514955E+03  0.7546771E-02  0.1027277E+00
         21   -1    0    0  502  501  0.00000000000E+00  0.00000000000E+00  0.20832590153E+03  0.20832590153E+03  0.00000000000E+00 0. -1.
         21   -1    0    0  501  502 -0.00000000000E+00 -0.00000000000E+00 -0.24462656796E+03  0.24462656796E+03  0.00000000000E+00 0. -1.
      99926    2    1    2    0    0  0.00000000000E+00  0.00000000000E+00 -0.36300666429E+02  0.45295246949E+03  0.45149551630E+03 0.  0.
      99925    2    3    3    0    0  0.68755285292E+02 -0.73352439782E+02 -0.67413372874E+02  0.28947960239E+03  0.26295628473E+03 0.  0.
         25    1    4    4    0    0  0.63211578780E+02 -0.54832299405E+02 -0.62058284797E+02  0.16279134978E+03  0.12509000000E+03 0.  0.
         25    1    3    3    0    0 -0.68755285292E+02  0.73352439782E+02  0.31112706444E+02  0.16347286711E+03  0.12509000000E+03 0.  0.
         25    1    4    4    0    0  0.55437065119E+01 -0.18520140376E+02 -0.53550880764E+01  0.12668825261E+03  0.12509000000E+03 0.  0.
<mgrwt>
<rscale>  2 0.45149552E+03</rscale>
<asrwt>0</asrwt>
<pdfrwt beam="1">  1       21 0.30636162E-01 0.45149552E+03</pdfrwt>
<pdfrwt beam="2">  1       21 0.35974495E-01 0.45149552E+03</pdfrwt>
<totfact> 0.70651004E+04</totfact>
</mgrwt>
</event>
<event>
 7    0  0.4712189E-002  0.4492816E+03  0.7546771E-02  0.1027936E+00
         21   -1    0    0  502  501  0.00000000000E+00  0.00000000000E+00  0.31341231652E+03  0.31341231652E+03  0.00000000000E+00 0.  1.
         21   -1    0    0  501  502 -0.00000000000E+00 -0.00000000000E+00 -0.16101312138E+03  0.16101312138E+03  0.00000000000E+00 0.  1.
      99926    2    1    2    0    0  0.00000000000E+00  0.71054273576E-14  0.15239919514E+03  0.47442543790E+03  0.44928162821E+03 0.  0.
      99925    2    3    3    0    0  0.88221978767E+02  0.42322891197E+02  0.14386573540E+03  0.31538244783E+03  0.26304827298E+03 0.  0.
         25    1    4    4    0    0  0.60695849533E+02  0.47158545403E+01  0.35843816729E+02  0.14366110376E+03  0.12509000000E+03 0.  0.
         25    1    3    3    0    0 -0.88221978767E+02 -0.42322891197E+02  0.85334597434E+01  0.15904299007E+03  0.12509000000E+03 0.  0.
         25    1    4    4    0    0  0.27526129234E+02  0.37607036657E+02  0.10802191867E+03  0.17172134407E+03  0.12509000000E+03 0.  0.
<mgrwt>
<rscale>  2 0.44928163E+03</rscale>
<asrwt>0</asrwt>
<pdfrwt beam="1">  1       21 0.46090046E-01 0.44928163E+03</pdfrwt>
<pdfrwt beam="2">  1       21 0.23678400E-01 0.44928163E+03</pdfrwt>
<totfact> 0.70242437E+04</totfact>
</mgrwt>
</event>
<event>
 7    0  0.4712189E-002  0.4581518E+03  0.7546771E-02  0.1025319E+00
         21   -1    0    0  502  501  0.00000000000E+00  0.00000000000E+00  0.11100882871E+03  0.11100882871E+03  0.00000000000E+00 0.  1.
         21   -1    0    0  501  502 -0.00000000000E+00 -0.00000000000E+00 -0.47271704621E+03  0.47271704621E+03  0.00000000000E+00 0.  1.
      99926    2    1    2    0    0  0.14210854715E-13  0.00000000000E+00 -0.36170821750E+03  0.58372587492E+03  0.45815178974E+03 0.  0.
      99925    2    3    3    0    0  0.86001845135E+02  0.76024392707E+02 -0.20495900451E+03  0.35265478299E+03  0.26302314876E+03 0.  0.
         25    1    4    4    0    0  0.54619071856E+01  0.40757459332E+02 -0.11768300976E+03  0.17660068462E+03  0.12509000000E+03 0.  0.
         25    1    3    3    0    0 -0.86001845135E+02 -0.76024392707E+02 -0.15674921299E+03  0.23107109193E+03  0.12509000000E+03 0.  0.
         25    1    4    4    0    0  0.80539937949E+02  0.35266933375E+02 -0.87275994759E+02  0.17605409838E+03  0.12509000000E+03 0.  0.
<mgrwt>
<rscale>  2 0.45815179E+03</rscale>
<asrwt>0</asrwt>
<pdfrwt beam="1">  1       21 0.16324828E-01 0.45815179E+03</pdfrwt>
<pdfrwt beam="2">  1       21 0.69517213E-01 0.45815179E+03</pdfrwt>
<totfact> 0.58226996E+04</totfact>
</mgrwt>
</event>
<event>
 7    0  0.4712189E-002  0.4612976E+03  0.7546771E-02  0.1024406E+00
         21   -1    0    0  502  501  0.00000000000E+00  0.00000000000E+00  0.37230534843E+03  0.37230534843E+03  0.00000000000E+00 0.  1.
         21   -1    0    0  501  502 -0.00000000000E+00 -0.00000000000E+00 -0.14289043672E+03  0.14289043672E+03  0.00000000000E+00 0.  1.
      99926    2    1    2    0    0 -0.14210854715E-13  0.00000000000E+00  0.22941491171E+03  0.51519578515E+03  0.46129762120E+03 0.  0.
      99925    2    3    3    0    0  0.78373676204E+02 -0.11798554043E+02  0.24268080587E+03  0.36651784110E+03  0.26298234790E+03 0.  0.
         25    1    3    3    0    0 -0.78373676204E+02  0.11798554043E+02 -0.13265894162E+02  0.14867794405E+03  0.12509000000E+03 0.  0.
         25    1    4    4    0    0  0.80568163749E+02 -0.60552283188E+00  0.13958865283E+03  0.20401984160E+03  0.12509000000E+03 0.  0.
         25    1    4    4    0    0 -0.21944875445E+01 -0.11193031212E+02  0.10309215304E+03  0.16249799950E+03  0.12509000000E+03 0.  0.
<mgrwt>
<rscale>  2 0.46129762E+03</rscale>
<asrwt>0</asrwt>
<pdfrwt beam="1">  1       21 0.54750786E-01 0.46129762E+03</pdfrwt>
<pdfrwt beam="2">  1       21 0.21013300E-01 0.46129762E+03</pdfrwt>
<totfact> 0.61104345E+04</totfact>
</mgrwt>
</event>
<event>
 7    0  0.4712189E-002  0.4566926E+03  0.7546771E-02  0.1025745E+00
         21   -1    0    0  502  501  0.00000000000E+00  0.00000000000E+00  0.10806119159E+03  0.10806119159E+03  0.00000000000E+00 0. -1.
         21   -1    0    0  501  502 -0.00000000000E+00 -0.00000000000E+00 -0.48252327562E+03  0.48252327562E+03  0.00000000000E+00 0. -1.
      99926    2    1    2    0    0  0.00000000000E+00  0.35527136788E-14 -0.37446208404E+03  0.59058446721E+03  0.45669263244E+03 0.  0.
      99925    2    3    3    0    0 -0.10601430108E+03 -0.30816177304E+02 -0.27613311923E+03  0.39692300425E+03  0.26288724379E+03 0.  0.
         25    1    4    4    0    0 -0.61099105048E+02  0.23103639916E+02 -0.12429629398E+03  0.18805306595E+03  0.12509000000E+03 0.  0.
         25    1    3    3    0    0  0.10601430108E+03  0.30816177304E+02 -0.98328964806E+02  0.19366146296E+03  0.12509000000E+03 0.  0.
         25    1    4    4    0    0 -0.44915196031E+02 -0.53919817220E+02 -0.15183682525E+03  0.20886993830E+03  0.12509000000E+03 0.  0.
<mgrwt>
<rscale>  2 0.45669263E+03</rscale>
<asrwt>0</asrwt>
<pdfrwt beam="1">  1       21 0.15891352E-01 0.45669263E+03</pdfrwt>
<pdfrwt beam="2">  1       21 0.70959305E-01 0.45669263E+03</pdfrwt>
<totfact> 0.58475394E+04</totfact>
</mgrwt>
</event>
<event>
 7    0  0.4712189E-002  0.4513728E+03  0.7546771E-02  0.1027313E+00
         21   -1    0    0  502  501  0.00000000000E+00  0.00000000000E+00  0.56988448562E+02  0.56988448562E+02  0.00000000000E+00 0. -1.
         21   -1    0    0  501  502 -0.00000000000E+00 -0.00000000000E+00 -0.89376641202E+03  0.89376641202E+03  0.00000000000E+00 0. -1.
      99926    2    1    2    0    0 -0.22204460493E-14  0.00000000000E+00 -0.83677796346E+03  0.95075486058E+03  0.45137284455E+03 0.  0.
      99925    2    3    3    0    0 -0.30205585582E+01 -0.10551723969E+03 -0.46417119054E+03  0.54378271538E+03  0.26287209014E+03 0.  0.
         25    1    3    3    0    0  0.30205585582E+01  0.10551723969E+03 -0.37260677292E+03  0.40697214520E+03  0.12509000000E+03 0.  0.
         25    1    4    4    0    0 -0.25970206395E+02 -0.51609345442E+02 -0.29336977965E+03  0.32411620118E+03  0.12509000000E+03 0.  0.
         25    1    4    4    0    0  0.22949647837E+02 -0.53907894248E+02 -0.17080141089E+03  0.21966651420E+03  0.12509000000E+03 0.  0.
<mgrwt>
<rscale>  2 0.45137284E+03</rscale>
<asrwt>0</asrwt>
<pdfrwt beam="1">  1       21 0.83806540E-02 0.45137284E+03</pdfrwt>
<pdfrwt beam="2">  1       21 0.13143624E+00 0.45137284E+03</pdfrwt>
<totfact> 0.42297256E+04</totfact>
</mgrwt>
</event>
<event>
 7    0  0.4712189E-002  0.4549473E+03  0.7546771E-02  0.1026257E+00
         21   -1    0    0  502  501  0.00000000000E+00  0.00000000000E+00  0.51743894387E+02  0.51743894387E+02  0.00000000000E+00 0. -1.
         21   -1    0    0  501  502 -0.00000000000E+00 -0.00000000000E+00 -0.10000070714E+04  0.10000070714E+04  0.00000000000E+00 0. -1.
      99926    2    1    2    0    0 -0.71054273576E-14  0.14210854715E-13 -0.94826317702E+03  0.10517509658E+04  0.45494729492E+03 0.  0.
      99925    2    3    3    0    0 -0.44322761919E+02  0.85397594539E+02 -0.45931047693E+03  0.53796160487E+03  0.26301961470E+03 0.  0.
         25    1    4    4    0    0 -0.32005925513E+02  0.56600546692E+02 -0.31079584255E+03  0.34127637627E+03  0.12509000000E+03 0.  0.
         25    1    3    3    0    0  0.44322761919E+02 -0.85397594539E+02 -0.48895270009E+03  0.51378936092E+03  0.12509000000E+03 0.  0.
         25    1    4    4    0    0 -0.12316836406E+02  0.28797047847E+02 -0.14851463439E+03  0.19668522860E+03  0.12509000000E+03 0.  0.
<mgrwt>
<rscale>  2 0.45494729E+03</rscale>
<asrwt>0</asrwt>
<pdfrwt beam="1">  1       21 0.76093975E-02 0.45494729E+03</pdfrwt>
<pdfrwt beam="2">  1       21 0.14705984E+00 0.45494729E+03</pdfrwt>
<totfact> 0.37228520E+04</totfact>
</mgrwt>
</event>
<event>
 7    0  0.4712189E-002  0.4520231E+03  0.7546771E-02  0.1027120E+00
         21   -1    0    0  502  501  0.00000000000E+00  0.00000000000E+00  0.19853563600E+03  0.19853563600E+03  0.00000000000E+00 0. -1.
         21   -1    0    0  501  502 -0.00000000000E+00 -0.00000000000E+00 -0.25728996421E+03  0.25728996421E+03  0.00000000000E+00 0. -1.
      99926    2    1    2    0    0 -0.71054273576E-14 -0.88817841970E-15 -0.58754328213E+02  0.45582560021E+03  0.45202312631E+03 0.  0.
      99925    2    3    3    0    0  0.52330635600E+02  0.77367123314E+01 -0.13460685016E+03  0.30026382687E+03  0.26313686453E+03 0.  0.
         25    1    3    3    0    0 -0.52330635600E+02 -0.77367123314E+01  0.75852521945E+02  0.15556177334E+03  0.12509000000E+03 0.  0.
         25    1    4    4    0    0  0.73878962102E+01  0.20501613440E+02 -0.10184773106E+03  0.16277397085E+03  0.12509000000E+03 0.  0.
         25    1    4    4    0    0  0.44942739389E+02 -0.12764901109E+02 -0.32759119101E+02  0.13748985602E+03  0.12509000000E+03 0.  0.
<mgrwt>
<rscale>  2 0.45202313E+03</rscale>
<asrwt>0</asrwt>
<pdfrwt beam="1">  1       21 0.29196417E-01 0.45202313E+03</pdfrwt>
<pdfrwt beam="2">  1       21 0.37836759E-01 0.45202313E+03</pdfrwt>
<totfact> 0.70136158E+04</totfact>
</mgrwt>
</event>
<event>
 7    0  0.4712189E-002  0.4523265E+03  0.7546771E-02  0.1027031E+00
         21   -1    0    0  502  501  0.00000000000E+00  0.00000000000E+00  0.12999921053E+03  0.12999921053E+03  0.00000000000E+00 0. -1.
         21   -1    0    0  501  502 -0.00000000000E+00 -0.00000000000E+00 -0.39346252742E+03  0.39346252742E+03  0.00000000000E+00 0. -1.
      99926    2    1    2    0    0  0.00000000000E+00  0.00000000000E+00 -0.26346331688E+03  0.52346173795E+03  0.45232651012E+03 0.  0.
      99925    2    3    3    0    0 -0.12577033610E+02 -0.10117917486E+03 -0.21352430734E+03  0.35453329164E+03  0.26401859376E+03 0.  0.
         25    1    3    3    0    0  0.12577033610E+02  0.10117917486E+03 -0.49939009538E+02  0.16892844631E+03  0.12509000000E+03 0.  0.
         25    1    4    4    0    0 -0.48415707653E+02 -0.51936755689E+02 -0.10500119137E+03  0.17808499552E+03  0.12509000000E+03 0.  0.
         25    1    4    4    0    0  0.35838674043E+02 -0.49242419171E+02 -0.10852311597E+03  0.17644829612E+03  0.12509000000E+03 0.  0.
<mgrwt>
<rscale>  2 0.45232651E+03</rscale>
<asrwt>0</asrwt>
<pdfrwt beam="1">  1       21 0.19117531E-01 0.45232651E+03</pdfrwt>
<pdfrwt beam="2">  1       21 0.57862136E-01 0.45232651E+03</pdfrwt>
<totfact> 0.65018358E+04</totfact>
</mgrwt>
</event>
<event>
 7    0  0.4712189E-002  0.4476304E+03  0.7546771E-02  0.1028431E+00
         21   -1    0    0  502  501  0.00000000000E+00  0.00000000000E+00  0.58899736477E+03  0.58899736477E+03  0.00000000000E+00 0.  1.
         21   -1    0    0  501  502 -0.00000000000E+00 -0.00000000000E+00 -0.85048347132E+02  0.85048347132E+02  0.00000000000E+00 0.  1.
      99926    2    1    2    0    0 -0.14210854715E-13  0.14210854715E-13  0.50394901764E+03  0.67404571191E+03  0.44763043837E+03 0.  0.
      99925    2    3    3    0    0 -0.78769110828E+02  0.68455708299E+02  0.29020658549E+03  0.40530030781E+03  0.26297855508E+03 0.  0.
         25    1    3    3    0    0  0.78769110828E+02 -0.68455708299E+02  0.21374243215E+03  0.26874540410E+03  0.12509000000E+03 0.  0.
         25    1    4    4    0    0 -0.44157548885E+02  0.81530393876E+01  0.18447351126E+03  0.22736390573E+03  0.12509000000E+03 0.  0.
         25    1    4    4    0    0 -0.34611561943E+02  0.60302668912E+02  0.10573307423E+03  0.17793640208E+03  0.12509000000E+03 0.  0.
<mgrwt>
<rscale>  2 0.44763044E+03</rscale>
<asrwt>0</asrwt>
<pdfrwt beam="1">  1       21 0.86617258E-01 0.44763044E+03</pdfrwt>
<pdfrwt beam="2">  1       21 0.12507110E-01 0.44763044E+03</pdfrwt>
<totfact> 0.57606912E+04</totfact>
</mgrwt>
</event>
<event>
 7    0  0.4712189E-002  0.4418470E+03  0.7546771E-02  0.1030182E+00
         21   -1    0    0  502  501  0.00000000000E+00  0.00000000000E+00  0.10516899324E+03  0.10516899324E+03  0.00000000000E+00 0.  1.
         21   -1    0    0  501  502 -0.00000000000E+00 -0.00000000000E+00 -0.46408347601E+03  0.46408347601E+03  0.00000000000E+00 0.  1.
      99926    2    1    2    0    0  0.00000000000E+00 -0.14210854715E-13 -0.35891448277E+03  0.56925246924E+03  0.44184699592E+03 0.  0.
      99925    2    3    3    0    0 -0.19725483485E+02 -0.84940985370E+02 -0.16467177048E+03  0.32230752584E+03  0.26298532949E+03 0.  0.
         25    1    3    3    0    0  0.19725483485E+02  0.84940985370E+02 -0.19424271229E+03  0.24694494340E+03  0.12509000000E+03 0.  0.
         25    1    4    4    0    0  0.30736265712E+01 -0.82500464742E+02 -0.87473481979E+02  0.17353642849E+03  0.12509000000E+03 0.  0.
         25    1    4    4    0    0 -0.22799110056E+02 -0.24405206272E+01 -0.77198288499E+02  0.14877109735E+03  0.12509000000E+03 0.  0.
<mgrwt>
<rscale>  2 0.44184700E+03</rscale>
<asrwt>0</asrwt>
<pdfrwt beam="1">  1       21 0.15466029E-01 0.44184700E+03</pdfrwt>
<pdfrwt beam="2">  1       21 0.68247568E-01 0.44184700E+03</pdfrwt>
<totfact> 0.67348247E+04</totfact>
</mgrwt>
</event>
<event>
 7    0  0.4712189E-002  0.4598948E+03  0.7546771E-02  0.1024812E+00
         21   -1    0    0  502  501  0.00000000000E+00  0.00000000000E+00  0.33442596306E+03  0.33442596306E+03  0.00000000000E+00 0. -1.
         21   -1    0    0  501  502 -0.00000000000E+00 -0.00000000000E+00 -0.15810916810E+03  0.15810916810E+03  0.00000000000E+00 0. -1.
      99926    2    1    2    0    0  0.00000000000E+00  0.00000000000E+00  0.17631679496E+03  0.49253513116E+03  0.45989481759E+03 0.  0.
      99925    2    3    3    0    0  0.90260494452E+02 -0.65591046774E+02  0.15073512041E+03  0.32297371914E+03  0.26294829235E+03 0.  0.
         25    1    4    4    0    0  0.83896815902E+02 -0.48965534417E+02  0.70976781196E+02  0.17355549789E+03  0.12509000000E+03 0.  0.
         25    1    3    3    0    0 -0.90260494452E+02  0.65591046774E+02  0.25581674548E+02  0.16956141203E+03  0.12509000000E+03 0.  0.
         25    1    4    4    0    0  0.63636785498E+01 -0.16625512357E+02  0.79758339214E+02  0.14941822125E+03  0.12509000000E+03 0.  0.
<mgrwt>
<rscale>  2 0.45989482E+03</rscale>
<asrwt>0</asrwt>
<pdfrwt beam="1">  1       21 0.49180289E-01 0.45989482E+03</pdfrwt>
<pdfrwt beam="2">  1       21 0.23251348E-01 0.45989482E+03</pdfrwt>
<totfact> 0.63302518E+04</totfact>
</mgrwt>
</event>
<event>
 7    0  0.4712189E-002  0.4442648E+03  0.7546771E-02  0.1029446E+00
         21   -1    0    0  502  501  0.00000000000E+00  0.00000000000E+00  0.16064315207E+04  0.16064315207E+04  0.00000000000E+00 0. -1.
         21   -1    0    0  501  502 -0.00000000000E+00 -0.00000000000E+00 -0.30715782219E+02  0.30715782219E+02  0.00000000000E+00 0. -1.
      99926    2    1    2    0    0  0.35527136788E-14  0.00000000000E+00  0.15757157385E+04  0.16371473029E+04  0.44426478924E+03 0.  0.
      99925    2    3    3    0    0 -0.16345580385E+02 -0.53474928265E+02  0.13198060055E+04  0.13468646036E+04  0.26273489017E+03 0.  0.
         25    1    4    4    0    0 -0.28857809996E+02 -0.54379234896E+01  0.50911188312E+03  0.52507595816E+03  0.12509000000E+03 0.  0.
         25    1    3    3    0    0  0.16345580385E+02  0.53474928265E+02  0.25590973301E+03  0.29028269928E+03  0.12509000000E+03 0.  0.
         25    1    4    4    0    0  0.12512229611E+02 -0.48037004775E+02  0.81069412236E+03  0.82178864549E+03  0.12509000000E+03 0.  0.
<mgrwt>
<rscale>  2 0.44426479E+03</rscale>
<asrwt>0</asrwt>
<pdfrwt beam="1">  1       21 0.23623987E+00 0.44426479E+03</pdfrwt>
<pdfrwt beam="2">  1       21 0.45170279E-02 0.44426479E+03</pdfrwt>
<totfact> 0.22414148E+04</totfact>
</mgrwt>
</event>
<event>
 7    0  0.4712189E-002  0.4514812E+03  0.7546771E-02  0.1027281E+00
         21   -1    0    0  502  501  0.00000000000E+00  0.00000000000E+00  0.24187677700E+03  0.24187677700E+03  0.00000000000E+00 0.  1.
         21   -1    0    0  501  502 -0.00000000000E+00 -0.00000000000E+00 -0.21068089456E+03  0.21068089456E+03  0.00000000000E+00 0.  1.
      99926    2    1    2    0    0  0.00000000000E+00  0.00000000000E+00  0.31195882444E+02  0.45255767156E+03  0.45148118788E+03 0.  0.
      99925    2    3    3    0    0  0.36972462507E+02 -0.77132334685E+02  0.88827031224E+02  0.29043050713E+03  0.26295109423E+03 0.  0.
         25    1    4    4    0    0  0.47769476707E+02 -0.22464216536E+02  0.68222512528E+02  0.15194862041E+03  0.12509000000E+03 0.  0.
         25    1    4    4    0    0 -0.10797014200E+02 -0.54668118150E+02  0.20604518696E+02  0.13848188672E+03  0.12509000000E+03 0.  0.
         25    1    3    3    0    0 -0.36972462507E+02  0.77132334685E+02 -0.57631148780E+02  0.16212716443E+03  0.12509000000E+03 0.  0.
<mgrwt>
<rscale>  2 0.45148119E+03</rscale>
<asrwt>0</asrwt>
<pdfrwt beam="1">  1       21 0.35570114E-01 0.45148119E+03</pdfrwt>
<pdfrwt beam="2">  1       21 0.30982484E-01 0.45148119E+03</pdfrwt>
<totfact> 0.70689023E+04</totfact>
</mgrwt>
</event>
<event>
 7    0  0.4712189E-002  0.4254663E+03  0.7546771E-02  0.1035302E+00
         21   -1    0    0  502  501  0.00000000000E+00  0.00000000000E+00  0.15588243934E+03  0.15588243934E+03  0.00000000000E+00 0.  1.
         21   -1    0    0  501  502 -0.00000000000E+00 -0.00000000000E+00 -0.29031745314E+03  0.29031745314E+03  0.00000000000E+00 0.  1.
      99926    2    1    2    0    0  0.00000000000E+00  0.00000000000E+00 -0.13443501380E+03  0.44619989247E+03  0.42546629844E+03 0.  0.
      99925    2    3    3    0    0 -0.39187559571E+02  0.37370363339E+02 -0.15224408401E+03  0.30873396956E+03  0.26307070145E+03 0.  0.
         25    1    4    4    0    0 -0.55603933433E+02 -0.27475841707E+00 -0.75119979246E+02  0.15614862243E+03  0.12509000000E+03 0.  0.
         25    1    3    3    0    0  0.39187559571E+02 -0.37370363339E+02  0.17809070203E+02  0.13746592291E+03  0.12509000000E+03 0.  0.
         25    1    4    4    0    0  0.16416373863E+02  0.37645121756E+02 -0.77124104759E+02  0.15258534713E+03  0.12509000000E+03 0.  0.
<mgrwt>
<rscale>  2 0.42546630E+03</rscale>
<asrwt>0</asrwt>
<pdfrwt beam="1">  1       21 0.22923889E-01 0.42546630E+03</pdfrwt>
<pdfrwt beam="2">  1       21 0.42693742E-01 0.42546630E+03</pdfrwt>
<totfact> 0.88162569E+04</totfact>
</mgrwt>
</event>
<event>
 7    0  0.4712189E-002  0.4491123E+03  0.7546771E-02  0.1027987E+00
         21   -1    0    0  502  501  0.00000000000E+00  0.00000000000E+00  0.47405724279E+03  0.47405724279E+03  0.00000000000E+00 0.  1.
         21   -1    0    0  501  502 -0.00000000000E+00 -0.00000000000E+00 -0.10636997524E+03  0.10636997524E+03  0.00000000000E+00 0.  1.
      99926    2    1    2    0    0  0.00000000000E+00  0.71054273576E-14  0.36768726756E+03  0.58042721803E+03  0.44911226738E+03 0.  0.
      99925    2    3    3    0    0  0.66729846809E+02  0.49859742643E+02  0.14467574403E+03  0.31150248113E+03  0.26299022501E+03 0.  0.
         25    1    3    3    0    0 -0.66729846809E+02 -0.49859742643E+02  0.22301152352E+03  0.26892473690E+03  0.12509000000E+03 0.  0.
         25    1    4    4    0    0  0.46375332064E+02  0.54759878576E+02  0.47866988378E+02  0.15194759755E+03  0.12509000000E+03 0.  0.
         25    1    4    4    0    0  0.20354514744E+02 -0.49001359335E+01  0.96808755657E+02  0.15955488358E+03  0.12509000000E+03 0.  0.
<mgrwt>
<rscale>  2 0.44911227E+03</rscale>
<asrwt>0</asrwt>
<pdfrwt beam="1">  1       21 0.69714300E-01 0.44911227E+03</pdfrwt>
<pdfrwt beam="2">  1       21 0.15642644E-01 0.44911227E+03</pdfrwt>
<totfact> 0.62770538E+04</totfact>
</mgrwt>
</event>
<event>
 7    0  0.4712189E-002  0.4281361E+03  0.7546771E-02  0.1034450E+00
         21   -1    0    0  502  501  0.00000000000E+00  0.00000000000E+00  0.91617947077E+02  0.91617947077E+02  0.00000000000E+00 0. -1.
         21   -1    0    0  501  502 -0.00000000000E+00 -0.00000000000E+00 -0.50017641454E+03  0.50017641454E+03  0.00000000000E+00 0. -1.
      99926    2    1    2    0    0  0.00000000000E+00  0.00000000000E+00 -0.40855846746E+03  0.59179436162E+03  0.42813612918E+03 0.  0.
      99925    2    3    3    0    0  0.10840259875E+02  0.35816326935E+02 -0.37011002080E+03  0.45568370201E+03  0.26318413377E+03 0.  0.
         25    1    4    4    0    0 -0.10193633179E+02  0.43787721552E+02 -0.14165624603E+03  0.19425569453E+03  0.12509000000E+03 0.  0.
         25    1    3    3    0    0 -0.10840259875E+02 -0.35816326935E+02 -0.38448446666E+02  0.13611065961E+03  0.12509000000E+03 0.  0.
         25    1    4    4    0    0  0.21033893054E+02 -0.79713946171E+01 -0.22845377477E+03  0.26142800748E+03  0.12509000000E+03 0.  0.
<mgrwt>
<rscale>  2 0.42813613E+03</rscale>
<asrwt>0</asrwt>
<pdfrwt beam="1">  1       21 0.13473227E-01 0.42813613E+03</pdfrwt>
<pdfrwt beam="2">  1       21 0.73555356E-01 0.42813613E+03</pdfrwt>
<totfact> 0.73611984E+04</totfact>
</mgrwt>
</event>
<event>
 7    0  0.4712189E-002  0.4536601E+03  0.7546771E-02  0.1026636E+00
         21   -1    0    0  502  501  0.00000000000E+00  0.00000000000E+00  0.26393002222E+03  0.26393002222E+03  0.00000000000E+00 0. -1.
         21   -1    0    0  501  502 -0.00000000000E+00 -0.00000000000E+00 -0.19494513074E+03  0.19494513074E+03  0.00000000000E+00 0. -1.
      99926    2    1    2    0    0  0.00000000000E+00  0.17763568394E-14  0.68984891482E+02  0.45887515296E+03  0.45366010488E+03 0.  0.
      99925    2    3    3    0    0  0.61969554192E+02  0.10377990139E+02  0.13721691289E+03  0.30314768213E+03  0.26291083597E+03 0.  0.
         25    1    4    4    0    0  0.79275238804E+01  0.27874497710E+02  0.93979963536E+02  0.15912125849E+03  0.12509000000E+03 0.  0.
         25    1    3    3    0    0 -0.61969554192E+02 -0.10377990139E+02 -0.68232021410E+02  0.15572747083E+03  0.12509000000E+03 0.  0.
         25    1    4    4    0    0  0.54042030312E+02 -0.17496507571E+02  0.43236949356E+02  0.14402642364E+03  0.12509000000E+03 0.  0.
<mgrwt>
<rscale>  2 0.45366010E+03</rscale>
<asrwt>0</asrwt>
<pdfrwt beam="1">  1       21 0.38813238E-01 0.45366010E+03</pdfrwt>
<pdfrwt beam="2">  1       21 0.28668402E-01 0.45366010E+03</pdfrwt>
<totfact> 0.68996918E+04</totfact>
</mgrwt>
</event>
<event>
 7    0  0.4712189E-002  0.4513715E+03  0.7546771E-02  0.1027314E+00
         21   -1    0    0  502  501  0.00000000000E+00  0.00000000000E+00  0.27868119952E+02  0.27868119952E+02  0.00000000000E+00 0.  1.
         21   -1    0    0  501  502 -0.00000000000E+00 -0.00000000000E+00 -0.18276820368E+04  0.18276820368E+04  0.00000000000E+00 0.  1.
      99926    2    1    2    0    0  0.00000000000E+00  0.00000000000E+00 -0.17998139168E+04  0.18555501568E+04  0.45137151986E+03 0.  0.
      99925    2    3    3    0    0 -0.51474843397E+02  0.88878236930E+02 -0.12949708793E+04  0.13253964044E+04  0.26301530370E+03 0.  0.
         25    1    3    3    0    0  0.51474843397E+02 -0.88878236930E+02 -0.50484303750E+03  0.53015375234E+03  0.12509000000E+03 0.  0.
         25    1    4    4    0    0 -0.62143203024E+02  0.37548879505E+02 -0.58751027428E+03  0.60505167261E+03  0.12509000000E+03 0.  0.
         25    1    4    4    0    0  0.10668359627E+02  0.51329357425E+02 -0.70746060506E+03  0.72034473181E+03  0.12509000000E+03 0.  0.
<mgrwt>
<rscale>  2 0.45137152E+03</rscale>
<asrwt>0</asrwt>
<pdfrwt beam="1">  1       21 0.40982537E-02 0.45137152E+03</pdfrwt>
<pdfrwt beam="2">  1       21 0.26877672E+00 0.45137152E+03</pdfrwt>
<totfact> 0.16679748E+04</totfact>
</mgrwt>
</event>
<event>
 7    0  0.4712189E-002  0.4481314E+03  0.7546771E-02  0.1028281E+00
         21   -1    0    0  502  501  0.00000000000E+00  0.00000000000E+00  0.50147396359E+02  0.50147396359E+02  0.00000000000E+00 0. -1.
         21   -1    0    0  501  502 -0.00000000000E+00 -0.00000000000E+00 -0.10011575443E+04  0.10011575443E+04  0.00000000000E+00 0. -1.
      99926    2    1    2    0    0  0.00000000000E+00  0.00000000000E+00 -0.95101014789E+03  0.10513049406E+04  0.44813142800E+03 0.  0.
      99925    2    3    3    0    0 -0.10164328709E+03 -0.20306559364E+02 -0.54435385826E+03  0.61340020193E+03  0.26304936905E+03 0.  0.
         25    1    4    4    0    0 -0.34546343628E+02 -0.38242887269E+02 -0.31846816514E+03  0.34601365377E+03  0.12509000000E+03 0.  0.
         25    1    3    3    0    0  0.10164328709E+03  0.20306559364E+02 -0.40665628963E+03  0.43790473868E+03  0.12509000000E+03 0.  0.
         25    1    4    4    0    0 -0.67096943464E+02  0.17936327905E+02 -0.22588569311E+03  0.26738654816E+03  0.12509000000E+03 0.  0.
<mgrwt>
<rscale>  2 0.44813143E+03</rscale>
<asrwt>0</asrwt>
<pdfrwt beam="1">  1       21 0.73746170E-02 0.44813143E+03</pdfrwt>
<pdfrwt beam="2">  1       21 0.14722905E+00 0.44813143E+03</pdfrwt>
<totfact> 0.39294203E+04</totfact>
</mgrwt>
</event>
<event>
 7    0  0.4712189E-002  0.4558539E+03  0.7546771E-02  0.1025991E+00
         21   -1    0    0  502  501  0.00000000000E+00  0.00000000000E+00  0.34738541589E+02  0.34738541589E+02  0.00000000000E+00 0.  1.
         21   -1    0    0  501  502 -0.00000000000E+00 -0.00000000000E+00 -0.14954773332E+04  0.14954773332E+04  0.00000000000E+00 0.  1.
      99926    2    1    2    0    0 -0.17763568394E-14  0.00000000000E+00 -0.14607387916E+04  0.15302158748E+04  0.45585393071E+03 0.  0.
      99925    2    3    3    0    0 -0.12212362416E+02 -0.36538826897E+02 -0.12784475285E+04  0.13058014359E+04  0.26306858280E+03 0.  0.
         25    1    4    4    0    0  0.18415052026E+02  0.14583662178E+02 -0.60114833922E+03  0.61447427220E+03  0.12509000000E+03 0.  0.
         25    1    4    4    0    0 -0.30627414442E+02 -0.51122489075E+02 -0.67729918927E+03  0.69132716372E+03  0.12509000000E+03 0.  0.
         25    1    3    3    0    0  0.12212362416E+02  0.36538826897E+02 -0.18229126312E+03  0.22441443888E+03  0.12509000000E+03 0.  0.
<mgrwt>
<rscale>  2 0.45585393E+03</rscale>
<asrwt>0</asrwt>
<pdfrwt beam="1">  1       21 0.51086097E-02 0.45585393E+03</pdfrwt>
<pdfrwt beam="2">  1       21 0.21992311E+00 0.45585393E+03</pdfrwt>
<totfact> 0.22895980E+04</totfact>
</mgrwt>
</event>
<event>
 7    0  0.4712189E-002  0.4588842E+03  0.7546771E-02  0.1025105E+00
         21   -1    0    0  502  501  0.00000000000E+00  0.00000000000E+00  0.15342270574E+03  0.15342270574E+03  0.00000000000E+00 0. -1.
         21   -1    0    0  501  502 -0.00000000000E+00 -0.00000000000E+00 -0.34312834591E+03  0.34312834591E+03  0.00000000000E+00 0. -1.
      99926    2    1    2    0    0  0.00000000000E+00  0.44408920985E-15 -0.18970564017E+03  0.49655105165E+03  0.45888420869E+03 0.  0.
      99925    2    3    3    0    0 -0.11196433975E+03  0.19533958922E+01 -0.83145320331E+02  0.29769824429E+03  0.26300431789E+03 0.  0.
         25    1    3    3    0    0  0.11196433975E+03 -0.19533958922E+01 -0.10656031984E+03  0.19885280736E+03  0.12509000000E+03 0.  0.
         25    1    4    4    0    0 -0.30625971042E+02  0.98384249997E+01 -0.54195170464E+01  0.12927344651E+03  0.12509000000E+03 0.  0.
         25    1    4    4    0    0 -0.81338368710E+02 -0.78850291075E+01 -0.77725803284E+02  0.16842479777E+03  0.12509000000E+03 0.  0.
<mgrwt>
<rscale>  2 0.45888421E+03</rscale>
<asrwt>0</asrwt>
<pdfrwt beam="1">  1       21 0.22562163E-01 0.45888421E+03</pdfrwt>
<pdfrwt beam="2">  1       21 0.50460050E-01 0.45888421E+03</pdfrwt>
<totfact> 0.63531917E+04</totfact>
</mgrwt>
</event>
<event>
 7    0  0.4712189E-002  0.4547183E+03  0.7546771E-02  0.1026324E+00
         21   -1    0    0  502  501  0.00000000000E+00  0.00000000000E+00  0.60057170908E+02  0.60057170908E+02  0.00000000000E+00 0. -1.
         21   -1    0    0  501  502 -0.00000000000E+00 -0.00000000000E+00 -0.86071629504E+03  0.86071629504E+03  0.00000000000E+00 0. -1.
      99926    2    1    2    0    0  0.88817841970E-15  0.00000000000E+00 -0.80065912414E+03  0.92077346595E+03  0.45471831120E+03 0.  0.
      99925    2    3    3    0    0  0.66317688293E+01  0.11268208828E+03 -0.51147478255E+03  0.58608506625E+03  0.26296010785E+03 0.  0.
         25    1    3    3    0    0 -0.66317688293E+01 -0.11268208828E+03 -0.28918434158E+03  0.33468839970E+03  0.12509000000E+03 0.  0.
         25    1    4    4    0    0 -0.23597793354E+01  0.65277902073E+02 -0.18144852242E+03  0.22986484604E+03  0.12509000000E+03 0.  0.
         25    1    4    4    0    0  0.89915481647E+01  0.47404186208E+02 -0.33002626014E+03  0.35622022021E+03  0.12509000000E+03 0.  0.
<mgrwt>
<rscale>  2 0.45471831E+03</rscale>
<asrwt>0</asrwt>
<pdfrwt beam="1">  1       21 0.88319365E-02 0.45471831E+03</pdfrwt>
<pdfrwt beam="2">  1       21 0.12657593E+00 0.45471831E+03</pdfrwt>
<totfact> 0.42441011E+04</totfact>
</mgrwt>
</event>
<event>
 7    0  0.4712189E-002  0.4533018E+03  0.7546771E-02  0.1026742E+00
         21   -1    0    0  502  501  0.00000000000E+00  0.00000000000E+00  0.26662928544E+03  0.26662928544E+03  0.00000000000E+00 0. -1.
         21   -1    0    0  501  502 -0.00000000000E+00 -0.00000000000E+00 -0.19266689537E+03  0.19266689537E+03  0.00000000000E+00 0. -1.
      99926    2    1    2    0    0  0.00000000000E+00  0.00000000000E+00  0.73962390074E+02  0.45929618081E+03  0.45330182722E+03 0.  0.
      99925    2    3    3    0    0  0.18885264589E+02  0.39484689785E+02  0.15065372753E+03  0.30617935193E+03  0.26293260730E+03 0.  0.
         25    1    4    4    0    0  0.94651519246E+01  0.15743562908E+02  0.28756391706E+02  0.12966066110E+03  0.12509000000E+03 0.  0.
         25    1    4    4    0    0  0.94201126649E+01  0.23741126877E+02  0.12189733583E+03  0.17651869082E+03  0.12509000000E+03 0.  0.
         25    1    3    3    0    0 -0.18885264589E+02 -0.39484689785E+02 -0.76691337458E+02  0.15311682888E+03  0.12509000000E+03 0.  0.
<mgrwt>
<rscale>  2 0.45330183E+03</rscale>
<asrwt>0</asrwt>
<pdfrwt beam="1">  1       21 0.39210189E-01 0.45330183E+03</pdfrwt>
<pdfrwt beam="2">  1       21 0.28333367E-01 0.45330183E+03</pdfrwt>
<totfact> 0.69163721E+04</totfact>
</mgrwt>
</event>
<event>
 7    0  0.4712189E-002  0.4558760E+03  0.7546771E-02  0.1025984E+00
         21   -1    0    0  502  501  0.00000000000E+00  0.00000000000E+00  0.23960126226E+03  0.23960126226E+03  0.00000000000E+00 0.  1.
         21   -1    0    0  501  502 -0.00000000000E+00 -0.00000000000E+00 -0.21684248049E+03  0.21684248049E+03  0.00000000000E+00 0.  1.
      99926    2    1    2    0    0  0.00000000000E+00  0.35527136788E-14  0.22758781778E+02  0.45644374275E+03  0.45587600085E+03 0.  0.
      99925    2    3    3    0    0  0.10571521062E+03  0.28945673071E+02 -0.17125488460E+02  0.28541210574E+03  0.26297001731E+03 0.  0.
         25    1    4    4    0    0  0.92857367045E+02  0.26577432128E+01 -0.18744552678E+02  0.15693444672E+03  0.12509000000E+03 0.  0.
         25    1    3    3    0    0 -0.10571521062E+03 -0.28945673071E+02  0.39884270238E+02  0.17103163701E+03  0.12509000000E+03 0.  0.
         25    1    4    4    0    0  0.12857843575E+02  0.26287929858E+02  0.16190642180E+01  0.12847765902E+03  0.12509000000E+03 0.  0.
<mgrwt>
<rscale>  2 0.45587600E+03</rscale>
<asrwt>0</asrwt>
<pdfrwt beam="1">  1       21 0.35235480E-01 0.45587600E+03</pdfrwt>
<pdfrwt beam="2">  1       21 0.31888600E-01 0.45587600E+03</pdfrwt>
<totfact> 0.67963905E+04</totfact>
</mgrwt>
</event>
<event>
 7    0  0.4712189E-002  0.4590138E+03  0.7546771E-02  0.1025068E+00
         21   -1    0    0  502  501  0.00000000000E+00  0.00000000000E+00  0.37453848396E+03  0.37453848396E+03  0.00000000000E+00 0.  1.
         21   -1    0    0  501  502 -0.00000000000E+00 -0.00000000000E+00 -0.14063552601E+03  0.14063552601E+03  0.00000000000E+00 0.  1.
      99926    2    1    2    0    0  0.00000000000E+00  0.71054273576E-14  0.23390295794E+03  0.51517400997E+03  0.45901379806E+03 0.  0.
      99925    2    3    3    0    0 -0.10257166693E+03 -0.47423559030E+02  0.11309176577E+03  0.30777875191E+03  0.26299823543E+03 0.  0.
         25    1    4    4    0    0 -0.51324445055E+02 -0.14583586464E+02  0.98468176022E+02  0.16789987922E+03  0.12509000000E+03 0.  0.
         25    1    3    3    0    0  0.10257166693E+03  0.47423559030E+02  0.12081119218E+03  0.20739525805E+03  0.12509000000E+03 0.  0.
         25    1    4    4    0    0 -0.51247221873E+02 -0.32839972566E+02  0.14623589744E+02  0.13987887269E+03  0.12509000000E+03 0.  0.
<mgrwt>
<rscale>  2 0.45901380E+03</rscale>
<asrwt>0</asrwt>
<pdfrwt beam="1">  1       21 0.55079189E-01 0.45901380E+03</pdfrwt>
<pdfrwt beam="2">  1       21 0.20681695E-01 0.45901380E+03</pdfrwt>
<totfact> 0.62211944E+04</totfact>
</mgrwt>
</event>
<event>
 7    0  0.4712189E-002  0.4476977E+03  0.7546771E-02  0.1028411E+00
         21   -1    0    0  502  501  0.00000000000E+00  0.00000000000E+00  0.86196720673E+03  0.86196720673E+03  0.00000000000E+00 0. -1.
         21   -1    0    0  501  502 -0.00000000000E+00 -0.00000000000E+00 -0.58132509223E+02  0.58132509223E+02  0.00000000000E+00 0. -1.
      99926    2    1    2    0    0  0.00000000000E+00  0.35527136788E-14  0.80383469750E+03  0.92009971595E+03  0.44769773997E+03 0.  0.
      99925    2    3    3    0    0  0.10172221385E+03 -0.28102146664E+02  0.48581735679E+03  0.56244111262E+03  0.26302920290E+03 0.  0.
         25    1    4    4    0    0  0.74457746483E+02 -0.18890099203E+02  0.32550312435E+03  0.35707223907E+03  0.12509000000E+03 0.  0.
         25    1    3    3    0    0 -0.10172221385E+03  0.28102146664E+02  0.31801734071E+03  0.35765860332E+03  0.12509000000E+03 0.  0.
         25    1    4    4    0    0  0.27264467362E+02 -0.92120474614E+01  0.16031423244E+03  0.20536887355E+03  0.12509000000E+03 0.  0.
<mgrwt>
<rscale>  2 0.44769774E+03</rscale>
<asrwt>0</asrwt>
<pdfrwt beam="1">  1       21 0.12675988E+00 0.44769774E+03</pdfrwt>
<pdfrwt beam="2">  1       21 0.85488990E-02 0.44769774E+03</pdfrwt>
<totfact> 0.44885502E+04</totfact>
</mgrwt>
</event>
<event>
 7    0  0.4712189E-002  0.4568361E+03  0.7546771E-02  0.1025703E+00
         21   -1    0    0  502  501  0.00000000000E+00  0.00000000000E+00  0.52986197047E+03  0.52986197047E+03  0.00000000000E+00 0.  1.
         21   -1    0    0  501  502 -0.00000000000E+00 -0.00000000000E+00 -0.98468661038E+02  0.98468661038E+02  0.00000000000E+00 0.  1.
      99926    2    1    2    0    0  0.00000000000E+00  0.00000000000E+00  0.43139330943E+03  0.62833063151E+03  0.45683607024E+03 0.  0.
      99925    2    3    3    0    0  0.88126169682E+02 -0.39891888982E+02  0.35843503638E+03  0.45418126373E+03  0.26162446452E+03 0.  0.
         25    1    3    3    0    0 -0.88126169682E+02  0.39891888982E+02  0.72958273057E+02  0.17414936778E+03  0.12509000000E+03 0.  0.
         25    1    4    4    0    0  0.17595818496E+02 -0.31099869361E+02  0.12790015654E+03  0.18243566769E+03  0.12509000000E+03 0.  0.
         25    1    4    4    0    0  0.70530351186E+02 -0.87920196209E+01  0.23053487983E+03  0.27174559604E+03  0.12509000000E+03 0.  0.
<mgrwt>
<rscale>  2 0.45683607E+03</rscale>
<asrwt>0</asrwt>
<pdfrwt beam="1">  1       21 0.77920877E-01 0.45683607E+03</pdfrwt>
<pdfrwt beam="2">  1       21 0.14480686E-01 0.45683607E+03</pdfrwt>
<totfact> 0.56149148E+04</totfact>
</mgrwt>
</event>
<event>
 7    0  0.4712189E-002  0.4516843E+03  0.7546771E-02  0.1027221E+00
         21   -1    0    0  502  501  0.00000000000E+00  0.00000000000E+00  0.20635211001E+03  0.20635211001E+03  0.00000000000E+00 0. -1.
         21   -1    0    0  501  502 -0.00000000000E+00 -0.00000000000E+00 -0.24717298382E+03  0.24717298382E+03  0.00000000000E+00 0. -1.
      99926    2    1    2    0    0  0.00000000000E+00 -0.14210854715E-13 -0.40820873810E+02  0.45352509382E+03  0.45168425585E+03 0.  0.
      99925    2    3    3    0    0  0.45506642585E+02 -0.98014694862E+02 -0.46378845561E+02  0.28812819519E+03  0.26303825695E+03 0.  0.
         25    1    4    4    0    0  0.31132671121E+02 -0.10030012753E+02 -0.66542995872E+01  0.12946672225E+03  0.12509000000E+03 0.  0.
         25    1    4    4    0    0  0.14373971464E+02 -0.87984682109E+02 -0.39724545974E+02  0.15866147294E+03  0.12509000000E+03 0.  0.
         25    1    3    3    0    0 -0.45506642585E+02  0.98014694862E+02  0.55579717512E+01  0.16539689864E+03  0.12509000000E+03 0.  0.
<mgrwt>
<rscale>  2 0.45168426E+03</rscale>
<asrwt>0</asrwt>
<pdfrwt beam="1">  1       21 0.30345899E-01 0.45168426E+03</pdfrwt>
<pdfrwt beam="2">  1       21 0.36348968E-01 0.45168426E+03</pdfrwt>
<totfact> 0.70500719E+04</totfact>
</mgrwt>
</event>
<event>
 7    0  0.4712189E-002  0.4566499E+03  0.7546771E-02  0.1025757E+00
         21   -1    0    0  502  501  0.00000000000E+00  0.00000000000E+00  0.36689656823E+03  0.36689656823E+03  0.00000000000E+00 0.  1.
         21   -1    0    0  501  502 -0.00000000000E+00 -0.00000000000E+00 -0.14208985616E+03  0.14208985616E+03  0.00000000000E+00 0.  1.
      99926    2    1    2    0    0  0.00000000000E+00 -0.83266726847E-15  0.22480671208E+03  0.50898642439E+03  0.45664989042E+03 0.  0.
      99925    2    3    3    0    0  0.11442378447E+03 -0.28061760251E+00  0.12799642111E+03  0.31376188255E+03  0.26262245511E+03 0.  0.
         25    1    4    4    0    0  0.68807227566E+02 -0.13441990281E+02  0.10564500508E+03  0.17811091170E+03  0.12509000000E+03 0.  0.
         25    1    3    3    0    0 -0.11442378447E+03  0.28061760251E+00  0.96810290973E+02  0.19522454184E+03  0.12509000000E+03 0.  0.
         25    1    4    4    0    0  0.45616556902E+02  0.13161372679E+02  0.22351416024E+02  0.13565097085E+03  0.12509000000E+03 0.  0.
<mgrwt>
<rscale>  2 0.45664989E+03</rscale>
<asrwt>0</asrwt>
<pdfrwt beam="1">  1       21 0.53955378E-01 0.45664989E+03</pdfrwt>
<pdfrwt beam="2">  1       21 0.20895567E-01 0.45664989E+03</pdfrwt>
<totfact> 0.63804237E+04</totfact>
</mgrwt>
</event>
<event>
 7    0  0.4712189E-002  0.4540683E+03  0.7546771E-02  0.1026516E+00
         21   -1    0    0  502  501  0.00000000000E+00  0.00000000000E+00  0.42780232955E+03  0.42780232955E+03  0.00000000000E+00 0. -1.
         21   -1    0    0  501  502 -0.00000000000E+00 -0.00000000000E+00 -0.12048674377E+03  0.12048674377E+03  0.00000000000E+00 0. -1.
      99926    2    1    2    0    0  0.00000000000E+00  0.00000000000E+00  0.30731558578E+03  0.54828907332E+03  0.45406831937E+03 0.  0.
      99925    2    3    3    0    0 -0.56956578416E+02 -0.89671467270E+02  0.23786757376E+03  0.37008818011E+03  0.26286737063E+03 0.  0.
         25    1    4    4    0    0 -0.44214944671E+01 -0.55695866527E+02  0.15762344144E+03  0.20884021776E+03  0.12509000000E+03 0.  0.
         25    1    4    4    0    0 -0.52535083949E+02 -0.33975600743E+02  0.80244132321E+02  0.16124796235E+03  0.12509000000E+03 0.  0.
         25    1    3    3    0    0  0.56956578416E+02  0.89671467270E+02  0.69448012023E+02  0.17820089321E+03  0.12509000000E+03 0.  0.
<mgrwt>
<rscale>  2 0.45406832E+03</rscale>
<asrwt>0</asrwt>
<pdfrwt beam="1">  1       21 0.62912107E-01 0.45406832E+03</pdfrwt>
<pdfrwt beam="2">  1       21 0.17718639E-01 0.45406832E+03</pdfrwt>
<totfact> 0.62438720E+04</totfact>
</mgrwt>
</event>
<event>
 7    0  0.4712189E-002  0.4526323E+03  0.7546771E-02  0.1026940E+00
         21   -1    0    0  502  501  0.00000000000E+00  0.00000000000E+00  0.10766591842E+03  0.10766591842E+03  0.00000000000E+00 0. -1.
         21   -1    0    0  501  502 -0.00000000000E+00 -0.00000000000E+00 -0.47572152290E+03  0.47572152290E+03  0.00000000000E+00 0. -1.
      99926    2    1    2    0    0  0.35527136788E-14  0.00000000000E+00 -0.36805560448E+03  0.58338744132E+03  0.45263227758E+03 0.  0.
      99925    2    3    3    0    0 -0.29388691379E+02  0.72141844301E+02 -0.13036373238E+03  0.30372143509E+03  0.26302826185E+03 0.  0.
         25    1    4    4    0    0 -0.55102584353E+02  0.34455583936E+02 -0.61150814536E+02  0.15365680032E+03  0.12509000000E+03 0.  0.
         25    1    3    3    0    0  0.29388691379E+02 -0.72141844301E+02 -0.23769187210E+03  0.27966600623E+03  0.12509000000E+03 0.  0.
         25    1    4    4    0    0  0.25713892974E+02  0.37686260366E+02 -0.69212917843E+02  0.15006463477E+03  0.12509000000E+03 0.  0.
<mgrwt>
<rscale>  2 0.45263228E+03</rscale>
<asrwt>0</asrwt>
<pdfrwt beam="1">  1       21 0.15833223E-01 0.45263228E+03</pdfrwt>
<pdfrwt beam="2">  1       21 0.69959049E-01 0.45263228E+03</pdfrwt>
<totfact> 0.60843455E+04</totfact>
</mgrwt>
</event>
<event>
 7    0  0.4712189E-002  0.4501310E+03  0.7546771E-02  0.1027683E+00
         21   -1    0    0  502  501  0.00000000000E+00  0.00000000000E+00  0.34734380573E+03  0.34734380573E+03  0.00000000000E+00 0.  1.
         21   -1    0    0  501  502 -0.00000000000E+00 -0.00000000000E+00 -0.14583384836E+03  0.14583384836E+03  0.00000000000E+00 0.  1.
      99926    2    1    2    0    0  0.00000000000E+00  0.14210854715E-13  0.20150995737E+03  0.49317765408E+03  0.45013102045E+03 0.  0.
      99925    2    3    3    0    0 -0.37957591482E+02  0.65186027604E+02  0.41827072327E+02  0.27676109089E+03  0.26297756655E+03 0.  0.
         25    1    4    4    0    0  0.20184325652E+02  0.37397460746E+02  0.30542250088E+02  0.13559614380E+03  0.12509000000E+03 0.  0.
         25    1    4    4    0    0 -0.58141917134E+02  0.27788566858E+02  0.11284822240E+02  0.14116494710E+03  0.12509000000E+03 0.  0.
         25    1    3    3    0    0  0.37957591482E+02 -0.65186027604E+02  0.15968288505E+03  0.21641656319E+03  0.12509000000E+03 0.  0.
<mgrwt>
<rscale>  2 0.45013102E+03</rscale>
<asrwt>0</asrwt>
<pdfrwt beam="1">  1       21 0.51079971E-01 0.45013102E+03</pdfrwt>
<pdfrwt beam="2">  1       21 0.21446154E-01 0.45013102E+03</pdfrwt>
<totfact> 0.68356834E+04</totfact>
</mgrwt>
</event>
<event>
 7    0  0.4712189E-002  0.4815703E+03  0.7546771E-02  0.1018705E+00
         21   -1    0    0  502  501  0.00000000000E+00  0.00000000000E+00  0.12523116436E+04  0.12523116436E+04  0.00000000000E+00 0.  1.
         21   -1    0    0  501  502 -0.00000000000E+00 -0.00000000000E+00 -0.46296367437E+02  0.46296367437E+02  0.00000000000E+00 0.  1.
      99926    2    1    2    0    0  0.00000000000E+00  0.00000000000E+00  0.12060152762E+04  0.12986080111E+04  0.48157026486E+03 0.  0.
      99925    2    3    3    0    0 -0.26169469465E+02 -0.73912017725E+02  0.10436939422E+04  0.10791916237E+04  0.26307734238E+03 0.  0.
         25    1    3    3    0    0  0.26169469465E+02  0.73912017725E+02  0.16232133398E+03  0.21941638740E+03  0.12509000000E+03 0.  0.
         25    1    4    4    0    0  0.71923074162E+01 -0.50038998448E+02  0.65679345051E+03  0.67050784886E+03  0.12509000000E+03 0.  0.
         25    1    4    4    0    0 -0.33361776882E+02 -0.23873019277E+02  0.38690049171E+03  0.40868377481E+03  0.12509000000E+03 0.  0.
<mgrwt>
<rscale>  2 0.48157026E+03</rscale>
<asrwt>0</asrwt>
<pdfrwt beam="1">  1       21 0.18416346E+00 0.48157026E+03</pdfrwt>
<pdfrwt beam="2">  1       21 0.68082901E-02 0.48157026E+03</pdfrwt>
<totfact> 0.23833211E+04</totfact>
</mgrwt>
</event>
<event>
 7    0  0.4712189E-002  0.4575819E+03  0.7546771E-02  0.1025485E+00
         21   -1    0    0  502  501  0.00000000000E+00  0.00000000000E+00  0.92436492895E+02  0.92436492895E+02  0.00000000000E+00 0. -1.
         21   -1    0    0  501  502 -0.00000000000E+00 -0.00000000000E+00 -0.56628384717E+03  0.56628384717E+03  0.00000000000E+00 0. -1.
      99926    2    1    2    0    0  0.00000000000E+00 -0.35527136788E-14 -0.47384735427E+03  0.65872034006E+03  0.45758187383E+03 0.  0.
      99925    2    3    3    0    0  0.10268344631E+03 -0.31303431787E+02 -0.35957166184E+03  0.45814557353E+03  0.26283415219E+03 0.  0.
         25    1    4    4    0    0  0.48759955913E+02 -0.52440109643E+02 -0.21038529427E+03  0.25502348627E+03  0.12509000000E+03 0.  0.
         25    1    3    3    0    0 -0.10268344631E+03  0.31303431787E+02 -0.11427569243E+03  0.20057476653E+03  0.12509000000E+03 0.  0.
         25    1    4    4    0    0  0.53923490400E+02  0.21136677856E+02 -0.14918636757E+03  0.20312208727E+03  0.12509000000E+03 0.  0.
<mgrwt>
<rscale>  2 0.45758187E+03</rscale>
<asrwt>0</asrwt>
<pdfrwt beam="1">  1       21 0.13593602E-01 0.45758187E+03</pdfrwt>
<pdfrwt beam="2">  1       21 0.83277034E-01 0.45758187E+03</pdfrwt>
<totfact> 0.54091819E+04</totfact>
</mgrwt>
</event>
<event>
 6    0  0.4808346E-002  0.4477944E+03  0.7546771E-02  0.1028382E+00
         21   -1    0    0  502  501  0.00000000000E+00  0.00000000000E+00  0.21724843184E+03  0.21724843184E+03  0.00000000000E+00 0.  1.
         21   -1    0    0  501  502 -0.00000000000E+00 -0.00000000000E+00 -0.23074945786E+03  0.23074945786E+03  0.00000000000E+00 0.  1.
      99926    2    1    2    0    0  0.00000000000E+00  0.00000000000E+00 -0.13501026024E+02  0.44799788970E+03  0.44779440760E+03 0.  0.
         25    1    3    3    0    0 -0.54816612546E+02 -0.76180023375E+02  0.32537398587E+02  0.15973242432E+03  0.12509000000E+03 0.  0.
         25    1    3    3    0    0 -0.42967983884E+01 -0.11537416726E+01 -0.89829791890E+01  0.12549101805E+03  0.12509000000E+03 0.  0.
         25    1    3    3    0    0  0.59113410934E+02  0.77333765048E+02 -0.37055445422E+02  0.16277444733E+03  0.12509000000E+03 0.  0.
<mgrwt>
<rscale>  2 0.44779441E+03</rscale>
<asrwt>0</asrwt>
<pdfrwt beam="1">  1       21 0.31948299E-01 0.44779441E+03</pdfrwt>
<pdfrwt beam="2">  1       21 0.33933743E-01 0.44779441E+03</pdfrwt>
<totfact> 0.73179513E+04</totfact>
</mgrwt>
</event>
<event>
 7    0  0.4712189E-002  0.4577761E+03  0.7546771E-02  0.1025428E+00
         21   -1    0    0  502  501  0.00000000000E+00  0.00000000000E+00  0.48355122484E+03  0.48355122484E+03  0.00000000000E+00 0.  1.
         21   -1    0    0  501  502 -0.00000000000E+00 -0.00000000000E+00 -0.10834371350E+03  0.10834371350E+03  0.00000000000E+00 0.  1.
      99926    2    1    2    0    0  0.00000000000E+00  0.00000000000E+00  0.37520751134E+03  0.59189493834E+03  0.45777608223E+03 0.  0.
      99925    2    3    3    0    0  0.36736121620E+02  0.96217285693E+02  0.30547174526E+03  0.41549229133E+03  0.26213269218E+03 0.  0.
         25    1    3    3    0    0 -0.36736121620E+02 -0.96217285693E+02  0.69735766086E+02  0.17640264700E+03  0.12509000000E+03 0.  0.
         25    1    4    4    0    0  0.59887910371E+01  0.58542782155E+02  0.20747785710E+03  0.24931444452E+03  0.12509000000E+03 0.  0.
         25    1    4    4    0    0  0.30747330583E+02  0.37674503537E+02  0.97993888154E+02  0.16617784681E+03  0.12509000000E+03 0.  0.
<mgrwt>
<rscale>  2 0.45777608E+03</rscale>
<asrwt>0</asrwt>
<pdfrwt beam="1">  1       21 0.71110473E-01 0.45777608E+03</pdfrwt>
<pdfrwt beam="2">  1       21 0.15932899E-01 0.45777608E+03</pdfrwt>
<totfact> 0.57899151E+04</totfact>
</mgrwt>
</event>
<event>
 7    0  0.4712189E-002  0.4585190E+03  0.7546771E-02  0.1025212E+00
         21   -1    0    0  502  501  0.00000000000E+00  0.00000000000E+00  0.42431786331E+02  0.42431786331E+02  0.00000000000E+00 0.  1.
         21   -1    0    0  501  502 -0.00000000000E+00 -0.00000000000E+00 -0.12386921313E+04  0.12386921313E+04  0.00000000000E+00 0.  1.
      99926    2    1    2    0    0  0.00000000000E+00  0.00000000000E+00 -0.11962603450E+04  0.12811239176E+04  0.45851900656E+03 0.  0.
      99925    2    3    3    0    0  0.10209124168E+03  0.47499960134E+01 -0.59453848594E+03  0.65809752346E+03  0.26300409700E+03 0.  0.
         25    1    4    4    0    0  0.79840146880E+02  0.24539684065E+02 -0.27100996374E+03  0.30995250232E+03  0.12509000000E+03 0.  0.
         25    1    3    3    0    0 -0.10209124168E+03 -0.47499960134E+01 -0.60172185902E+03  0.62302639415E+03  0.12509000000E+03 0.  0.
         25    1    4    4    0    0  0.22251094802E+02 -0.19789688051E+02 -0.32352852219E+03  0.34814502114E+03  0.12509000000E+03 0.  0.
<mgrwt>
<rscale>  2 0.45851901E+03</rscale>
<asrwt>0</asrwt>
<pdfrwt beam="1">  1       21 0.62399679E-02 0.45851901E+03</pdfrwt>
<pdfrwt beam="2">  1       21 0.18216063E+00 0.45851901E+03</pdfrwt>
<totfact> 0.28869210E+04</totfact>
</mgrwt>
</event>
<event>
 7    0  0.4712189E-002  0.4276616E+03  0.7546771E-02  0.1034601E+00
         21   -1    0    0  502  501  0.00000000000E+00  0.00000000000E+00  0.80738131063E+03  0.80738131063E+03  0.00000000000E+00 0.  1.
         21   -1    0    0  501  502 -0.00000000000E+00 -0.00000000000E+00 -0.56631977781E+02  0.56631977781E+02  0.00000000000E+00 0.  1.
      99926    2    1    2    0    0  0.00000000000E+00  0.00000000000E+00  0.75074933285E+03  0.86401328841E+03  0.42766155050E+03 0.  0.
      99925    2    3    3    0    0 -0.32241205976E+02 -0.78598453963E+02  0.48192589502E+03  0.55558053861E+03  0.26305884181E+03 0.  0.
         25    1    4    4    0    0  0.14104012811E+02 -0.22871435717E+02  0.27321560262E+03  0.30168907730E+03  0.12509000000E+03 0.  0.
         25    1    4    4    0    0 -0.46345218787E+02 -0.55727018246E+02  0.20871029241E+03  0.25389146130E+03  0.12509000000E+03 0.  0.
         25    1    3    3    0    0  0.32241205976E+02  0.78598453963E+02  0.26882343783E+03  0.30843274981E+03  0.12509000000E+03 0.  0.
<mgrwt>
<rscale>  2 0.42766155E+03</rscale>
<asrwt>0</asrwt>
<pdfrwt beam="1">  1       21 0.11873254E+00 0.42766155E+03</pdfrwt>
<pdfrwt beam="2">  1       21 0.83282325E-02 0.42766155E+03</pdfrwt>
<totfact> 0.55859982E+04</totfact>
</mgrwt>
</event>
<event>
 7    0  0.4712189E-002  0.4531837E+03  0.7546771E-02  0.1026777E+00
         21   -1    0    0  502  501  0.00000000000E+00  0.00000000000E+00  0.23110932098E+03  0.23110932098E+03  0.00000000000E+00 0.  1.
         21   -1    0    0  501  502 -0.00000000000E+00 -0.00000000000E+00 -0.22216270932E+03  0.22216270932E+03  0.00000000000E+00 0.  1.
      99926    2    1    2    0    0  0.00000000000E+00  0.00000000000E+00  0.89466116567E+01  0.45327203030E+03  0.45318372829E+03 0.  0.
      99925    2    3    3    0    0 -0.83451563836E+02 -0.85422710248E+01  0.79111703298E+02  0.28711613336E+03  0.26294463017E+03 0.  0.
         25    1    4    4    0    0 -0.59107612468E+02 -0.36069240910E+02  0.21520545140E+02  0.14458679730E+03  0.12509000000E+03 0.  0.
         25    1    4    4    0    0 -0.24343951368E+02  0.27526969885E+02  0.57591158157E+02  0.14252933606E+03  0.12509000000E+03 0.  0.
         25    1    3    3    0    0  0.83451563836E+02  0.85422710248E+01 -0.70165091641E+02  0.16615589693E+03  0.12509000000E+03 0.  0.
<mgrwt>
<rscale>  2 0.45318373E+03</rscale>
<asrwt>0</asrwt>
<pdfrwt beam="1">  1       21 0.33986665E-01 0.45318373E+03</pdfrwt>
<pdfrwt beam="2">  1       21 0.32670986E-01 0.45318373E+03</pdfrwt>
<totfact> 0.69676862E+04</totfact>
</mgrwt>
</event>
<event>
 7    0  0.4712189E-002  0.4574653E+03  0.7546771E-02  0.1025519E+00
         21   -1    0    0  502  501  0.00000000000E+00  0.00000000000E+00  0.24017367244E+03  0.24017367244E+03  0.00000000000E+00 0.  1.
         21   -1    0    0  501  502 -0.00000000000E+00 -0.00000000000E+00 -0.21783667084E+03  0.21783667084E+03  0.00000000000E+00 0.  1.
      99926    2    1    2    0    0  0.00000000000E+00  0.00000000000E+00  0.22337001597E+02  0.45801034328E+03  0.45746533521E+03 0.  0.
      99925    2    3    3    0    0  0.10868167478E+03 -0.39123651964E+02  0.12390794250E+02  0.28745594810E+03  0.26293539842E+03 0.  0.
         25    1    4    4    0    0  0.46756884949E+02 -0.46336694122E+02 -0.23165748641E+02  0.14323915499E+03  0.12509000000E+03 0.  0.
         25    1    3    3    0    0 -0.10868167478E+03  0.39123651964E+02  0.99462073473E+01  0.17055439518E+03  0.12509000000E+03 0.  0.
         25    1    4    4    0    0  0.61924789831E+02  0.72130421576E+01  0.35556542890E+02  0.14421679311E+03  0.12509000000E+03 0.  0.
<mgrwt>
<rscale>  2 0.45746534E+03</rscale>
<asrwt>0</asrwt>
<pdfrwt beam="1">  1       21 0.35319658E-01 0.45746534E+03</pdfrwt>
<pdfrwt beam="2">  1       21 0.32034804E-01 0.45746534E+03</pdfrwt>
<totfact> 0.66998220E+04</totfact>
</mgrwt>
</event>
<event>
 7    0  0.4712189E-002  0.4600734E+03  0.7546771E-02  0.1024760E+00
         21   -1    0    0  502  501  0.00000000000E+00  0.00000000000E+00  0.96991898638E+02  0.96991898638E+02  0.00000000000E+00 0.  1.
         21   -1    0    0  501  502 -0.00000000000E+00 -0.00000000000E+00 -0.54558053774E+03  0.54558053774E+03  0.00000000000E+00 0.  1.
      99926    2    1    2    0    0  0.71054273576E-14  0.00000000000E+00 -0.44858863911E+03  0.64257243638E+03  0.46007343855E+03 0.  0.
      99925    2    3    3    0    0 -0.39976474433E+02  0.58720960127E+02 -0.14962363445E+03  0.31079864029E+03  0.26298724903E+03 0.  0.
         25    1    4    4    0    0 -0.54066064015E+02  0.53541836801E+02 -0.79099452217E+02  0.16641544101E+03  0.12509000000E+03 0.  0.
         25    1    4    4    0    0  0.14089589582E+02  0.51791233265E+01 -0.70524182232E+02  0.14438319927E+03  0.12509000000E+03 0.  0.
         25    1    3    3    0    0  0.39976474433E+02 -0.58720960127E+02 -0.29896500466E+03  0.33177379610E+03  0.12509000000E+03 0.  0.
<mgrwt>
<rscale>  2 0.46007344E+03</rscale>
<asrwt>0</asrwt>
<pdfrwt beam="1">  1       21 0.14263514E-01 0.46007344E+03</pdfrwt>
<pdfrwt beam="2">  1       21 0.80232433E-01 0.46007344E+03</pdfrwt>
<totfact> 0.53939286E+04</totfact>
</mgrwt>
</event>
<event>
 7    0  0.4712189E-002  0.4559073E+03  0.7546771E-02  0.1025975E+00
         21   -1    0    0  502  501  0.00000000000E+00  0.00000000000E+00  0.29039031077E+03  0.29039031077E+03  0.00000000000E+00 0.  1.
         21   -1    0    0  501  502 -0.00000000000E+00 -0.00000000000E+00 -0.17894148486E+03  0.17894148486E+03  0.00000000000E+00 0.  1.
      99926    2    1    2    0    0  0.35527136788E-14  0.14210854715E-13  0.11144882592E+03  0.46933179563E+03  0.45590733004E+03 0.  0.
      99925    2    3    3    0    0  0.15785001952E+02  0.10598357028E+03  0.29575505031E+02  0.28539584963E+03  0.26285813100E+03 0.  0.
         25    1    4    4    0    0 -0.83358028846E+01  0.89028338897E+02  0.11266464960E+01  0.15376705814E+03  0.12509000000E+03 0.  0.
         25    1    3    3    0    0 -0.15785001952E+02 -0.10598357028E+03  0.81873320885E+02  0.18393594600E+03  0.12509000000E+03 0.  0.
         25    1    4    4    0    0  0.24120804837E+02  0.16955231387E+02  0.28448858535E+02  0.13162879149E+03  0.12509000000E+03 0.  0.
<mgrwt>
<rscale>  2 0.45590733E+03</rscale>
<asrwt>0</asrwt>
<pdfrwt beam="1">  1       21 0.42704458E-01 0.45590733E+03</pdfrwt>
<pdfrwt beam="2">  1       21 0.26314924E-01 0.45590733E+03</pdfrwt>
<totfact> 0.67001967E+04</totfact>
</mgrwt>
</event>
<event>
 7    0  0.4712189E-002  0.4556710E+03  0.7546771E-02  0.1026044E+00
         21   -1    0    0  502  501  0.00000000000E+00  0.00000000000E+00  0.25963029572E+03  0.25963029572E+03  0.00000000000E+00 0. -1.
         21   -1    0    0  501  502 -0.00000000000E+00 -0.00000000000E+00 -0.19993435042E+03  0.19993435042E+03  0.00000000000E+00 0. -1.
      99926    2    1    2    0    0  0.00000000000E+00  0.00000000000E+00  0.59695945295E+02  0.45956464614E+03  0.45567099765E+03 0.  0.
      99925    2    3    3    0    0  0.62409186008E+02  0.76464556247E+02  0.94542294636E+02  0.29645881846E+03  0.26307385030E+03 0.  0.
         25    1    3    3    0    0 -0.62409186008E+02 -0.76464556247E+02 -0.34846349340E+02  0.16310582768E+03  0.12509000000E+03 0.  0.
         25    1    4    4    0    0  0.54546812752E+02  0.70817212254E+01  0.33237716614E+02  0.14063342228E+03  0.12509000000E+03 0.  0.
         25    1    4    4    0    0  0.78623732560E+01  0.69382835022E+02  0.61304578022E+02  0.15582539618E+03  0.12509000000E+03 0.  0.
<mgrwt>
<rscale>  2 0.45567100E+03</rscale>
<asrwt>0</asrwt>
<pdfrwt beam="1">  1       21 0.38180926E-01 0.45567100E+03</pdfrwt>
<pdfrwt beam="2">  1       21 0.29402110E-01 0.45567100E+03</pdfrwt>
<totfact> 0.67848505E+04</totfact>
</mgrwt>
</event>
<event>
 7    0  0.4712189E-002  0.4546625E+03  0.7546771E-02  0.1026341E+00
         21   -1    0    0  502  501  0.00000000000E+00  0.00000000000E+00  0.93860858492E+02  0.93860858492E+02  0.00000000000E+00 0. -1.
         21   -1    0    0  501  502 -0.00000000000E+00 -0.00000000000E+00 -0.55059701494E+03  0.55059701494E+03  0.00000000000E+00 0. -1.
      99926    2    1    2    0    0  0.14210854715E-13  0.00000000000E+00 -0.45673615644E+03  0.64445787343E+03  0.45466254961E+03 0.  0.
      99925    2    3    3    0    0 -0.92732435082E+02  0.19895702139E+02 -0.37447777896E+03  0.46723176856E+03  0.26282460908E+03 0.  0.
         25    1    4    4    0    0 -0.85659749597E+02 -0.45830611708E+01 -0.19785888573E+03  0.24930752879E+03  0.12509000000E+03 0.  0.
         25    1    4    4    0    0 -0.70726854844E+01  0.24478763310E+02 -0.17661889323E+03  0.21792423977E+03  0.12509000000E+03 0.  0.
         25    1    3    3    0    0  0.92732435082E+02 -0.19895702139E+02 -0.82258377486E+02  0.17722610487E+03  0.12509000000E+03 0.  0.
<mgrwt>
<rscale>  2 0.45466255E+03</rscale>
<asrwt>0</asrwt>
<pdfrwt beam="1">  1       21 0.13803068E-01 0.45466255E+03</pdfrwt>
<pdfrwt beam="2">  1       21 0.80970148E-01 0.45466255E+03</pdfrwt>
<totfact> 0.56171317E+04</totfact>
</mgrwt>
</event>
<event>
 7    0  0.4712189E-002  0.4468570E+03  0.7546771E-02  0.1028663E+00
         21   -1    0    0  502  501  0.00000000000E+00  0.00000000000E+00  0.50428206937E+03  0.50428206937E+03  0.00000000000E+00 0. -1.
         21   -1    0    0  501  502 -0.00000000000E+00 -0.00000000000E+00 -0.98992816331E+02  0.98992816331E+02  0.00000000000E+00 0. -1.
      99926    2    1    2    0    0  0.00000000000E+00  0.00000000000E+00  0.40528925304E+03  0.60327488570E+03  0.44685703428E+03 0.  0.
      99925    2    3    3    0    0 -0.60641144239E+02  0.69324231838E+02  0.32514413364E+03  0.42847801571E+03  0.26342267331E+03 0.  0.
         25    1    4    4    0    0 -0.17860743825E+02  0.40221386621E+02  0.22080927363E+03  0.25756748540E+03  0.12509000000E+03 0.  0.
         25    1    4    4    0    0 -0.42780400414E+02  0.29102845217E+02  0.10433486001E+03  0.17091053031E+03  0.12509000000E+03 0.  0.
         25    1    3    3    0    0  0.60641144239E+02 -0.69324231838E+02  0.80145119399E+02  0.17479686999E+03  0.12509000000E+03 0.  0.
<mgrwt>
<rscale>  2 0.44685703E+03</rscale>
<asrwt>0</asrwt>
<pdfrwt beam="1">  1       21 0.74159127E-01 0.44685703E+03</pdfrwt>
<pdfrwt beam="2">  1       21 0.14557767E-01 0.44685703E+03</pdfrwt>
<totfact> 0.62395243E+04</totfact>
</mgrwt>
</event>
<event>
 7    0  0.4712189E-002  0.4481489E+03  0.7546771E-02  0.1028276E+00
         21   -1    0    0  502  501  0.00000000000E+00  0.00000000000E+00  0.13894219037E+03  0.13894219037E+03  0.00000000000E+00 0. -1.
         21   -1    0    0  501  502 -0.00000000000E+00 -0.00000000000E+00 -0.36136862736E+03  0.36136862736E+03  0.00000000000E+00 0. -1.
      99926    2    1    2    0    0  0.00000000000E+00  0.00000000000E+00 -0.22242643699E+03  0.50031081774E+03  0.44814885303E+03 0.  0.
      99925    2    3    3    0    0 -0.55969004517E+02 -0.65053452422E+02 -0.70005867647E+02  0.28526659159E+03  0.26289109082E+03 0.  0.
         25    1    4    4    0    0 -0.94809069801E+01 -0.54096312458E+02 -0.57184485259E+01  0.13673517240E+03  0.12509000000E+03 0.  0.
         25    1    3    3    0    0  0.55969004517E+02  0.65053452422E+02 -0.15242056935E+03  0.21504422615E+03  0.12509000000E+03 0.  0.
         25    1    4    4    0    0 -0.46488097537E+02 -0.10957139964E+02 -0.64287419121E+02  0.14853141919E+03  0.12509000000E+03 0.  0.
<mgrwt>
<rscale>  2 0.44814885E+03</rscale>
<asrwt>0</asrwt>
<pdfrwt beam="1">  1       21 0.20432675E-01 0.44814885E+03</pdfrwt>
<pdfrwt beam="2">  1       21 0.53142445E-01 0.44814885E+03</pdfrwt>
<totfact> 0.68921221E+04</totfact>
</mgrwt>
</event>
<event>
 7    0  0.4712189E-002  0.4533258E+03  0.7546771E-02  0.1026735E+00
         21   -1    0    0  502  501  0.00000000000E+00  0.00000000000E+00  0.15668244667E+03  0.15668244667E+03  0.00000000000E+00 0. -1.
         21   -1    0    0  501  502 -0.00000000000E+00 -0.00000000000E+00 -0.32789929616E+03  0.32789929616E+03  0.00000000000E+00 0. -1.
      99926    2    1    2    0    0  0.00000000000E+00  0.00000000000E+00 -0.17121684949E+03  0.48458174283E+03  0.45332577241E+03 0.  0.
      99925    2    3    3    0    0  0.65233325696E+02  0.49137352177E+02 -0.18883169813E+03  0.33415682085E+03  0.26331256054E+03 0.  0.
         25    1    3    3    0    0 -0.65233325696E+02 -0.49137352177E+02  0.17614848639E+02  0.15042492198E+03  0.12509000000E+03 0.  0.
         25    1    4    4    0    0 -0.13706627318E+00  0.12089013891E+02 -0.58982365323E+02  0.13882575612E+03  0.12509000000E+03 0.  0.
         25    1    4    4    0    0  0.65370391969E+02  0.37048338286E+02 -0.12984933281E+03  0.19533106472E+03  0.12509000000E+03 0.  0.
<mgrwt>
<rscale>  2 0.45332577E+03</rscale>
<asrwt>0</asrwt>
<pdfrwt beam="1">  1       21 0.23041536E-01 0.45332577E+03</pdfrwt>
<pdfrwt beam="2">  1       21 0.48220485E-01 0.45332577E+03</pdfrwt>
<totfact> 0.67257535E+04</totfact>
</mgrwt>
</event>
<event>
 7    0  0.4712189E-002  0.4598027E+03  0.7546771E-02  0.1024838E+00
         21   -1    0    0  502  501  0.00000000000E+00  0.00000000000E+00  0.25151936654E+03  0.25151936654E+03  0.00000000000E+00 0.  1.
         21   -1    0    0  501  502 -0.00000000000E+00 -0.00000000000E+00 -0.21014139367E+03  0.21014139367E+03  0.00000000000E+00 0.  1.
      99926    2    1    2    0    0  0.00000000000E+00  0.00000000000E+00  0.41377972865E+02  0.46166076021E+03  0.45980269778E+03 0.  0.
      99925    2    3    3    0    0  0.96751835206E+02  0.65451324952E+02  0.12353549873E+02  0.28806721545E+03  0.26303101883E+03 0.  0.
         25    1    4    4    0    0  0.54636671216E+02  0.66871741634E+02  0.29883173553E+02  0.15491129020E+03  0.12509000000E+03 0.  0.
         25    1    4    4    0    0  0.42115163991E+02 -0.14204166818E+01 -0.17529623680E+02  0.13315592525E+03  0.12509000000E+03 0.  0.
         25    1    3    3    0    0 -0.96751835206E+02 -0.65451324952E+02  0.29024422992E+02  0.17359354476E+03  0.12509000000E+03 0.  0.
<mgrwt>
<rscale>  2 0.45980270E+03</rscale>
<asrwt>0</asrwt>
<pdfrwt beam="1">  1       21 0.36988142E-01 0.45980270E+03</pdfrwt>
<pdfrwt beam="2">  1       21 0.30903146E-01 0.45980270E+03</pdfrwt>
<totfact> 0.65513928E+04</totfact>
</mgrwt>
</event>
<event>
 7    0  0.4712189E-002  0.4571444E+03  0.7546771E-02  0.1025613E+00
         21   -1    0    0  502  501  0.00000000000E+00  0.00000000000E+00  0.96447890417E+03  0.96447890417E+03  0.00000000000E+00 0.  1.
         21   -1    0    0  501  502 -0.00000000000E+00 -0.00000000000E+00 -0.54169403797E+02  0.54169403797E+02  0.00000000000E+00 0.  1.
      99926    2    1    2    0    0  0.00000000000E+00  0.00000000000E+00  0.91030950037E+03  0.10186483080E+04  0.45714438513E+03 0.  0.
      99925    2    3    3    0    0 -0.89776701960E+02 -0.56057779157E+02  0.67313803847E+03  0.73037735685E+03  0.26293332566E+03 0.  0.
         25    1    4    4    0    0 -0.47691829437E+02 -0.50923210509E+02  0.26268271259E+03  0.29919458477E+03  0.12509000000E+03 0.  0.
         25    1    3    3    0    0  0.89776701960E+02  0.56057779157E+02  0.23717146190E+03  0.28827095112E+03  0.12509000000E+03 0.  0.
         25    1    4    4    0    0 -0.42084872523E+02 -0.51345686482E+01  0.41045532588E+03  0.43118277208E+03  0.12509000000E+03 0.  0.
<mgrwt>
<rscale>  2 0.45714439E+03</rscale>
<asrwt>0</asrwt>
<pdfrwt beam="1">  1       21 0.14183512E+00 0.45714439E+03</pdfrwt>
<pdfrwt beam="2">  1       21 0.79660894E-02 0.45714439E+03</pdfrwt>
<totfact> 0.37812117E+04</totfact>
</mgrwt>
</event>
<event>
 7    0  0.4712189E-002  0.4572262E+03  0.7546771E-02  0.1025589E+00
         21   -1    0    0  502  501  0.00000000000E+00  0.00000000000E+00  0.15773945584E+03  0.15773945584E+03  0.00000000000E+00 0. -1.
         21   -1    0    0  501  502 -0.00000000000E+00 -0.00000000000E+00 -0.33133082997E+03  0.33133082997E+03  0.00000000000E+00 0. -1.
      99926    2    1    2    0    0  0.00000000000E+00  0.00000000000E+00 -0.17359137413E+03  0.48907028580E+03  0.45722617957E+03 0.  0.
      99925    2    3    3    0    0 -0.93216399262E+02 -0.63028467614E+02 -0.13467052481E+03  0.31637336796E+03  0.26323767375E+03 0.  0.
         25    1    4    4    0    0 -0.26882979512E+02  0.63001036533E+01 -0.50858203386E+02  0.13782761278E+03  0.12509000000E+03 0.  0.
         25    1    3    3    0    0  0.93216399262E+02  0.63028467614E+02 -0.38920849325E+02  0.17269691785E+03  0.12509000000E+03 0.  0.
         25    1    4    4    0    0 -0.66333419750E+02 -0.69328571267E+02 -0.83812321422E+02  0.17854575518E+03  0.12509000000E+03 0.  0.
<mgrwt>
<rscale>  2 0.45722618E+03</rscale>
<asrwt>0</asrwt>
<pdfrwt beam="1">  1       21 0.23196979E-01 0.45722618E+03</pdfrwt>
<pdfrwt beam="2">  1       21 0.48725121E-01 0.45722618E+03</pdfrwt>
<totfact> 0.64891134E+04</totfact>
</mgrwt>
</event>
<event>
 7    0  0.4712189E-002  0.4576728E+03  0.7546771E-02  0.1025458E+00
         21   -1    0    0  502  501  0.00000000000E+00  0.00000000000E+00  0.22245848404E+03  0.22245848404E+03  0.00000000000E+00 0. -1.
         21   -1    0    0  501  502 -0.00000000000E+00 -0.00000000000E+00 -0.23539717292E+03  0.23539717292E+03  0.00000000000E+00 0. -1.
      99926    2    1    2    0    0 -0.35527136788E-14  0.00000000000E+00 -0.12938688880E+02  0.45785565696E+03  0.45767280118E+03 0.  0.
      99925    2    3    3    0    0 -0.55049584937E+01 -0.90025533977E+02  0.64277615085E+02  0.28538894413E+03  0.26302155100E+03 0.  0.
         25    1    4    4    0    0 -0.22625523951E+02 -0.79879195927E+01  0.33592191110E+02  0.13172571730E+03  0.12509000000E+03 0.  0.
         25    1    4    4    0    0  0.17120565458E+02 -0.82037614384E+02  0.30685423975E+02  0.15366322683E+03  0.12509000000E+03 0.  0.
         25    1    3    3    0    0  0.55049584937E+01  0.90025533977E+02 -0.77216303966E+02  0.17246671283E+03  0.12509000000E+03 0.  0.
<mgrwt>
<rscale>  2 0.45767280E+03</rscale>
<asrwt>0</asrwt>
<pdfrwt beam="1">  1       21 0.32714483E-01 0.45767280E+03</pdfrwt>
<pdfrwt beam="2">  1       21 0.34617231E-01 0.45767280E+03</pdfrwt>
<totfact> 0.66898985E+04</totfact>
</mgrwt>
</event>
<event>
 7    0  0.4712189E-002  0.4626145E+03  0.7546771E-02  0.1024026E+00
         21   -1    0    0  502  501  0.00000000000E+00  0.00000000000E+00  0.31460862500E+03  0.31460862500E+03  0.00000000000E+00 0.  1.
         21   -1    0    0  501  502 -0.00000000000E+00 -0.00000000000E+00 -0.17006224462E+03  0.17006224462E+03  0.00000000000E+00 0.  1.
      99926    2    1    2    0    0 -0.35527136788E-14  0.35527136788E-14  0.14454638038E+03  0.48467086963E+03  0.46261452180E+03 0.  0.
      99925    2    3    3    0    0 -0.23487889800E+02 -0.26638598525E+02 -0.28233973998E+02  0.26842597406E+03  0.26456388711E+03 0.  0.
         25    1    4    4    0    0  0.73920831274E+01 -0.35969101545E+02  0.17175046503E+02  0.13149490287E+03  0.12509000000E+03 0.  0.
         25    1    4    4    0    0 -0.30879972927E+02  0.93305030206E+01 -0.45409020501E+02  0.13693107119E+03  0.12509000000E+03 0.  0.
         25    1    3    3    0    0  0.23487889800E+02  0.26638598525E+02  0.17278035438E+03  0.21624489556E+03  0.12509000000E+03 0.  0.
<mgrwt>
<rscale>  2 0.46261452E+03</rscale>
<asrwt>0</asrwt>
<pdfrwt beam="1">  1       21 0.46265974E-01 0.46261452E+03</pdfrwt>
<pdfrwt beam="2">  1       21 0.25009154E-01 0.46261452E+03</pdfrwt>
<totfact> 0.62497978E+04</totfact>
</mgrwt>
</event>
<event>
 7    0  0.4712189E-002  0.4529202E+03  0.7546771E-02  0.1026855E+00
         21   -1    0    0  502  501  0.00000000000E+00  0.00000000000E+00  0.35286805357E+03  0.35286805357E+03  0.00000000000E+00 0.  1.
         21   -1    0    0  501  502 -0.00000000000E+00 -0.00000000000E+00 -0.14533530679E+03  0.14533530679E+03  0.00000000000E+00 0.  1.
      99926    2    1    2    0    0  0.00000000000E+00  0.14210854715E-13  0.20753274677E+03  0.49820336036E+03  0.45292024385E+03 0.  0.
      99925    2    3    3    0    0 -0.28152403348E+02  0.10654669462E+03  0.11448774558E+03  0.30728548195E+03  0.26300602195E+03 0.  0.
         25    1    4    4    0    0 -0.18567205016E+02  0.30595679022E+02  0.90966675958E+02  0.15875541223E+03  0.12509000000E+03 0.  0.
         25    1    3    3    0    0  0.28152403348E+02 -0.10654669462E+03  0.93045001192E+02  0.19091787840E+03  0.12509000000E+03 0.  0.
         25    1    4    4    0    0 -0.95851983320E+01  0.75951015593E+02  0.23521069622E+02  0.14853006973E+03  0.12509000000E+03 0.  0.
<mgrwt>
<rscale>  2 0.45292024E+03</rscale>
<asrwt>0</asrwt>
<pdfrwt beam="1">  1       21 0.51892361E-01 0.45292024E+03</pdfrwt>
<pdfrwt beam="2">  1       21 0.21372839E-01 0.45292024E+03</pdfrwt>
<totfact> 0.66487977E+04</totfact>
</mgrwt>
</event>
<event>
 7    0  0.4712189E-002  0.4648050E+03  0.7546771E-02  0.1023397E+00
         21   -1    0    0  502  501  0.00000000000E+00  0.00000000000E+00  0.58917870940E+03  0.58917870940E+03  0.00000000000E+00 0. -1.
         21   -1    0    0  501  502 -0.00000000000E+00 -0.00000000000E+00 -0.91671540543E+02  0.91671540543E+02  0.00000000000E+00 0. -1.
      99926    2    1    2    0    0  0.35527136788E-14 -0.71054273576E-14  0.49750716886E+03  0.68085024994E+03  0.46480499113E+03 0.  0.
      99925    2    3    3    0    0  0.18667800300E+02 -0.53772823658E+02  0.15219996848E+03  0.30919910429E+03  0.26305750770E+03 0.  0.
         25    1    4    4    0    0 -0.11857948204E+02  0.64002886783E+01  0.56924640458E+02  0.13809235106E+03  0.12509000000E+03 0.  0.
         25    1    4    4    0    0  0.30525748503E+02 -0.60173112336E+02  0.95275328019E+02  0.17110675322E+03  0.12509000000E+03 0.  0.
         25    1    3    3    0    0 -0.18667800300E+02  0.53772823658E+02  0.34530720038E+03  0.37165114565E+03  0.12509000000E+03 0.  0.
<mgrwt>
<rscale>  2 0.46480499E+03</rscale>
<asrwt>0</asrwt>
<pdfrwt beam="1">  1       21 0.86643926E-01 0.46480499E+03</pdfrwt>
<pdfrwt beam="2">  1       21 0.13481109E-01 0.46480499E+03</pdfrwt>
<totfact> 0.49980352E+04</totfact>
</mgrwt>
</event>
<event>
 7    0  0.4712189E-002  0.4508736E+03  0.7546771E-02  0.1027462E+00
         21   -1    0    0  502  501  0.00000000000E+00  0.00000000000E+00  0.81410098340E+03  0.81410098340E+03  0.00000000000E+00 0. -1.
         21   -1    0    0  501  502 -0.00000000000E+00 -0.00000000000E+00 -0.62426837732E+02  0.62426837732E+02  0.00000000000E+00 0. -1.
      99926    2    1    2    0    0  0.00000000000E+00  0.53290705182E-14  0.75167414566E+03  0.87652782113E+03  0.45087359642E+03 0.  0.
      99925    2    3    3    0    0  0.98521007109E+02  0.84608342270E+01  0.56491854945E+03  0.63096085394E+03  0.26306017778E+03 0.  0.
         25    1    4    4    0    0  0.39202381411E+02  0.41378569745E+02  0.30751486531E+03  0.33684108008E+03  0.12509000000E+03 0.  0.
         25    1    4    4    0    0  0.59318625698E+02 -0.32917735518E+02  0.25740368414E+03  0.29411977386E+03  0.12509000000E+03 0.  0.
         25    1    3    3    0    0 -0.98521007109E+02 -0.84608342270E+01  0.18675559622E+03  0.24556696719E+03  0.12509000000E+03 0.  0.
<mgrwt>
<rscale>  2 0.45087360E+03</rscale>
<asrwt>0</asrwt>
<pdfrwt beam="1">  1       21 0.11972073E+00 0.45087360E+03</pdfrwt>
<pdfrwt beam="2">  1       21 0.91804178E-02 0.45087360E+03</pdfrwt>
<totfact> 0.45724098E+04</totfact>
</mgrwt>
</event>
<event>
 7    0  0.4712189E-002  0.5270550E+03  0.7546771E-02  0.1006949E+00
         21   -1    0    0  502  501  0.00000000000E+00  0.00000000000E+00  0.32754312066E+02  0.32754312066E+02  0.00000000000E+00 0. -1.
         21   -1    0    0  501  502 -0.00000000000E+00 -0.00000000000E+00 -0.21202320460E+04  0.21202320460E+04  0.00000000000E+00 0. -1.
      99926    2    1    2    0    0 -0.14210854715E-13  0.00000000000E+00 -0.20874777340E+04  0.21529863581E+04  0.52705499557E+03 0.  0.
      99925    2    3    3    0    0  0.70207837065E+02 -0.49521222857E+02 -0.18539823623E+04  0.18745099882E+04  0.26297453161E+03 0.  0.
         25    1    4    4    0    0  0.76921670412E+02 -0.28690512790E+02 -0.98726706962E+03  0.99854086735E+03  0.12509000000E+03 0.  0.
         25    1    4    4    0    0 -0.67138333467E+01 -0.20830710067E+02 -0.86671529268E+03  0.87596912086E+03  0.12509000000E+03 0.  0.
         25    1    3    3    0    0 -0.70207837065E+02  0.49521222857E+02 -0.23349537168E+03  0.27847636990E+03  0.12509000000E+03 0.  0.
<mgrwt>
<rscale>  2 0.52705500E+03</rscale>
<asrwt>0</asrwt>
<pdfrwt beam="1">  1       21 0.48168104E-02 0.52705500E+03</pdfrwt>
<pdfrwt beam="2">  1       21 0.31179884E+00 0.52705500E+03</pdfrwt>
<totfact> 0.67412898E+03</totfact>
</mgrwt>
</event>
<event>
 7    0  0.4712189E-002  0.4531739E+03  0.7546771E-02  0.1026780E+00
         21   -1    0    0  502  501  0.00000000000E+00  0.00000000000E+00  0.23344882656E+03  0.23344882656E+03  0.00000000000E+00 0.  1.
         21   -1    0    0  501  502 -0.00000000000E+00 -0.00000000000E+00 -0.21992680087E+03  0.21992680087E+03  0.00000000000E+00 0.  1.
      99926    2    1    2    0    0 -0.44408920985E-15 -0.14210854715E-13  0.13522025690E+02  0.45337562743E+03  0.45317393391E+03 0.  0.
      99925    2    3    3    0    0 -0.27182167757E+01 -0.79665543602E+02 -0.69601186895E+02  0.28334338311E+03  0.26284056003E+03 0.  0.
         25    1    4    4    0    0  0.40713843980E+01 -0.80803080353E+02 -0.30101476388E+02  0.15198460760E+03  0.12509000000E+03 0.  0.
         25    1    4    4    0    0 -0.67896011737E+01  0.11375367507E+01 -0.39499710507E+02  0.13135877551E+03  0.12509000000E+03 0.  0.
         25    1    3    3    0    0  0.27182167757E+01  0.79665543602E+02  0.83123212585E+02  0.17003224433E+03  0.12509000000E+03 0.  0.
<mgrwt>
<rscale>  2 0.45317393E+03</rscale>
<asrwt>0</asrwt>
<pdfrwt beam="1">  1       21 0.34330710E-01 0.45317393E+03</pdfrwt>
<pdfrwt beam="2">  1       21 0.32342177E-01 0.45317393E+03</pdfrwt>
<totfact> 0.69674609E+04</totfact>
</mgrwt>
</event>
<event>
 7    0  0.4712189E-002  0.4547138E+03  0.7546771E-02  0.1026326E+00
         21   -1    0    0  502  501  0.00000000000E+00  0.00000000000E+00  0.31486900398E+03  0.31486900398E+03  0.00000000000E+00 0.  1.
         21   -1    0    0  501  502 -0.00000000000E+00 -0.00000000000E+00 -0.16416718847E+03  0.16416718847E+03  0.00000000000E+00 0.  1.
      99926    2    1    2    0    0  0.00000000000E+00  0.00000000000E+00  0.15070181550E+03  0.47903619245E+03  0.45471379623E+03 0.  0.
      99925    2    3    3    0    0 -0.70705150393E+02  0.82334603121E+02  0.62140843550E+02  0.29123640806E+03  0.26301892665E+03 0.  0.
         25    1    3    3    0    0  0.70705150393E+02 -0.82334603121E+02  0.88560971955E+02  0.18779978439E+03  0.12509000000E+03 0.  0.
         25    1    4    4    0    0 -0.18511915597E+02  0.72182973609E+02  0.53208029664E+02  0.15502153147E+03  0.12509000000E+03 0.  0.
         25    1    4    4    0    0 -0.52193234797E+02  0.10151629513E+02  0.89328138856E+01  0.13621487659E+03  0.12509000000E+03 0.  0.
<mgrwt>
<rscale>  2 0.45471380E+03</rscale>
<asrwt>0</asrwt>
<pdfrwt beam="1">  1       21 0.46304265E-01 0.45471380E+03</pdfrwt>
<pdfrwt beam="2">  1       21 0.24142234E-01 0.45471380E+03</pdfrwt>
<totfact> 0.66922216E+04</totfact>
</mgrwt>
</event>
<event>
 7    0  0.4712189E-002  0.4571730E+03  0.7546771E-02  0.1025604E+00
         21   -1    0    0  502  501  0.00000000000E+00  0.00000000000E+00  0.49068923670E+03  0.49068923670E+03  0.00000000000E+00 0. -1.
         21   -1    0    0  501  502 -0.00000000000E+00 -0.00000000000E+00 -0.10648653384E+03  0.10648653384E+03  0.00000000000E+00 0. -1.
      99926    2    1    2    0    0  0.35527136788E-14  0.14210854715E-13  0.38420270286E+03  0.59717577054E+03  0.45717303512E+03 0.  0.
      99925    2    3    3    0    0 -0.31842563414E+02 -0.11016665188E+03  0.22244889160E+03  0.36273506676E+03  0.26256918947E+03 0.  0.
         25    1    4    4    0    0 -0.17937548970E+02 -0.83841921016E+02  0.82336118110E+02  0.17256293874E+03  0.12509000000E+03 0.  0.
         25    1    4    4    0    0 -0.13905014443E+02 -0.26324730860E+02  0.14011277349E+03  0.19017212802E+03  0.12509000000E+03 0.  0.
         25    1    3    3    0    0  0.31842563414E+02  0.11016665188E+03  0.16175381126E+03  0.23444070378E+03  0.12509000000E+03 0.  0.
<mgrwt>
<rscale>  2 0.45717304E+03</rscale>
<asrwt>0</asrwt>
<pdfrwt beam="1">  1       21 0.72160181E-01 0.45717304E+03</pdfrwt>
<pdfrwt beam="2">  1       21 0.15659785E-01 0.45717304E+03</pdfrwt>
<totfact> 0.57852621E+04</totfact>
</mgrwt>
</event>
<event>
 7    0  0.4712189E-002  0.4409855E+03  0.7546771E-02  0.1030445E+00
         21   -1    0    0  502  501  0.00000000000E+00  0.00000000000E+00  0.61575170020E+03  0.61575170020E+03  0.00000000000E+00 0.  1.
         21   -1    0    0  501  502 -0.00000000000E+00 -0.00000000000E+00 -0.78955629193E+02  0.78955629193E+02  0.00000000000E+00 0.  1.
      99926    2    1    2    0    0  0.00000000000E+00  0.00000000000E+00  0.53679607100E+03  0.69470732939E+03  0.44098554587E+03 0.  0.
      99925    2    3    3    0    0 -0.50773295498E+02 -0.15731413254E+02  0.47458708246E+03  0.54523200951E+03  0.26309625701E+03 0.  0.
         25    1    3    3    0    0  0.50773295498E+02  0.15731413254E+02  0.62208988541E+02  0.14947531988E+03  0.12509000000E+03 0.  0.
         25    1    4    4    0    0 -0.59113542449E+02  0.15312512459E+02  0.24046869809E+03  0.27785173528E+03  0.12509000000E+03 0.  0.
         25    1    4    4    0    0  0.83402469503E+01 -0.31043925713E+02  0.23411838438E+03  0.26738027423E+03  0.12509000000E+03 0.  0.
<mgrwt>
<rscale>  2 0.44098555E+03</rscale>
<asrwt>0</asrwt>
<pdfrwt beam="1">  1       21 0.90551718E-01 0.44098555E+03</pdfrwt>
<pdfrwt beam="2">  1       21 0.11611122E-01 0.44098555E+03</pdfrwt>
<totfact> 0.59486300E+04</totfact>
</mgrwt>
</event>
<event>
 7    0  0.4712189E-002  0.4455337E+03  0.7546771E-02  0.1029062E+00
         21   -1    0    0  502  501  0.00000000000E+00  0.00000000000E+00  0.75566802472E+02  0.75566802472E+02  0.00000000000E+00 0.  1.
         21   -1    0    0  501  502 -0.00000000000E+00 -0.00000000000E+00 -0.65670471021E+03  0.65670471021E+03  0.00000000000E+00 0.  1.
      99926    2    1    2    0    0  0.00000000000E+00 -0.55511151231E-16 -0.58113790773E+03  0.73227151268E+03  0.44553372541E+03 0.  0.
      99925    2    3    3    0    0  0.64753310531E+02  0.12436777010E+00 -0.23523645785E+03  0.35879015059E+03  0.26306116089E+03 0.  0.
         25    1    3    3    0    0 -0.64753310531E+02 -0.12436777010E+00 -0.34590144988E+03  0.37348136208E+03  0.12509000000E+03 0.  0.
         25    1    4    4    0    0  0.63791147419E+02 -0.18004985794E+01 -0.88630011611E+02  0.16605824081E+03  0.12509000000E+03 0.  0.
         25    1    4    4    0    0  0.96216311128E+00  0.19248663495E+01 -0.14660644624E+03  0.19273190978E+03  0.12509000000E+03 0.  0.
<mgrwt>
<rscale>  2 0.44553373E+03</rscale>
<asrwt>0</asrwt>
<pdfrwt beam="1">  1       21 0.11112765E-01 0.44553373E+03</pdfrwt>
<pdfrwt beam="2">  1       21 0.96574223E-01 0.44553373E+03</pdfrwt>
<totfact> 0.55179537E+04</totfact>
</mgrwt>
</event>
<event>
 7    0  0.4712189E-002  0.4554275E+03  0.7546771E-02  0.1026116E+00
         21   -1    0    0  502  501  0.00000000000E+00  0.00000000000E+00  0.26094050500E+03  0.26094050500E+03  0.00000000000E+00 0.  1.
         21   -1    0    0  501  502 -0.00000000000E+00 -0.00000000000E+00 -0.19871794176E+03  0.19871794176E+03  0.00000000000E+00 0.  1.
      99926    2    1    2    0    0  0.00000000000E+00  0.00000000000E+00  0.62222563232E+02  0.45965844676E+03  0.45542753573E+03 0.  0.
      99925    2    3    3    0    0 -0.10034708743E+03  0.41745455819E+02  0.63592790372E+01  0.28478581980E+03  0.26315452056E+03 0.  0.
         25    1    4    4    0    0 -0.12403329515E+02  0.17406412228E+02 -0.17566042015E+02  0.12811283972E+03  0.12509000000E+03 0.  0.
         25    1    3    3    0    0  0.10034708743E+03 -0.41745455819E+02  0.55863284195E+02  0.17487262696E+03  0.12509000000E+03 0.  0.
         25    1    4    4    0    0 -0.87943757918E+02  0.24339043592E+02  0.23925321053E+02  0.15667298008E+03  0.12509000000E+03 0.  0.
<mgrwt>
<rscale>  2 0.45542754E+03</rscale>
<asrwt>0</asrwt>
<pdfrwt beam="1">  1       21 0.38373604E-01 0.45542754E+03</pdfrwt>
<pdfrwt beam="2">  1       21 0.29223227E-01 0.45542754E+03</pdfrwt>
<totfact> 0.67973417E+04</totfact>
</mgrwt>
</event>
<event>
 7    0  0.4712189E-002  0.4615609E+03  0.7546771E-02  0.1024330E+00
         21   -1    0    0  502  501  0.00000000000E+00  0.00000000000E+00  0.25072324098E+03  0.25072324098E+03  0.00000000000E+00 0. -1.
         21   -1    0    0  501  502 -0.00000000000E+00 -0.00000000000E+00 -0.21242388413E+03  0.21242388413E+03  0.00000000000E+00 0. -1.
      99926    2    1    2    0    0  0.00000000000E+00  0.17763568394E-14  0.38299356857E+02  0.46314712511E+03  0.46156085055E+03 0.  0.
      99925    2    3    3    0    0  0.46092782709E+02  0.13244620889E+02 -0.85871451649E+02  0.28048387652E+03  0.26267343638E+03 0.  0.
         25    1    3    3    0    0 -0.46092782709E+02 -0.13244620889E+02  0.12417080851E+03  0.18266324859E+03  0.12509000000E+03 0.  0.
         25    1    4    4    0    0  0.62611693417E+02 -0.20328255775E+01 -0.46644251685E+02  0.14747050840E+03  0.12509000000E+03 0.  0.
         25    1    4    4    0    0 -0.16518910707E+02  0.15277446467E+02 -0.39227199964E+02  0.13301336812E+03  0.12509000000E+03 0.  0.
<mgrwt>
<rscale>  2 0.46156085E+03</rscale>
<asrwt>0</asrwt>
<pdfrwt beam="1">  1       21 0.36871065E-01 0.46156085E+03</pdfrwt>
<pdfrwt beam="2">  1       21 0.31238807E-01 0.46156085E+03</pdfrwt>
<totfact> 0.64509454E+04</totfact>
</mgrwt>
</event>
<event>
 7    0  0.4712189E-002  0.4512579E+03  0.7546771E-02  0.1027348E+00
         21   -1    0    0  502  501  0.00000000000E+00  0.00000000000E+00  0.45436090165E+03  0.45436090165E+03  0.00000000000E+00 0.  1.
         21   -1    0    0  501  502 -0.00000000000E+00 -0.00000000000E+00 -0.11204404180E+03  0.11204404180E+03  0.00000000000E+00 0.  1.
      99926    2    1    2    0    0  0.00000000000E+00  0.00000000000E+00  0.34231685985E+03  0.56640494345E+03  0.45125793890E+03 0.  0.
      99925    2    3    3    0    0 -0.75163661018E+02  0.54261275881E+02  0.28964814554E+03  0.40204143300E+03  0.26295893908E+03 0.  0.
         25    1    3    3    0    0  0.75163661018E+02 -0.54261275881E+02  0.52668714311E+02  0.16436351044E+03  0.12509000000E+03 0.  0.
         25    1    4    4    0    0 -0.73494253895E+02  0.31908149282E+02  0.18607285664E+03  0.23809693703E+03  0.12509000000E+03 0.  0.
         25    1    4    4    0    0 -0.16694071231E+01  0.22353126598E+02  0.10357528889E+03  0.16394449597E+03  0.12509000000E+03 0.  0.
<mgrwt>
<rscale>  2 0.45125794E+03</rscale>
<asrwt>0</asrwt>
<pdfrwt beam="1">  1       21 0.66817779E-01 0.45125794E+03</pdfrwt>
<pdfrwt beam="2">  1       21 0.16477065E-01 0.45125794E+03</pdfrwt>
<totfact> 0.62628250E+04</totfact>
</mgrwt>
</event>
<event>
 7    0  0.4712189E-002  0.4581618E+03  0.7546771E-02  0.1025316E+00
         21   -1    0    0  502  501  0.00000000000E+00  0.00000000000E+00  0.32351256305E+03  0.32351256305E+03  0.00000000000E+00 0. -1.
         21   -1    0    0  501  502 -0.00000000000E+00 -0.00000000000E+00 -0.16221334762E+03  0.16221334762E+03  0.00000000000E+00 0. -1.
      99926    2    1    2    0    0  0.00000000000E+00  0.17763568394E-14  0.16129921543E+03  0.48572591067E+03  0.45816178736E+03 0.  0.
      99925    2    3    3    0    0  0.75938715921E+02  0.88622139814E+01  0.19390074671E+03  0.33554070716E+03  0.26295406286E+03 0.  0.
         25    1    4    4    0    0  0.44210265376E+02  0.10754668827E+02  0.49870702868E+02  0.14214360897E+03  0.12509000000E+03 0.  0.
         25    1    4    4    0    0  0.31728450545E+02 -0.18924548460E+01  0.14403004384E+03  0.19339709819E+03  0.12509000000E+03 0.  0.
         25    1    3    3    0    0 -0.75938715921E+02 -0.88622139814E+01 -0.32601531281E+02  0.15018520351E+03  0.12509000000E+03 0.  0.
<mgrwt>
<rscale>  2 0.45816179E+03</rscale>
<asrwt>0</asrwt>
<pdfrwt beam="1">  1       21 0.47575377E-01 0.45816179E+03</pdfrwt>
<pdfrwt beam="2">  1       21 0.23854904E-01 0.45816179E+03</pdfrwt>
<totfact> 0.64647715E+04</totfact>
</mgrwt>
</event>
<event>
 7    0  0.4712189E-002  0.4411963E+03  0.7546771E-02  0.1030380E+00
         21   -1    0    0  502  501  0.00000000000E+00  0.00000000000E+00  0.21429216970E+03  0.21429216970E+03  0.00000000000E+00 0.  1.
         21   -1    0    0  501  502 -0.00000000000E+00 -0.00000000000E+00 -0.22708972031E+03  0.22708972031E+03  0.00000000000E+00 0.  1.
      99926    2    1    2    0    0  0.00000000000E+00 -0.88817841970E-15 -0.12797550609E+02  0.44138189000E+03  0.44119632311E+03 0.  0.
      99925    2    3    3    0    0 -0.73036231070E+02  0.27406320411E+01 -0.75939712666E+02  0.28334315158E+03  0.26301083528E+03 0.  0.
         25    1    4    4    0    0 -0.64468889618E+02 -0.22062549421E+02 -0.20065336040E+02  0.14385103276E+03  0.12509000000E+03 0.  0.
         25    1    4    4    0    0 -0.85673414527E+01  0.24803181462E+02 -0.55874376626E+02  0.13949211882E+03  0.12509000000E+03 0.  0.
         25    1    3    3    0    0  0.73036231070E+02 -0.27406320411E+01  0.63142162057E+02  0.15803873842E+03  0.12509000000E+03 0.  0.
<mgrwt>
<rscale>  2 0.44119632E+03</rscale>
<asrwt>0</asrwt>
<pdfrwt beam="1">  1       21 0.31513554E-01 0.44119632E+03</pdfrwt>
<pdfrwt beam="2">  1       21 0.33395547E-01 0.44119632E+03</pdfrwt>
<totfact> 0.77774647E+04</totfact>
</mgrwt>
</event>
<event>
 7    0  0.4712189E-002  0.4575870E+03  0.7546771E-02  0.1025483E+00
         21   -1    0    0  502  501  0.00000000000E+00  0.00000000000E+00  0.43378436023E+03  0.43378436023E+03  0.00000000000E+00 0. -1.
         21   -1    0    0  501  502 -0.00000000000E+00 -0.00000000000E+00 -0.12067394515E+03  0.12067394515E+03  0.00000000000E+00 0. -1.
      99926    2    1    2    0    0  0.00000000000E+00 -0.14210854715E-13  0.31311041508E+03  0.55445830537E+03  0.45758701945E+03 0.  0.
      99925    2    3    3    0    0  0.69179698184E+02  0.88457870160E+02  0.16323732041E+03  0.32924711995E+03  0.26295744482E+03 0.  0.
         25    1    4    4    0    0  0.73765934703E+02  0.55327557636E+02  0.10299471425E+03  0.18643489754E+03  0.12509000000E+03 0.  0.
         25    1    3    3    0    0 -0.69179698184E+02 -0.88457870160E+02  0.14987309467E+03  0.22521118543E+03  0.12509000000E+03 0.  0.
         25    1    4    4    0    0 -0.45862365192E+01  0.33130312524E+02  0.60242606157E+02  0.14281222241E+03  0.12509000000E+03 0.  0.
<mgrwt>
<rscale>  2 0.45758702E+03</rscale>
<asrwt>0</asrwt>
<pdfrwt beam="1">  1       21 0.63791817E-01 0.45758702E+03</pdfrwt>
<pdfrwt beam="2">  1       21 0.17746169E-01 0.45758702E+03</pdfrwt>
<totfact> 0.60328660E+04</totfact>
</mgrwt>
</event>
<event>
 7    0  0.4712189E-002  0.4580066E+03  0.7546771E-02  0.1025361E+00
         21   -1    0    0  502  501  0.00000000000E+00  0.00000000000E+00  0.10043037794E+03  0.10043037794E+03  0.00000000000E+00 0. -1.
         21   -1    0    0  501  502 -0.00000000000E+00 -0.00000000000E+00 -0.52217784027E+03  0.52217784027E+03  0.00000000000E+00 0. -1.
      99926    2    1    2    0    0  0.00000000000E+00  0.71054273576E-14 -0.42174746233E+03  0.62260821820E+03  0.45800662811E+03 0.  0.
      99925    2    3    3    0    0 -0.18150723387E+02 -0.57951584204E+02 -0.13047268121E+03  0.29984461882E+03  0.26305102171E+03 0.  0.
         25    1    3    3    0    0  0.18150723387E+02  0.57951584204E+02 -0.29127478112E+03  0.32276359938E+03  0.12509000000E+03 0.  0.
         25    1    4    4    0    0 -0.46313066351E+02 -0.45272180517E+02 -0.74731465454E+02  0.15945773883E+03  0.12509000000E+03 0.  0.
         25    1    4    4    0    0  0.28162342964E+02 -0.12679403687E+02 -0.55741215754E+02  0.14038687999E+03  0.12509000000E+03 0.  0.
<mgrwt>
<rscale>  2 0.45800663E+03</rscale>
<asrwt>0</asrwt>
<pdfrwt beam="1">  1       21 0.14769173E-01 0.45800663E+03</pdfrwt>
<pdfrwt beam="2">  1       21 0.76790860E-01 0.45800663E+03</pdfrwt>
<totfact> 0.55967243E+04</totfact>
</mgrwt>
</event>
<event>
 7    0  0.4712189E-002  0.4546022E+03  0.7546771E-02  0.1026358E+00
         21   -1    0    0  502  501  0.00000000000E+00  0.00000000000E+00  0.57884006509E+02  0.57884006509E+02  0.00000000000E+00 0. -1.
         21   -1    0    0  501  502 -0.00000000000E+00 -0.00000000000E+00 -0.89257443881E+03  0.89257443881E+03  0.00000000000E+00 0. -1.
      99926    2    1    2    0    0 -0.14210854715E-13  0.00000000000E+00 -0.83469043230E+03  0.95045844532E+03  0.45460217609E+03 0.  0.
      99925    2    3    3    0    0 -0.75286890936E+02  0.72989377047E+02 -0.61232181185E+03  0.67461269754E+03  0.26299947776E+03 0.  0.
         25    1    4    4    0    0 -0.77354097717E+02  0.31925122286E+02 -0.29877921526E+03  0.33454356583E+03  0.12509000000E+03 0.  0.
         25    1    4    4    0    0  0.20672067810E+01  0.41064254761E+02 -0.31354259659E+03  0.34006913171E+03  0.12509000000E+03 0.  0.
         25    1    3    3    0    0  0.75286890936E+02 -0.72989377047E+02 -0.22236862044E+03  0.27584574778E+03  0.12509000000E+03 0.  0.
<mgrwt>
<rscale>  2 0.45460218E+03</rscale>
<asrwt>0</asrwt>
<pdfrwt beam="1">  1       21 0.85123548E-02 0.45460218E+03</pdfrwt>
<pdfrwt beam="2">  1       21 0.13126093E+00 0.45460218E+03</pdfrwt>
<totfact> 0.41250429E+04</totfact>
</mgrwt>
</event>
<event>
 7    0  0.4712189E-002  0.4542651E+03  0.7546771E-02  0.1026458E+00
         21   -1    0    0  502  501  0.00000000000E+00  0.00000000000E+00  0.15619693682E+04  0.15619693682E+04  0.00000000000E+00 0. -1.
         21   -1    0    0  501  502 -0.00000000000E+00 -0.00000000000E+00 -0.33028298928E+02  0.33028298928E+02  0.00000000000E+00 0. -1.
      99926    2    1    2    0    0  0.71054273576E-14  0.00000000000E+00  0.15289410692E+04  0.15949976671E+04  0.45426508212E+03 0.  0.
      99925    2    3    3    0    0  0.56411863609E+02  0.65217156048E+02  0.12163852152E+04  0.12474717749E+04  0.26297768240E+03 0.  0.
         25    1    4    4    0    0  0.54304444197E+02  0.84783678420E+01  0.51888282094E+03  0.53657035451E+03  0.12509000000E+03 0.  0.
         25    1    3    3    0    0 -0.56411863609E+02 -0.65217156048E+02  0.31255585401E+03  0.34752589223E+03  0.12509000000E+03 0.  0.
         25    1    4    4    0    0  0.21074194123E+01  0.56738788206E+02  0.69750239429E+03  0.71090142034E+03  0.12509000000E+03 0.  0.
<mgrwt>
<rscale>  2 0.45426508E+03</rscale>
<asrwt>0</asrwt>
<pdfrwt beam="1">  1       21 0.22970133E+00 0.45426508E+03</pdfrwt>
<pdfrwt beam="2">  1       21 0.48571039E-02 0.45426508E+03</pdfrwt>
<totfact> 0.21666442E+04</totfact>
</mgrwt>
</event>
<event>
 7    0  0.4712189E-002  0.4568319E+03  0.7546771E-02  0.1025704E+00
         21   -1    0    0  502  501  0.00000000000E+00  0.00000000000E+00  0.30143050922E+03  0.30143050922E+03  0.00000000000E+00 0. -1.
         21   -1    0    0  501  502 -0.00000000000E+00 -0.00000000000E+00 -0.17308745226E+03  0.17308745226E+03  0.00000000000E+00 0. -1.
      99926    2    1    2    0    0  0.00000000000E+00 -0.26645352591E-14  0.12834305696E+03  0.47451796148E+03  0.45683186787E+03 0.  0.
      99925    2    3    3    0    0  0.34707207535E+02  0.66166182023E+01  0.19419201825E+03  0.32880604126E+03  0.26297243758E+03 0.  0.
         25    1    4    4    0    0  0.18681371535E+02 -0.12315863523E+02  0.14322680957E+03  0.19147350003E+03  0.12509000000E+03 0.  0.
         25    1    4    4    0    0  0.16025836000E+02  0.18932481725E+02  0.50965208685E+02  0.13733254123E+03  0.12509000000E+03 0.  0.
         25    1    3    3    0    0 -0.34707207535E+02 -0.66166182023E+01 -0.65848961290E+02  0.14571192022E+03  0.12509000000E+03 0.  0.
<mgrwt>
<rscale>  2 0.45683187E+03</rscale>
<asrwt>0</asrwt>
<pdfrwt beam="1">  1       21 0.44328016E-01 0.45683187E+03</pdfrwt>
<pdfrwt beam="2">  1       21 0.25454037E-01 0.45683187E+03</pdfrwt>
<totfact> 0.66134813E+04</totfact>
</mgrwt>
</event>
<event>
 7    0  0.4712189E-002  0.4562135E+03  0.7546771E-02  0.1025885E+00
         21   -1    0    0  502  501  0.00000000000E+00  0.00000000000E+00  0.10756560372E+03  0.10756560372E+03  0.00000000000E+00 0. -1.
         21   -1    0    0  501  502 -0.00000000000E+00 -0.00000000000E+00 -0.48372987527E+03  0.48372987527E+03  0.00000000000E+00 0. -1.
      99926    2    1    2    0    0  0.00000000000E+00 -0.14210854715E-13 -0.37616427155E+03  0.59129547899E+03  0.45621352927E+03 0.  0.
      99925    2    3    3    0    0 -0.59794432258E+02  0.93995427004E+02 -0.20346452285E+03  0.35070614895E+03  0.26303322305E+03 0.  0.
         25    1    4    4    0    0 -0.50539544212E+02  0.54294438694E+02 -0.14931445852E+03  0.20843331601E+03  0.12509000000E+03 0.  0.
         25    1    4    4    0    0 -0.92548880457E+01  0.39700988309E+02 -0.54150064328E+02  0.14227283294E+03  0.12509000000E+03 0.  0.
         25    1    3    3    0    0  0.59794432258E+02 -0.93995427004E+02 -0.17269974870E+03  0.24058933004E+03  0.12509000000E+03 0.  0.
<mgrwt>
<rscale>  2 0.45621353E+03</rscale>
<asrwt>0</asrwt>
<pdfrwt beam="1">  1       21 0.15818471E-01 0.45621353E+03</pdfrwt>
<pdfrwt beam="2">  1       21 0.71136747E-01 0.45621353E+03</pdfrwt>
<totfact> 0.58652719E+04</totfact>
</mgrwt>
</event>
<event>
 7    0  0.4712189E-002  0.4569820E+03  0.7546771E-02  0.1025660E+00
         21   -1    0    0  502  501  0.00000000000E+00  0.00000000000E+00  0.11762344926E+03  0.11762344926E+03  0.00000000000E+00 0. -1.
         21   -1    0    0  501  502 -0.00000000000E+00 -0.00000000000E+00 -0.44385830644E+03  0.44385830644E+03  0.00000000000E+00 0. -1.
      99926    2    1    2    0    0  0.71054273576E-14  0.00000000000E+00 -0.32623485719E+03  0.56148175570E+03  0.45698203459E+03 0.  0.
      99925    2    3    3    0    0 -0.35029428469E+02 -0.28786654571E+02 -0.33484450188E+03  0.42814996496E+03  0.26293691204E+03 0.  0.
         25    1    4    4    0    0 -0.17094993477E+02 -0.54754005049E+02 -0.18096381484E+03  0.22734478277E+03  0.12509000000E+03 0.  0.
         25    1    4    4    0    0 -0.17934434992E+02  0.25967350478E+02 -0.15388068705E+03  0.20080518219E+03  0.12509000000E+03 0.  0.
         25    1    3    3    0    0  0.35029428469E+02  0.28786654571E+02  0.86096446964E+01  0.13333179074E+03  0.12509000000E+03 0.  0.
<mgrwt>
<rscale>  2 0.45698203E+03</rscale>
<asrwt>0</asrwt>
<pdfrwt beam="1">  1       21 0.17297566E-01 0.45698203E+03</pdfrwt>
<pdfrwt beam="2">  1       21 0.65273280E-01 0.45698203E+03</pdfrwt>
<totfact> 0.60165322E+04</totfact>
</mgrwt>
</event>
<event>
 7    0  0.4712189E-002  0.4552996E+03  0.7546771E-02  0.1026153E+00
         21   -1    0    0  502  501  0.00000000000E+00  0.00000000000E+00  0.73402380647E+03  0.73402380647E+03  0.00000000000E+00 0. -1.
         21   -1    0    0  501  502 -0.00000000000E+00 -0.00000000000E+00 -0.70603188659E+02  0.70603188659E+02  0.00000000000E+00 0. -1.
      99926    2    1    2    0    0  0.00000000000E+00  0.00000000000E+00  0.66342061781E+03  0.80462699512E+03  0.45529955541E+03 0.  0.
      99925    2    3    3    0    0 -0.10952500051E+03  0.29013091258E+02  0.40611103857E+03  0.49690437186E+03  0.26296443471E+03 0.  0.
         25    1    4    4    0    0 -0.24829959252E+02  0.37808224303E+02  0.16093358507E+03  0.20878964439E+03  0.12509000000E+03 0.  0.
         25    1    3    3    0    0  0.10952500051E+03 -0.29013091258E+02  0.25730957923E+03  0.30772262326E+03  0.12509000000E+03 0.  0.
         25    1    4    4    0    0 -0.84695041262E+02 -0.87951330448E+01  0.24517745351E+03  0.28811472747E+03  0.12509000000E+03 0.  0.
<mgrwt>
<rscale>  2 0.45529956E+03</rscale>
<asrwt>0</asrwt>
<pdfrwt beam="1">  1       21 0.10794467E+00 0.45529956E+03</pdfrwt>
<pdfrwt beam="2">  1       21 0.10382822E-01 0.45529956E+03</pdfrwt>
<totfact> 0.47430223E+04</totfact>
</mgrwt>
</event>
<event>
 7    0  0.4712189E-002  0.4188885E+03  0.7546771E-02  0.1037429E+00
         21   -1    0    0  502  501  0.00000000000E+00  0.00000000000E+00  0.11998527286E+03  0.11998527286E+03  0.00000000000E+00 0.  1.
         21   -1    0    0  501  502 -0.00000000000E+00 -0.00000000000E+00 -0.36560227149E+03  0.36560227149E+03  0.00000000000E+00 0.  1.
      99926    2    1    2    0    0  0.17763568394E-14  0.00000000000E+00 -0.24561699863E+03  0.48558754435E+03  0.41888847347E+03 0.  0.
      99925    2    3    3    0    0  0.61316729040E+01  0.38013442217E+02 -0.23383808118E+03  0.35417647100E+03  0.26320734260E+03 0.  0.
         25    1    4    4    0    0  0.20185711704E+02 -0.13112621634E+02 -0.87798152812E+02  0.15471078676E+03  0.12509000000E+03 0.  0.
         25    1    4    4    0    0 -0.14054038800E+02  0.51126063851E+02 -0.14603992837E+03  0.19946568424E+03  0.12509000000E+03 0.  0.
         25    1    3    3    0    0 -0.61316729040E+01 -0.38013442217E+02 -0.11778917453E+02  0.13141107335E+03  0.12509000000E+03 0.  0.
<mgrwt>
<rscale>  2 0.41888847E+03</rscale>
<asrwt>0</asrwt>
<pdfrwt beam="1">  1       21 0.17644893E-01 0.41888847E+03</pdfrwt>
<pdfrwt beam="2">  1       21 0.53765040E-01 0.41888847E+03</pdfrwt>
<totfact> 0.89256624E+04</totfact>
</mgrwt>
</event>
<event>
 7    0  0.4712189E-002  0.4537050E+03  0.7546771E-02  0.1026623E+00
         21   -1    0    0  502  501  0.00000000000E+00  0.00000000000E+00  0.11144011722E+04  0.11144011722E+04  0.00000000000E+00 0. -1.
         21   -1    0    0  501  502 -0.00000000000E+00 -0.00000000000E+00 -0.46179110599E+02  0.46179110599E+02  0.00000000000E+00 0. -1.
      99926    2    1    2    0    0  0.00000000000E+00  0.00000000000E+00  0.10682220616E+04  0.11605802828E+04  0.45370499218E+03 0.  0.
      99925    2    3    3    0    0 -0.74693410799E+02  0.75279487488E+02  0.58145771834E+03  0.64693337994E+03  0.26302777991E+03 0.  0.
         25    1    4    4    0    0 -0.62779301699E+02  0.93997473938E+01  0.32173161601E+03  0.35098196081E+03  0.12509000000E+03 0.  0.
         25    1    4    4    0    0 -0.11914109100E+02  0.65879740094E+02  0.25972610234E+03  0.29595141913E+03  0.12509000000E+03 0.  0.
         25    1    3    3    0    0  0.74693410799E+02 -0.75279487488E+02  0.48676434327E+03  0.51364690288E+03  0.12509000000E+03 0.  0.
<mgrwt>
<rscale>  2 0.45370499E+03</rscale>
<asrwt>0</asrwt>
<pdfrwt beam="1">  1       21 0.16388251E+00 0.45370499E+03</pdfrwt>
<pdfrwt beam="2">  1       21 0.67910464E-02 0.45370499E+03</pdfrwt>
<totfact> 0.33770595E+04</totfact>
</mgrwt>
</event>
<event>
 7    0  0.4712189E-002  0.4563123E+03  0.7546771E-02  0.1025856E+00
         21   -1    0    0  502  501  0.00000000000E+00  0.00000000000E+00  0.52502341841E+03  0.52502341841E+03  0.00000000000E+00 0.  1.
         21   -1    0    0  501  502 -0.00000000000E+00 -0.00000000000E+00 -0.99148382306E+02  0.99148382306E+02  0.00000000000E+00 0.  1.
      99926    2    1    2    0    0  0.00000000000E+00 -0.71054273576E-14  0.42587503610E+03  0.62417180072E+03  0.45631227294E+03 0.  0.
      99925    2    3    3    0    0  0.48366823553E+02  0.52767500829E+02  0.38957653712E+03  0.47554862657E+03  0.26315937983E+03 0.  0.
         25    1    3    3    0    0 -0.48366823553E+02 -0.52767500829E+02  0.36298498979E+02  0.14862317414E+03  0.12509000000E+03 0.  0.
         25    1    4    4    0    0  0.47405373897E+02  0.55872191359E+02  0.17604204525E+03  0.22805104919E+03  0.12509000000E+03 0.  0.
         25    1    4    4    0    0  0.96144965526E+00 -0.31046905306E+01  0.21353449188E+03  0.24749757738E+03  0.12509000000E+03 0.  0.
<mgrwt>
<rscale>  2 0.45631227E+03</rscale>
<asrwt>0</asrwt>
<pdfrwt beam="1">  1       21 0.77209325E-01 0.45631227E+03</pdfrwt>
<pdfrwt beam="2">  1       21 0.14580645E-01 0.45631227E+03</pdfrwt>
<totfact> 0.56625572E+04</totfact>
</mgrwt>
</event>
<event>
 7    0  0.4712189E-002  0.4608851E+03  0.7546771E-02  0.1024525E+00
         21   -1    0    0  502  501  0.00000000000E+00  0.00000000000E+00  0.35711048012E+02  0.35711048012E+02  0.00000000000E+00 0. -1.
         21   -1    0    0  501  502 -0.00000000000E+00 -0.00000000000E+00 -0.14870402808E+04  0.14870402808E+04  0.00000000000E+00 0. -1.
      99926    2    1    2    0    0  0.00000000000E+00 -0.44408920985E-15 -0.14513292327E+04  0.15227513288E+04  0.46088509137E+03 0.  0.
      99925    2    3    3    0    0 -0.90994847982E+02 -0.11519053460E+01 -0.11597849676E+04  0.11927104890E+04  0.26301283310E+03 0.  0.
         25    1    4    4    0    0 -0.65654269004E+02 -0.27104130971E+02 -0.71113640099E+03  0.72553952743E+03  0.12509000000E+03 0.  0.
         25    1    4    4    0    0 -0.25340578978E+02  0.25952225625E+02 -0.44864856657E+03  0.46717096158E+03  0.12509000000E+03 0.  0.
         25    1    3    3    0    0  0.90994847982E+02  0.11519053460E+01 -0.29154426519E+03  0.33004083977E+03  0.12509000000E+03 0.  0.
<mgrwt>
<rscale>  2 0.46088509E+03</rscale>
<asrwt>0</asrwt>
<pdfrwt beam="1">  1       21 0.52516252E-02 0.46088509E+03</pdfrwt>
<pdfrwt beam="2">  1       21 0.21868237E+00 0.46088509E+03</pdfrwt>
<totfact> 0.22195034E+04</totfact>
</mgrwt>
</event>
<event>
 7    0  0.4712189E-002  0.4042584E+03  0.7546771E-02  0.1042315E+00
         21   -1    0    0  502  501  0.00000000000E+00  0.00000000000E+00  0.73706791591E+02  0.73706791591E+02  0.00000000000E+00 0.  1.
         21   -1    0    0  501  502 -0.00000000000E+00 -0.00000000000E+00 -0.55430729330E+03  0.55430729330E+03  0.00000000000E+00 0.  1.
      99926    2    1    2    0    0 -0.13322676296E-14  0.00000000000E+00 -0.48060050171E+03  0.62801408489E+03  0.40425839333E+03 0.  0.
      99925    2    3    3    0    0 -0.23406554865E+01 -0.52962223172E+02 -0.31128633355E+03  0.41093052635E+03  0.26297193819E+03 0.  0.
         25    1    3    3    0    0  0.23406554865E+01  0.52962223172E+02 -0.16931416816E+03  0.21708355855E+03  0.12509000000E+03 0.  0.
         25    1    4    4    0    0 -0.21097030821E+02 -0.30817115877E+02 -0.21047914947E+03  0.24767672438E+03  0.12509000000E+03 0.  0.
         25    1    4    4    0    0  0.18756375335E+02 -0.22145107295E+02 -0.10080718408E+03  0.16325380196E+03  0.12509000000E+03 0.  0.
<mgrwt>
<rscale>  2 0.40425839E+03</rscale>
<asrwt>0</asrwt>
<pdfrwt beam="1">  1       21 0.10839234E-01 0.40425839E+03</pdfrwt>
<pdfrwt beam="2">  1       21 0.81515781E-01 0.40425839E+03</pdfrwt>
<totfact> 0.86885143E+04</totfact>
</mgrwt>
</event>
<event>
 7    0  0.4712189E-002  0.4547804E+03  0.7546771E-02  0.1026306E+00
         21   -1    0    0  502  501  0.00000000000E+00  0.00000000000E+00  0.19009627133E+03  0.19009627133E+03  0.00000000000E+00 0. -1.
         21   -1    0    0  501  502 -0.00000000000E+00 -0.00000000000E+00 -0.27200057168E+03  0.27200057168E+03  0.00000000000E+00 0. -1.
      99926    2    1    2    0    0 -0.14210854715E-13 -0.17763568394E-14 -0.81904300359E+02  0.46209684301E+03  0.45478036227E+03 0.  0.
      99925    2    3    3    0    0 -0.80740802214E+02  0.64350128543E+01 -0.13087887292E+03  0.30523224092E+03  0.26358481555E+03 0.  0.
         25    1    4    4    0    0 -0.38487336748E+01 -0.11212776202E+02 -0.40988902578E+02  0.13216708113E+03  0.12509000000E+03 0.  0.
         25    1    3    3    0    0  0.80740802214E+02 -0.64350128543E+01  0.48974572558E+02  0.15686460209E+03  0.12509000000E+03 0.  0.
         25    1    4    4    0    0 -0.76892068539E+02  0.17647789056E+02 -0.89889970340E+02  0.17306515978E+03  0.12509000000E+03 0.  0.
<mgrwt>
<rscale>  2 0.45478036E+03</rscale>
<asrwt>0</asrwt>
<pdfrwt beam="1">  1       21 0.27955334E-01 0.45478036E+03</pdfrwt>
<pdfrwt beam="2">  1       21 0.40000084E-01 0.45478036E+03</pdfrwt>
<totfact> 0.68145074E+04</totfact>
</mgrwt>
</event>
<event>
 7    0  0.4712189E-002  0.4602806E+03  0.7546771E-02  0.1024700E+00
         21   -1    0    0  502  501  0.00000000000E+00  0.00000000000E+00  0.16221518893E+04  0.16221518893E+04  0.00000000000E+00 0.  1.
         21   -1    0    0  501  502 -0.00000000000E+00 -0.00000000000E+00 -0.32650806518E+02  0.32650806518E+02  0.00000000000E+00 0.  1.
      99926    2    1    2    0    0  0.00000000000E+00  0.14210854715E-13  0.15895010828E+04  0.16548026959E+04  0.46028064257E+03 0.  0.
      99925    2    3    3    0    0 -0.45925813303E+02  0.10540901390E+03  0.89995561700E+03  0.94463321040E+03  0.26304286548E+03 0.  0.
         25    1    4    4    0    0 -0.35796103372E+01  0.12838051685E+02  0.39399824716E+03  0.41359370890E+03  0.12509000000E+03 0.  0.
         25    1    4    4    0    0 -0.42346202966E+02  0.92570962217E+02  0.50595736984E+03  0.53103950149E+03  0.12509000000E+03 0.  0.
         25    1    3    3    0    0  0.45925813303E+02 -0.10540901390E+03  0.68954546582E+03  0.71016948546E+03  0.12509000000E+03 0.  0.
<mgrwt>
<rscale>  2 0.46028064E+03</rscale>
<asrwt>0</asrwt>
<pdfrwt beam="1">  1       21 0.23855170E+00 0.46028064E+03</pdfrwt>
<pdfrwt beam="2">  1       21 0.48015903E-02 0.46028064E+03</pdfrwt>
<totfact> 0.19411100E+04</totfact>
</mgrwt>
</event>
<event>
 7    0  0.4712189E-002  0.4599481E+03  0.7546771E-02  0.1024796E+00
         21   -1    0    0  502  501  0.00000000000E+00  0.00000000000E+00  0.33951273194E+04  0.33951273194E+04  0.00000000000E+00 0. -1.
         21   -1    0    0  501  502 -0.00000000000E+00 -0.00000000000E+00 -0.15577636811E+02  0.15577636811E+02  0.00000000000E+00 0. -1.
      99926    2    1    2    0    0 -0.71054273576E-14 -0.88817841970E-15  0.33795496826E+04  0.34107049562E+04  0.45994808536E+03 0.  0.
      99925    2    3    3    0    0  0.54495610130E+02 -0.70974457226E+01  0.28893589539E+04  0.29018291326E+04  0.26305323619E+03 0.  0.
         25    1    4    4    0    0  0.64466506253E+02 -0.21717440482E+02  0.15409278137E+04  0.15474926859E+04  0.12509000000E+03 0.  0.
         25    1    4    4    0    0 -0.99708961237E+01  0.14619994760E+02  0.13484311402E+04  0.13543364468E+04  0.12509000000E+03 0.  0.
         25    1    3    3    0    0 -0.54495610130E+02  0.70974457226E+01  0.49019072863E+03  0.50887582355E+03  0.12509000000E+03 0.  0.
<mgrwt>
<rscale>  2 0.45994809E+03</rscale>
<asrwt>0</asrwt>
<pdfrwt beam="1">  1       21 0.49928292E+00 0.45994809E+03</pdfrwt>
<pdfrwt beam="2">  1       21 0.22908313E-02 0.45994809E+03</pdfrwt>
<totfact> 0.14766726E+03</totfact>
</mgrwt>
</event>
<event>
 7    0  0.4712189E-002  0.4564104E+03  0.7546771E-02  0.1025827E+00
         21   -1    0    0  502  501  0.00000000000E+00  0.00000000000E+00  0.41613773263E+03  0.41613773263E+03  0.00000000000E+00 0. -1.
         21   -1    0    0  501  502 -0.00000000000E+00 -0.00000000000E+00 -0.12514511224E+03  0.12514511224E+03  0.00000000000E+00 0. -1.
      99926    2    1    2    0    0  0.00000000000E+00  0.00000000000E+00  0.29099262039E+03  0.54128284487E+03  0.45641035596E+03 0.  0.
      99925    2    3    3    0    0  0.66275012076E+02  0.67111988200E+02  0.26078030732E+03  0.38173132295E+03  0.26232811143E+03 0.  0.
         25    1    4    4    0    0  0.11531785653E+02  0.59479101919E+02  0.15944977864E+03  0.21152419638E+03  0.12509000000E+03 0.  0.
         25    1    3    3    0    0 -0.66275012076E+02 -0.67111988200E+02  0.30212313067E+02  0.15955152192E+03  0.12509000000E+03 0.  0.
         25    1    4    4    0    0  0.54743226423E+02  0.76328862807E+01  0.10133052868E+03  0.17020712657E+03  0.12509000000E+03 0.  0.
<mgrwt>
<rscale>  2 0.45641036E+03</rscale>
<asrwt>0</asrwt>
<pdfrwt beam="1">  1       21 0.61196725E-01 0.45641036E+03</pdfrwt>
<pdfrwt beam="2">  1       21 0.18403693E-01 0.45641036E+03</pdfrwt>
<totfact> 0.61754114E+04</totfact>
</mgrwt>
</event>
<event>
 7    0  0.4712189E-002  0.4568512E+03  0.7546771E-02  0.1025698E+00
         21   -1    0    0  502  501  0.00000000000E+00  0.00000000000E+00  0.84495418588E+03  0.84495418588E+03  0.00000000000E+00 0. -1.
         21   -1    0    0  501  502 -0.00000000000E+00 -0.00000000000E+00 -0.61752767358E+02  0.61752767358E+02  0.00000000000E+00 0. -1.
      99926    2    1    2    0    0  0.17763568394E-14  0.00000000000E+00  0.78320141852E+03  0.90670695324E+03  0.45685121985E+03 0.  0.
      99925    2    3    3    0    0  0.73901604621E+01  0.81949707922E+02  0.65120372062E+03  0.70710417407E+03  0.26298223921E+03 0.  0.
         25    1    4    4    0    0 -0.14734761046E+02  0.38330119803E+02  0.23014507201E+03  0.26514255324E+03  0.12509000000E+03 0.  0.
         25    1    3    3    0    0 -0.73901604621E+01 -0.81949707922E+02  0.13199769790E+03  0.19960277917E+03  0.12509000000E+03 0.  0.
         25    1    4    4    0    0  0.22124921509E+02  0.43619588119E+02  0.42105864861E+03  0.44196162083E+03  0.12509000000E+03 0.  0.
<mgrwt>
<rscale>  2 0.45685122E+03</rscale>
<asrwt>0</asrwt>
<pdfrwt beam="1">  1       21 0.12425796E+00 0.45685122E+03</pdfrwt>
<pdfrwt beam="2">  1       21 0.90812898E-02 0.45685122E+03</pdfrwt>
<totfact> 0.42328208E+04</totfact>
</mgrwt>
</event>
<event>
 7    0  0.4712189E-002  0.4340782E+03  0.7546771E-02  0.1032579E+00
         21   -1    0    0  502  501  0.00000000000E+00  0.00000000000E+00  0.12506148918E+03  0.12506148918E+03  0.00000000000E+00 0. -1.
         21   -1    0    0  501  502 -0.00000000000E+00 -0.00000000000E+00 -0.37666248649E+03  0.37666248649E+03  0.00000000000E+00 0. -1.
      99926    2    1    2    0    0 -0.35527136788E-14  0.00000000000E+00 -0.25160099731E+03  0.50172397568E+03  0.43407820254E+03 0.  0.
      99925    2    3    3    0    0  0.81018839887E+01 -0.39806367629E+02 -0.25721568628E+03  0.37008347940E+03  0.26296707974E+03 0.  0.
         25    1    3    3    0    0 -0.81018839887E+01  0.39806367629E+02  0.56146889722E+01  0.13164049628E+03  0.12509000000E+03 0.  0.
         25    1    4    4    0    0  0.38113865384E+02 -0.92107869414E+01 -0.15467685883E+03  0.20275587313E+03  0.12509000000E+03 0.  0.
         25    1    4    4    0    0 -0.30011981395E+02 -0.30595580688E+02 -0.10253882745E+03  0.16732760627E+03  0.12509000000E+03 0.  0.
<mgrwt>
<rscale>  2 0.43407820E+03</rscale>
<asrwt>0</asrwt>
<pdfrwt beam="1">  1       21 0.18391395E-01 0.43407820E+03</pdfrwt>
<pdfrwt beam="2">  1       21 0.55391543E-01 0.43407820E+03</pdfrwt>
<totfact> 0.77188502E+04</totfact>
</mgrwt>
</event>
<event>
 7    0  0.4712189E-002  0.4563834E+03  0.7546771E-02  0.1025835E+00
         21   -1    0    0  502  501  0.00000000000E+00  0.00000000000E+00  0.88753898581E+03  0.88753898581E+03  0.00000000000E+00 0.  1.
         21   -1    0    0  501  502 -0.00000000000E+00 -0.00000000000E+00 -0.58669480658E+02  0.58669480658E+02  0.00000000000E+00 0.  1.
      99926    2    1    2    0    0  0.00000000000E+00  0.00000000000E+00  0.82886950516E+03  0.94620846647E+03  0.45638339743E+03 0.  0.
      99925    2    3    3    0    0 -0.79505470949E+02  0.81689175035E+02  0.48198008574E+03  0.56023694080E+03  0.26185183894E+03 0.  0.
         25    1    3    3    0    0  0.79505470949E+02 -0.81689175035E+02  0.34688941941E+03  0.38597152567E+03  0.12509000000E+03 0.  0.
         25    1    4    4    0    0 -0.40700133854E+02  0.46386841257E+01  0.25702682068E+03  0.28877034636E+03  0.12509000000E+03 0.  0.
         25    1    4    4    0    0 -0.38805337095E+02  0.77050490909E+02  0.22495326506E+03  0.27146659444E+03  0.12509000000E+03 0.  0.
<mgrwt>
<rscale>  2 0.45638340E+03</rscale>
<asrwt>0</asrwt>
<pdfrwt beam="1">  1       21 0.13052043E+00 0.45638340E+03</pdfrwt>
<pdfrwt beam="2">  1       21 0.86278653E-02 0.45638340E+03</pdfrwt>
<totfact> 0.40850980E+04</totfact>
</mgrwt>
</event>
<event>
 7    0  0.4712189E-002  0.4557582E+03  0.7546771E-02  0.1026019E+00
         21   -1    0    0  502  501  0.00000000000E+00  0.00000000000E+00  0.25306923994E+03  0.25306923994E+03  0.00000000000E+00 0. -1.
         21   -1    0    0  501  502 -0.00000000000E+00 -0.00000000000E+00 -0.20519634624E+03  0.20519634624E+03  0.00000000000E+00 0. -1.
      99926    2    1    2    0    0  0.00000000000E+00  0.00000000000E+00  0.47872893697E+02  0.45826558618E+03  0.45575819634E+03 0.  0.
      99925    2    3    3    0    0  0.10059586287E+03 -0.48468110088E+01  0.83386912932E+02  0.29379135457E+03  0.26309116968E+03 0.  0.
         25    1    4    4    0    0  0.59042312237E+02 -0.26209650484E+02  0.76159481412E+02  0.16006472167E+03  0.12509000000E+03 0.  0.
         25    1    4    4    0    0  0.41553550631E+02  0.21362839475E+02  0.72274315191E+01  0.13372663290E+03  0.12509000000E+03 0.  0.
         25    1    3    3    0    0 -0.10059586287E+03  0.48468110088E+01 -0.35514019234E+02  0.16447423162E+03  0.12509000000E+03 0.  0.
<mgrwt>
<rscale>  2 0.45575820E+03</rscale>
<asrwt>0</asrwt>
<pdfrwt beam="1">  1       21 0.37216065E-01 0.45575820E+03</pdfrwt>
<pdfrwt beam="2">  1       21 0.30175933E-01 0.45575820E+03</pdfrwt>
<totfact> 0.67895538E+04</totfact>
</mgrwt>
</event>
<event>
 7    0  0.4712189E-002  0.4470940E+03  0.7546771E-02  0.1028592E+00
         21   -1    0    0  502  501  0.00000000000E+00  0.00000000000E+00  0.67511472230E+03  0.67511472230E+03  0.00000000000E+00 0.  1.
         21   -1    0    0  501  502 -0.00000000000E+00 -0.00000000000E+00 -0.74021894062E+02  0.74021894062E+02  0.00000000000E+00 0.  1.
      99926    2    1    2    0    0  0.00000000000E+00  0.00000000000E+00  0.60109282824E+03  0.74913661636E+03  0.44709404136E+03 0.  0.
      99925    2    3    3    0    0 -0.32431626694E+02  0.10034012533E+03  0.39189332824E+03  0.48355820975E+03  0.26292244167E+03 0.  0.
         25    1    4    4    0    0 -0.29966294934E+02  0.13332892371E+02  0.20540052438E+03  0.24271923773E+03  0.12509000000E+03 0.  0.
         25    1    4    4    0    0 -0.24653317599E+01  0.87007232960E+02  0.18649280387E+03  0.24083897202E+03  0.12509000000E+03 0.  0.
         25    1    3    3    0    0  0.32431626694E+02 -0.10034012533E+03  0.20919949999E+03  0.26557840661E+03  0.12509000000E+03 0.  0.
<mgrwt>
<rscale>  2 0.44709404E+03</rscale>
<asrwt>0</asrwt>
<pdfrwt beam="1">  1       21 0.99281574E-01 0.44709404E+03</pdfrwt>
<pdfrwt beam="2">  1       21 0.10885573E-01 0.44709404E+03</pdfrwt>
<totfact> 0.53566732E+04</totfact>
</mgrwt>
</event>
<event>
 7    0  0.4712189E-002  0.4570872E+03  0.7546771E-02  0.1025629E+00
         21   -1    0    0  502  501  0.00000000000E+00  0.00000000000E+00  0.20339905043E+03  0.20339905043E+03  0.00000000000E+00 0. -1.
         21   -1    0    0  501  502 -0.00000000000E+00 -0.00000000000E+00 -0.25679653866E+03  0.25679653866E+03  0.00000000000E+00 0. -1.
      99926    2    1    2    0    0  0.00000000000E+00  0.71054273576E-14 -0.53397488231E+02  0.46019558909E+03  0.45708717820E+03 0.  0.
      99925    2    3    3    0    0  0.95613345284E+02  0.51842830505E+02 -0.71898616449E+02  0.29340413033E+03  0.26284402557E+03 0.  0.
         25    1    3    3    0    0 -0.95613345284E+02 -0.51842830505E+02  0.18501128218E+02  0.16679145876E+03  0.12509000000E+03 0.  0.
         25    1    4    4    0    0  0.68233386147E+02  0.15923514891E+01 -0.62267500492E+02  0.15550910033E+03  0.12509000000E+03 0.  0.
         25    1    4    4    0    0  0.27379959137E+02  0.50250479016E+02 -0.96311159562E+01  0.13789503000E+03  0.12509000000E+03 0.  0.
<mgrwt>
<rscale>  2 0.45708718E+03</rscale>
<asrwt>0</asrwt>
<pdfrwt beam="1">  1       21 0.29911625E-01 0.45708718E+03</pdfrwt>
<pdfrwt beam="2">  1       21 0.37764197E-01 0.45708718E+03</pdfrwt>
<totfact> 0.67043329E+04</totfact>
</mgrwt>
</event>
<event>
 7    0  0.4712189E-002  0.4559950E+03  0.7546771E-02  0.1025949E+00
         21   -1    0    0  502  501  0.00000000000E+00  0.00000000000E+00  0.93530032674E+03  0.93530032674E+03  0.00000000000E+00 0. -1.
         21   -1    0    0  501  502 -0.00000000000E+00 -0.00000000000E+00 -0.55578786214E+02  0.55578786214E+02  0.00000000000E+00 0. -1.
      99926    2    1    2    0    0  0.00000000000E+00  0.00000000000E+00  0.87972154052E+03  0.99087911295E+03  0.45599498640E+03 0.  0.
      99925    2    3    3    0    0 -0.36008943740E+02  0.82078294043E+02  0.39971166629E+03  0.48680523161E+03  0.26301411935E+03 0.  0.
         25    1    4    4    0    0 -0.44757295984E+02  0.45923783174E+02  0.15345914466E+03  0.20810916987E+03  0.12509000000E+03 0.  0.
         25    1    4    4    0    0  0.87483522439E+01  0.36154510869E+02  0.24625252163E+03  0.27869606174E+03  0.12509000000E+03 0.  0.
         25    1    3    3    0    0  0.36008943740E+02 -0.82078294043E+02  0.48000987424E+03  0.50407388134E+03  0.12509000000E+03 0.  0.
<mgrwt>
<rscale>  2 0.45599499E+03</rscale>
<asrwt>0</asrwt>
<pdfrwt beam="1">  1       21 0.13754416E+00 0.45599499E+03</pdfrwt>
<pdfrwt beam="2">  1       21 0.81733515E-02 0.45599499E+03</pdfrwt>
<totfact> 0.39217722E+04</totfact>
</mgrwt>
</event>
<event>
 7    0  0.4712189E-002  0.4545181E+03  0.7546771E-02  0.1026383E+00
         21   -1    0    0  502  501  0.00000000000E+00  0.00000000000E+00  0.33823827924E+03  0.33823827924E+03  0.00000000000E+00 0. -1.
         21   -1    0    0  501  502 -0.00000000000E+00 -0.00000000000E+00 -0.15269316185E+03  0.15269316185E+03  0.00000000000E+00 0. -1.
      99926    2    1    2    0    0  0.11934897515E-14  0.14210854715E-13  0.18554511739E+03  0.49093144109E+03  0.45451808464E+03 0.  0.
      99925    2    3    3    0    0  0.20685881910E+00  0.11108054536E+03  0.94643567622E+02  0.30053834721E+03  0.26272982872E+03 0.  0.
         25    1    3    3    0    0 -0.20685881910E+00 -0.11108054536E+03  0.90901549766E+02  0.19039309388E+03  0.12509000000E+03 0.  0.
         25    1    4    4    0    0 -0.33831504804E+02  0.70135872578E+02  0.31675110669E+02  0.15071307865E+03  0.12509000000E+03 0.  0.
         25    1    4    4    0    0  0.34038363623E+02  0.40944672783E+02  0.62968456953E+02  0.14982526856E+03  0.12509000000E+03 0.  0.
<mgrwt>
<rscale>  2 0.45451808E+03</rscale>
<asrwt>0</asrwt>
<pdfrwt beam="1">  1       21 0.49740923E-01 0.45451808E+03</pdfrwt>
<pdfrwt beam="2">  1       21 0.22454877E-01 0.45451808E+03</pdfrwt>
<totfact> 0.66165337E+04</totfact>
</mgrwt>
</event>
<event>
 7    0  0.4712189E-002  0.4513298E+03  0.7546771E-02  0.1027326E+00
         21   -1    0    0  502  501  0.00000000000E+00  0.00000000000E+00  0.15296147269E+03  0.15296147269E+03  0.00000000000E+00 0. -1.
         21   -1    0    0  501  502 -0.00000000000E+00 -0.00000000000E+00 -0.33292472008E+03  0.33292472008E+03  0.00000000000E+00 0. -1.
      99926    2    1    2    0    0  0.00000000000E+00  0.00000000000E+00 -0.17996324739E+03  0.48588619277E+03  0.45132983717E+03 0.  0.
      99925    2    3    3    0    0 -0.14531708636E+02 -0.10191839523E+03 -0.70908714656E+02  0.29059428549E+03  0.26233273357E+03 0.  0.
         25    1    3    3    0    0  0.14531708636E+02  0.10191839523E+03 -0.10905453273E+03  0.19529190729E+03  0.12509000000E+03 0.  0.
         25    1    4    4    0    0 -0.17465586591E+02 -0.78829315745E+02 -0.67083938133E+02  0.16329994057E+03  0.12509000000E+03 0.  0.
         25    1    4    4    0    0  0.29338779547E+01 -0.23089079486E+02 -0.38247765226E+01  0.12729434491E+03  0.12509000000E+03 0.  0.
<mgrwt>
<rscale>  2 0.45132984E+03</rscale>
<asrwt>0</asrwt>
<pdfrwt beam="1">  1       21 0.22494335E-01 0.45132984E+03</pdfrwt>
<pdfrwt beam="2">  1       21 0.48959517E-01 0.45132984E+03</pdfrwt>
<totfact> 0.68240757E+04</totfact>
</mgrwt>
</event>
<event>
 7    0  0.4712189E-002  0.4581966E+03  0.7546771E-02  0.1025306E+00
         21   -1    0    0  502  501  0.00000000000E+00  0.00000000000E+00  0.85596351043E+03  0.85596351043E+03  0.00000000000E+00 0. -1.
         21   -1    0    0  501  502 -0.00000000000E+00 -0.00000000000E+00 -0.61318077358E+02  0.61318077358E+02  0.00000000000E+00 0. -1.
      99926    2    1    2    0    0  0.00000000000E+00  0.00000000000E+00  0.79464543308E+03  0.91728158779E+03  0.45819662482E+03 0.  0.
      99925    2    3    3    0    0 -0.42555771087E+02 -0.18946467215E+02  0.71156019103E+03  0.76005363920E+03  0.26304689074E+03 0.  0.
         25    1    4    4    0    0 -0.19707817585E+02 -0.16911792108E+02  0.47008277632E+03  0.48713420274E+03  0.12509000000E+03 0.  0.
         25    1    4    4    0    0 -0.22847953502E+02 -0.20346751072E+01  0.24147741471E+03  0.27291943646E+03  0.12509000000E+03 0.  0.
         25    1    3    3    0    0  0.42555771087E+02  0.18946467215E+02  0.83085242043E+02  0.15722794859E+03  0.12509000000E+03 0.  0.
<mgrwt>
<rscale>  2 0.45819662E+03</rscale>
<asrwt>0</asrwt>
<pdfrwt beam="1">  1       21 0.12587698E+00 0.45819662E+03</pdfrwt>
<pdfrwt beam="2">  1       21 0.90173648E-02 0.45819662E+03</pdfrwt>
<totfact> 0.41448157E+04</totfact>
</mgrwt>
</event>
<event>
 6    0  0.4712189E-002  0.4750972E+03  0.7546771E-02  0.1020491E+00
         21   -1    0    0  502  501  0.00000000000E+00  0.00000000000E+00  0.21742279897E+03  0.21742279897E+03  0.00000000000E+00 0.  1.
         21   -1    0    0  501  502 -0.00000000000E+00 -0.00000000000E+00 -0.25953739626E+03  0.25953739626E+03  0.00000000000E+00 0.  1.
      99926    2    1    2    0    0  0.00000000000E+00  0.14210854715E-13 -0.42114597295E+02  0.47696019523E+03  0.47509724113E+03 0.  0.
         25    1    3    3    0    0  0.15124515716E+02  0.19686471342E+02 -0.36730651662E+02  0.13271381616E+03  0.12509000000E+03 0.  0.
         25    1    3    3    0    0 -0.77979551196E+02 -0.86121847890E+02  0.52841195531E+02  0.17871061282E+03  0.12509000000E+03 0.  0.
         25    1    3    3    0    0  0.62855035480E+02  0.66435376549E+02 -0.58225141164E+02  0.16553576624E+03  0.12509000000E+03 0.  0.
<mgrwt>
<rscale>  2 0.47509724E+03</rscale>
<asrwt>0</asrwt>
<pdfrwt beam="1">  1       21 0.31973941E-01 0.47509724E+03</pdfrwt>
<pdfrwt beam="2">  1       21 0.38167264E-01 0.47509724E+03</pdfrwt>
<totfact> 0.57224755E+04</totfact>
</mgrwt>
</event>
<event>
 7    0  0.4712189E-002  0.4596186E+03  0.7546771E-02  0.1024892E+00
         21   -1    0    0  502  501  0.00000000000E+00  0.00000000000E+00  0.58814414327E+03  0.58814414327E+03  0.00000000000E+00 0.  1.
         21   -1    0    0  501  502 -0.00000000000E+00 -0.00000000000E+00 -0.89794831765E+02  0.89794831765E+02  0.00000000000E+00 0.  1.
      99926    2    1    2    0    0  0.71054273576E-14  0.00000000000E+00  0.49834931151E+03  0.67793897504E+03  0.45961855663E+03 0.  0.
      99925    2    3    3    0    0  0.42723397919E+02  0.97294448503E+02  0.38603573337E+03  0.47905874381E+03  0.26302508272E+03 0.  0.
         25    1    3    3    0    0 -0.42723397919E+02 -0.97294448503E+02  0.11231357814E+03  0.19888023123E+03  0.12509000000E+03 0.  0.
         25    1    4    4    0    0  0.42057754752E+02  0.18250563008E+02  0.21462834854E+03  0.25261586229E+03  0.12509000000E+03 0.  0.
         25    1    4    4    0    0  0.66564316689E+00  0.79043885495E+02  0.17140738483E+03  0.22644288152E+03  0.12509000000E+03 0.  0.
<mgrwt>
<rscale>  2 0.45961856E+03</rscale>
<asrwt>0</asrwt>
<pdfrwt beam="1">  1       21 0.86491784E-01 0.45961856E+03</pdfrwt>
<pdfrwt beam="2">  1       21 0.13205123E-01 0.45961856E+03</pdfrwt>
<totfact> 0.52191892E+04</totfact>
</mgrwt>
</event>
<event>
 7    0  0.4712189E-002  0.4649622E+03  0.7546771E-02  0.1023352E+00
         21   -1    0    0  502  501  0.00000000000E+00  0.00000000000E+00  0.52716311332E+03  0.52716311332E+03  0.00000000000E+00 0. -1.
         21   -1    0    0  501  502 -0.00000000000E+00 -0.00000000000E+00 -0.10252511378E+03  0.10252511378E+03  0.00000000000E+00 0. -1.
      99926    2    1    2    0    0  0.00000000000E+00  0.14210854715E-13  0.42463799953E+03  0.62968822710E+03  0.46496218416E+03 0.  0.
      99925    2    3    3    0    0 -0.59364542203E+02  0.96715005576E+02  0.20332048068E+03  0.35128762828E+03  0.26303201087E+03 0.  0.
         25    1    3    3    0    0  0.59364542203E+02 -0.96715005576E+02  0.22131751885E+03  0.27840059882E+03  0.12509000000E+03 0.  0.
         25    1    4    4    0    0 -0.37954621910E+02  0.14207697686E+02  0.66983260030E+02  0.14756922857E+03  0.12509000000E+03 0.  0.
         25    1    4    4    0    0 -0.21409920293E+02  0.82507307890E+02  0.13633722065E+03  0.20371839970E+03  0.12509000000E+03 0.  0.
<mgrwt>
<rscale>  2 0.46496218E+03</rscale>
<asrwt>0</asrwt>
<pdfrwt beam="1">  1       21 0.77523986E-01 0.46496218E+03</pdfrwt>
<pdfrwt beam="2">  1       21 0.15077223E-01 0.46496218E+03</pdfrwt>
<totfact> 0.52624516E+04</totfact>
</mgrwt>
</event>
<event>
 7    0  0.4712189E-002  0.4581379E+03  0.7546771E-02  0.1025323E+00
         21   -1    0    0  502  501  0.00000000000E+00  0.00000000000E+00  0.58139397826E+03  0.58139397826E+03  0.00000000000E+00 0. -1.
         21   -1    0    0  501  502 -0.00000000000E+00 -0.00000000000E+00 -0.90253041934E+02  0.90253041934E+02  0.00000000000E+00 0. -1.
      99926    2    1    2    0    0  0.00000000000E+00  0.00000000000E+00  0.49114093632E+03  0.67164702019E+03  0.45813786178E+03 0.  0.
      99925    2    3    3    0    0  0.31589018864E+02  0.10498097487E+03  0.36471327812E+03  0.46272040136E+03  0.26282222775E+03 0.  0.
         25    1    4    4    0    0  0.37372676701E+01  0.42480278891E+02  0.11509652599E+03  0.17525198903E+03  0.12509000000E+03 0.  0.
         25    1    3    3    0    0 -0.31589018864E+02 -0.10498097487E+03  0.12642765820E+03  0.20892661883E+03  0.12509000000E+03 0.  0.
         25    1    4    4    0    0  0.27851751194E+02  0.62500695981E+02  0.24961675213E+03  0.28746841233E+03  0.12509000000E+03 0.  0.
<mgrwt>
<rscale>  2 0.45813786E+03</rscale>
<asrwt>0</asrwt>
<pdfrwt beam="1">  1       21 0.85499112E-01 0.45813786E+03</pdfrwt>
<pdfrwt beam="2">  1       21 0.13272506E-01 0.45813786E+03</pdfrwt>
<totfact> 0.53142964E+04</totfact>
</mgrwt>
</event>
<event>
 7    0  0.4712189E-002  0.4552743E+03  0.7546771E-02  0.1026161E+00
         21   -1    0    0  502  501  0.00000000000E+00  0.00000000000E+00  0.91808167702E+02  0.91808167702E+02  0.00000000000E+00 0. -1.
         21   -1    0    0  501  502 -0.00000000000E+00 -0.00000000000E+00 -0.56442326631E+03  0.56442326631E+03  0.00000000000E+00 0. -1.
      99926    2    1    2    0    0  0.00000000000E+00 -0.71054273576E-14 -0.47261509860E+03  0.65623143401E+03  0.45527427289E+03 0.  0.
      99925    2    3    3    0    0 -0.56096952328E+02  0.54239563831E+02 -0.17860972955E+03  0.32733104867E+03  0.26297410821E+03 0.  0.
         25    1    4    4    0    0  0.49921875033E+01  0.80102047916E+00 -0.81273411142E+02  0.14925963630E+03  0.12509000000E+03 0.  0.
         25    1    4    4    0    0 -0.61089139831E+02  0.53438543352E+02 -0.97336318408E+02  0.17807141237E+03  0.12509000000E+03 0.  0.
         25    1    3    3    0    0  0.56096952328E+02 -0.54239563831E+02 -0.29400536906E+03  0.32890038534E+03  0.12509000000E+03 0.  0.
<mgrwt>
<rscale>  2 0.45527427E+03</rscale>
<asrwt>0</asrwt>
<pdfrwt beam="1">  1       21 0.13501201E-01 0.45527427E+03</pdfrwt>
<pdfrwt beam="2">  1       21 0.83003422E-01 0.45527427E+03</pdfrwt>
<totfact> 0.55224361E+04</totfact>
</mgrwt>
</event>
<event>
 7    0  0.4712189E-002  0.4515262E+03  0.7546771E-02  0.1027268E+00
         21   -1    0    0  502  501  0.00000000000E+00  0.00000000000E+00  0.63398425008E+03  0.63398425008E+03  0.00000000000E+00 0. -1.
         21   -1    0    0  501  502 -0.00000000000E+00 -0.00000000000E+00 -0.80394709591E+02  0.80394709591E+02  0.00000000000E+00 0. -1.
      99926    2    1    2    0    0  0.00000000000E+00  0.00000000000E+00  0.55358954049E+03  0.71437895967E+03  0.45152621040E+03 0.  0.
      99925    2    3    3    0    0  0.81268427110E+02  0.64465105552E+02  0.29210551535E+03  0.40651257537E+03  0.26299531319E+03 0.  0.
         25    1    3    3    0    0 -0.81268427110E+02 -0.64465105552E+02  0.26148402514E+03  0.30786638430E+03  0.12509000000E+03 0.  0.
         25    1    4    4    0    0  0.50051748475E+02  0.55521502559E+02  0.20153259404E+03  0.24869802840E+03  0.12509000000E+03 0.  0.
         25    1    4    4    0    0  0.31216678635E+02  0.89436029925E+01  0.90572921306E+02  0.15781454696E+03  0.12509000000E+03 0.  0.
<mgrwt>
<rscale>  2 0.45152621E+03</rscale>
<asrwt>0</asrwt>
<pdfrwt beam="1">  1       21 0.93232976E-01 0.45152621E+03</pdfrwt>
<pdfrwt beam="2">  1       21 0.11822752E-01 0.45152621E+03</pdfrwt>
<totfact> 0.53578451E+04</totfact>
</mgrwt>
</event>
<event>
 7    0  0.4712189E-002  0.4538674E+03  0.7546771E-02  0.1026575E+00
         21   -1    0    0  502  501  0.00000000000E+00  0.00000000000E+00  0.24869318112E+03  0.24869318112E+03  0.00000000000E+00 0. -1.
         21   -1    0    0  501  502 -0.00000000000E+00 -0.00000000000E+00 -0.20707809905E+03  0.20707809905E+03  0.00000000000E+00 0. -1.
      99926    2    1    2    0    0 -0.35527136788E-14  0.00000000000E+00  0.41615082069E+02  0.45577128018E+03  0.45386743084E+03 0.  0.
      99925    2    3    3    0    0 -0.14270578725E+02 -0.93466929704E+02  0.86560108710E+02  0.29265389948E+03  0.26308541597E+03 0.  0.
         25    1    3    3    0    0  0.14270578725E+02  0.93466929704E+02 -0.44945026641E+02  0.16311738070E+03  0.12509000000E+03 0.  0.
         25    1    4    4    0    0  0.31134839853E+02 -0.60679169457E+02  0.46271639342E+02  0.14979957465E+03  0.12509000000E+03 0.  0.
         25    1    4    4    0    0 -0.45405418578E+02 -0.32787760247E+02  0.40288469368E+02  0.14285432483E+03  0.12509000000E+03 0.  0.
<mgrwt>
<rscale>  2 0.45386743E+03</rscale>
<asrwt>0</asrwt>
<pdfrwt beam="1">  1       21 0.36572527E-01 0.45386743E+03</pdfrwt>
<pdfrwt beam="2">  1       21 0.30452662E-01 0.45386743E+03</pdfrwt>
<totfact> 0.69111750E+04</totfact>
</mgrwt>
</event>
<event>
 7    0  0.4712189E-002  0.4451142E+03  0.7546771E-02  0.1029189E+00
         21   -1    0    0  502  501  0.00000000000E+00  0.00000000000E+00  0.11810321605E+03  0.11810321605E+03  0.00000000000E+00 0. -1.
         21   -1    0    0  501  502 -0.00000000000E+00 -0.00000000000E+00 -0.41939293172E+03  0.41939293172E+03  0.00000000000E+00 0. -1.
      99926    2    1    2    0    0  0.00000000000E+00  0.17763568394E-14 -0.30128971567E+03  0.53749614777E+03  0.44511416074E+03 0.  0.
      99925    2    3    3    0    0  0.42235652518E+02 -0.11984032321E+02 -0.78166482585E+02  0.27796011439E+03  0.26310522385E+03 0.  0.
         25    1    3    3    0    0 -0.42235652518E+02  0.11984032321E+02 -0.22312323309E+03  0.25953603337E+03  0.12509000000E+03 0.  0.
         25    1    4    4    0    0  0.49932815979E+01 -0.13686713058E+02 -0.76642120049E+02  0.14742381640E+03  0.12509000000E+03 0.  0.
         25    1    4    4    0    0  0.37242370920E+02  0.17026807372E+01 -0.15243625368E+01  0.13053629800E+03  0.12509000000E+03 0.  0.
<mgrwt>
<rscale>  2 0.44511416E+03</rscale>
<asrwt>0</asrwt>
<pdfrwt beam="1">  1       21 0.17368120E-01 0.44511416E+03</pdfrwt>
<pdfrwt beam="2">  1       21 0.61675432E-01 0.44511416E+03</pdfrwt>
<totfact> 0.67855603E+04</totfact>
</mgrwt>
</event>
<event>
 7    0  0.4712189E-002  0.4472420E+03  0.7546771E-02  0.1028548E+00
         21   -1    0    0  502  501  0.00000000000E+00  0.00000000000E+00  0.56543098257E+02  0.56543098257E+02  0.00000000000E+00 0.  1.
         21   -1    0    0  501  502 -0.00000000000E+00 -0.00000000000E+00 -0.88439349698E+03  0.88439349698E+03  0.00000000000E+00 0.  1.
      99926    2    1    2    0    0  0.00000000000E+00  0.00000000000E+00 -0.82785039873E+03  0.94093659524E+03  0.44724198550E+03 0.  0.
      99925    2    3    3    0    0  0.44429849989E+02  0.76103516573E+02 -0.40280974073E+03  0.48919239123E+03  0.26322566670E+03 0.  0.
         25    1    4    4    0    0  0.57825107075E+02  0.22718709728E+02 -0.18036390611E+03  0.22811955091E+03  0.12509000000E+03 0.  0.
         25    1    3    3    0    0 -0.44429849989E+02 -0.76103516573E+02 -0.42504065800E+03  0.45174420401E+03  0.12509000000E+03 0.  0.
         25    1    4    4    0    0 -0.13395257086E+02  0.53384806845E+02 -0.22244583462E+03  0.26107284032E+03  0.12509000000E+03 0.  0.
<mgrwt>
<rscale>  2 0.44724199E+03</rscale>
<asrwt>0</asrwt>
<pdfrwt beam="1">  1       21 0.83151616E-02 0.44724199E+03</pdfrwt>
<pdfrwt beam="2">  1       21 0.13005787E+00 0.44724199E+03</pdfrwt>
<totfact> 0.44127025E+04</totfact>
</mgrwt>
</event>
<event>
 7    0  0.4712189E-002  0.4397784E+03  0.7546771E-02  0.1030815E+00
         21   -1    0    0  502  501  0.00000000000E+00  0.00000000000E+00  0.44988708554E+02  0.44988708554E+02  0.00000000000E+00 0. -1.
         21   -1    0    0  501  502 -0.00000000000E+00 -0.00000000000E+00 -0.10747423507E+04  0.10747423507E+04  0.00000000000E+00 0. -1.
      99926    2    1    2    0    0  0.00000000000E+00 -0.14210854715E-13 -0.10297536422E+04  0.11197310593E+04  0.43977844598E+03 0.  0.
      99925    2    3    3    0    0 -0.73671824446E+02  0.64475104518E+02 -0.67527428506E+03  0.73128840002E+03  0.26306422621E+03 0.  0.
         25    1    4    4    0    0 -0.12461628030E+02 -0.16494835711E+01 -0.27596526573E+03  0.30325294551E+03  0.12509000000E+03 0.  0.
         25    1    3    3    0    0  0.73671824446E+02 -0.64475104518E+02 -0.35447935711E+03  0.38844265926E+03  0.12509000000E+03 0.  0.
         25    1    4    4    0    0 -0.61210196416E+02  0.66124588090E+02 -0.39930901933E+03  0.42803545451E+03  0.12509000000E+03 0.  0.
<mgrwt>
<rscale>  2 0.43977845E+03</rscale>
<asrwt>0</asrwt>
<pdfrwt beam="1">  1       21 0.66159859E-02 0.43977845E+03</pdfrwt>
<pdfrwt beam="2">  1       21 0.15805036E+00 0.43977845E+03</pdfrwt>
<totfact> 0.39266012E+04</totfact>
</mgrwt>
</event>
<event>
 7    0  0.4712189E-002  0.4507799E+03  0.7546771E-02  0.1027490E+00
         21   -1    0    0  502  501  0.00000000000E+00  0.00000000000E+00  0.12471079243E+03  0.12471079243E+03  0.00000000000E+00 0. -1.
         21   -1    0    0  501  502 -0.00000000000E+00 -0.00000000000E+00 -0.40734755179E+03  0.40734755179E+03  0.00000000000E+00 0. -1.
      99926    2    1    2    0    0 -0.14210854715E-13  0.00000000000E+00 -0.28263675936E+03  0.53205834422E+03  0.45077992847E+03 0.  0.
      99925    2    3    3    0    0  0.99547138495E+02  0.12318858044E+02 -0.22945724736E+03  0.36312949635E+03  0.26296580711E+03 0.  0.
         25    1    4    4    0    0  0.20307992678E+02  0.23677634116E+02 -0.76369497674E+02  0.14984276158E+03  0.12509000000E+03 0.  0.
         25    1    4    4    0    0  0.79239145817E+02 -0.11358776072E+02 -0.15308774968E+03  0.21328673476E+03  0.12509000000E+03 0.  0.
         25    1    3    3    0    0 -0.99547138495E+02 -0.12318858044E+02 -0.53179512004E+02  0.16892884787E+03  0.12509000000E+03 0.  0.
<mgrwt>
<rscale>  2 0.45077993E+03</rscale>
<asrwt>0</asrwt>
<pdfrwt beam="1">  1       21 0.18339822E-01 0.45077993E+03</pdfrwt>
<pdfrwt beam="2">  1       21 0.59904053E-01 0.45077993E+03</pdfrwt>
<totfact> 0.65219331E+04</totfact>
</mgrwt>
</event>
<event>
 7    0  0.4712189E-002  0.4552960E+03  0.7546771E-02  0.1026154E+00
         21   -1    0    0  502  501  0.00000000000E+00  0.00000000000E+00  0.32324897517E+02  0.32324897517E+02  0.00000000000E+00 0. -1.
         21   -1    0    0  501  502 -0.00000000000E+00 -0.00000000000E+00 -0.16032101373E+04  0.16032101373E+04  0.00000000000E+00 0. -1.
      99926    2    1    2    0    0  0.00000000000E+00  0.00000000000E+00 -0.15708852398E+04  0.16355350348E+04  0.45529596259E+03 0.  0.
      99925    2    3    3    0    0  0.37703659843E+02  0.93871209403E+02 -0.80395151331E+03  0.85190998492E+03  0.26301942274E+03 0.  0.
         25    1    4    4    0    0 -0.63477028043E+01  0.16532274627E+02 -0.41315159518E+03  0.43203629262E+03  0.12509000000E+03 0.  0.
         25    1    3    3    0    0 -0.37703659843E+02 -0.93871209403E+02 -0.76693372648E+03  0.78362504990E+03  0.12509000000E+03 0.  0.
         25    1    4    4    0    0  0.44051362647E+02  0.77338934776E+02 -0.39079991813E+03  0.41987369231E+03  0.12509000000E+03 0.  0.
<mgrwt>
<rscale>  2 0.45529596E+03</rscale>
<asrwt>0</asrwt>
<pdfrwt beam="1">  1       21 0.47536613E-02 0.45529596E+03</pdfrwt>
<pdfrwt beam="2">  1       21 0.23576620E+00 0.45529596E+03</pdfrwt>
<totfact> 0.20591188E+04</totfact>
</mgrwt>
</event>
<event>
 7    0  0.4712189E-002  0.4534355E+03  0.7546771E-02  0.1026702E+00
         21   -1    0    0  502  501  0.00000000000E+00  0.00000000000E+00  0.12357989442E+03  0.12357989442E+03  0.00000000000E+00 0.  1.
         21   -1    0    0  501  502 -0.00000000000E+00 -0.00000000000E+00 -0.41593283526E+03  0.41593283526E+03  0.00000000000E+00 0.  1.
      99926    2    1    2    0    0  0.00000000000E+00  0.00000000000E+00 -0.29235294085E+03  0.53951272968E+03  0.45343548986E+03 0.  0.
      99925    2    3    3    0    0 -0.54857788697E+02  0.85287585036E+02 -0.23995061795E+03  0.37017029351E+03  0.26299505319E+03 0.  0.
         25    1    4    4    0    0  0.76851600595E+01  0.44083621238E+02 -0.14238602022E+03  0.19474011965E+03  0.12509000000E+03 0.  0.
         25    1    4    4    0    0 -0.62542948756E+02  0.41203963797E+02 -0.97564597739E+02  0.17543017387E+03  0.12509000000E+03 0.  0.
         25    1    3    3    0    0  0.54857788697E+02 -0.85287585036E+02 -0.52402322894E+02  0.16934243617E+03  0.12509000000E+03 0.  0.
<mgrwt>
<rscale>  2 0.45343549E+03</rscale>
<asrwt>0</asrwt>
<pdfrwt beam="1">  1       21 0.18173513E-01 0.45343549E+03</pdfrwt>
<pdfrwt beam="2">  1       21 0.61166595E-01 0.45343549E+03</pdfrwt>
<totfact> 0.63345563E+04</totfact>
</mgrwt>
</event>
<event>
 7    0  0.4712189E-002  0.4542468E+03  0.7546771E-02  0.1026463E+00
         21   -1    0    0  502  501  0.00000000000E+00  0.00000000000E+00  0.11433523679E+04  0.11433523679E+04  0.00000000000E+00 0. -1.
         21   -1    0    0  501  502 -0.00000000000E+00 -0.00000000000E+00 -0.45117354068E+02  0.45117354068E+02  0.00000000000E+00 0. -1.
      99926    2    1    2    0    0  0.00000000000E+00  0.17763568394E-14  0.10982350138E+04  0.11884697220E+04  0.45424677701E+03 0.  0.
      99925    2    3    3    0    0 -0.10923411278E+03  0.14891074074E+02  0.63342134447E+03  0.69465488743E+03  0.26299995726E+03 0.  0.
         25    1    4    4    0    0 -0.52739475509E+02  0.24715324196E+02  0.22784723530E+03  0.26637224003E+03  0.12509000000E+03 0.  0.
         25    1    4    4    0    0 -0.56494637274E+02 -0.98242501225E+01  0.40557410917E+03  0.42828264740E+03  0.12509000000E+03 0.  0.
         25    1    3    3    0    0  0.10923411278E+03 -0.14891074074E+02  0.46481366935E+03  0.49381483453E+03  0.12509000000E+03 0.  0.
<mgrwt>
<rscale>  2 0.45424678E+03</rscale>
<asrwt>0</asrwt>
<pdfrwt beam="1">  1       21 0.16814003E+00 0.45424678E+03</pdfrwt>
<pdfrwt beam="2">  1       21 0.66349058E-02 0.45424678E+03</pdfrwt>
<totfact> 0.32715101E+04</totfact>
</mgrwt>
</event>
<event>
 7    0  0.4712189E-002  0.4578691E+03  0.7546771E-02  0.1025401E+00
         21   -1    0    0  502  501  0.00000000000E+00  0.00000000000E+00  0.22754790326E+02  0.22754790326E+02  0.00000000000E+00 0. -1.
         21   -1    0    0  501  502 -0.00000000000E+00 -0.00000000000E+00 -0.23032966053E+04  0.23032966053E+04  0.00000000000E+00 0. -1.
      99926    2    1    2    0    0  0.00000000000E+00  0.00000000000E+00 -0.22805418150E+04  0.23260513956E+04  0.45786911367E+03 0.  0.
      99925    2    3    3    0    0  0.43059593496E+02  0.62049673546E+02 -0.98858299368E+03  0.10258554894E+04  0.26339866958E+03 0.  0.
         25    1    4    4    0    0  0.12609439017E+02 -0.49192436550E+01 -0.53629139625E+03  0.55085312625E+03  0.12509000000E+03 0.  0.
         25    1    4    4    0    0  0.30450154479E+02  0.66968917201E+02 -0.45229159744E+03  0.47500236314E+03  0.12509000000E+03 0.  0.
         25    1    3    3    0    0 -0.43059593496E+02 -0.62049673546E+02 -0.12919588213E+04  0.13001959062E+04  0.12509000000E+03 0.  0.
<mgrwt>
<rscale>  2 0.45786911E+03</rscale>
<asrwt>0</asrwt>
<pdfrwt beam="1">  1       21 0.33462936E-02 0.45786911E+03</pdfrwt>
<pdfrwt beam="2">  1       21 0.33872000E+00 0.45786911E+03</pdfrwt>
<totfact> 0.88800263E+03</totfact>
</mgrwt>
</event>
<event>
 7    0  0.4712189E-002  0.4535245E+03  0.7546771E-02  0.1026676E+00
         21   -1    0    0  502  501  0.00000000000E+00  0.00000000000E+00  0.42306592928E+02  0.42306592928E+02  0.00000000000E+00 0. -1.
         21   -1    0    0  501  502 -0.00000000000E+00 -0.00000000000E+00 -0.12154398895E+04  0.12154398895E+04  0.00000000000E+00 0. -1.
      99926    2    1    2    0    0 -0.71054273576E-14  0.14210854715E-13 -0.11731332965E+04  0.12577464824E+04  0.45352451150E+03 0.  0.
      99925    2    3    3    0    0  0.45876414932E+02 -0.10061155825E+03 -0.69449375957E+03  0.75082376092E+03  0.26303499154E+03 0.  0.
         25    1    4    4    0    0  0.18283950906E+02 -0.62570395159E+02 -0.45752661795E+03  0.47877705819E+03  0.12509000000E+03 0.  0.
         25    1    4    4    0    0  0.27592464026E+02 -0.38041163090E+02 -0.23696714161E+03  0.27204670273E+03  0.12509000000E+03 0.  0.
         25    1    3    3    0    0 -0.45876414932E+02  0.10061155825E+03 -0.47863953696E+03  0.50692272147E+03  0.12509000000E+03 0.  0.
<mgrwt>
<rscale>  2 0.45352451E+03</rscale>
<asrwt>0</asrwt>
<pdfrwt beam="1">  1       21 0.62215582E-02 0.45352451E+03</pdfrwt>
<pdfrwt beam="2">  1       21 0.17874115E+00 0.45352451E+03</pdfrwt>
<totfact> 0.30718208E+04</totfact>
</mgrwt>
</event>
<event>
 7    0  0.4712189E-002  0.4666810E+03  0.7546771E-02  0.1022861E+00
         21   -1    0    0  502  501  0.00000000000E+00  0.00000000000E+00  0.83804059572E+02  0.83804059572E+02  0.00000000000E+00 0. -1.
         21   -1    0    0  501  502 -0.00000000000E+00 -0.00000000000E+00 -0.64970361509E+03  0.64970361509E+03  0.00000000000E+00 0. -1.
      99926    2    1    2    0    0  0.00000000000E+00  0.00000000000E+00 -0.56589955551E+03  0.73350767466E+03  0.46668104938E+03 0.  0.
      99925    2    3    3    0    0  0.11918979726E+03  0.24143132173E+02 -0.31595725697E+03  0.42869993311E+03  0.26299343303E+03 0.  0.
         25    1    3    3    0    0 -0.11918979726E+03 -0.24143132173E+02 -0.24994229855E+03  0.30480774155E+03  0.12509000000E+03 0.  0.
         25    1    4    4    0    0  0.10019630975E+03  0.85748521773E+01 -0.15236396368E+03  0.22130321757E+03  0.12509000000E+03 0.  0.
         25    1    4    4    0    0  0.18993487508E+02  0.15568279995E+02 -0.16359329328E+03  0.20739671554E+03  0.12509000000E+03 0.  0.
<mgrwt>
<rscale>  2 0.46668105E+03</rscale>
<asrwt>0</asrwt>
<pdfrwt beam="1">  1       21 0.12324127E-01 0.46668105E+03</pdfrwt>
<pdfrwt beam="2">  1       21 0.95544646E-01 0.46668105E+03</pdfrwt>
<totfact> 0.46683358E+04</totfact>
</mgrwt>
</event>
<event>
 7    0  0.4712189E-002  0.4594806E+03  0.7546771E-02  0.1024932E+00
         21   -1    0    0  502  501  0.00000000000E+00  0.00000000000E+00  0.16845656476E+04  0.16845656476E+04  0.00000000000E+00 0. -1.
         21   -1    0    0  501  502 -0.00000000000E+00 -0.00000000000E+00 -0.31331878862E+02  0.31331878862E+02  0.00000000000E+00 0. -1.
      99926    2    1    2    0    0 -0.71054273576E-14  0.00000000000E+00  0.16532337687E+04  0.17158975264E+04  0.45948060592E+03 0.  0.
      99925    2    3    3    0    0 -0.39854644423E+02 -0.45800379328E+02  0.66299055528E+03  0.71593992869E+03  0.26330104003E+03 0.  0.
         25    1    4    4    0    0 -0.16565911266E+02 -0.28496805955E+02  0.43996893927E+03  0.45859205508E+03  0.12509000000E+03 0.  0.
         25    1    3    3    0    0  0.39854644423E+02  0.45800379328E+02  0.99024321344E+03  0.99995759774E+03  0.12509000000E+03 0.  0.
         25    1    4    4    0    0 -0.23288733157E+02 -0.17303573372E+02  0.22302161601E+03  0.25734787361E+03  0.12509000000E+03 0.  0.
<mgrwt>
<rscale>  2 0.45948061E+03</rscale>
<asrwt>0</asrwt>
<pdfrwt beam="1">  1       21 0.24773018E+00 0.45948061E+03</pdfrwt>
<pdfrwt beam="2">  1       21 0.46076304E-02 0.45948061E+03</pdfrwt>
<totfact> 0.18288355E+04</totfact>
</mgrwt>
</event>
<event>
 7    0  0.4712189E-002  0.4554269E+03  0.7546771E-02  0.1026116E+00
         21   -1    0    0  502  501  0.00000000000E+00  0.00000000000E+00  0.16205197119E+04  0.16205197119E+04  0.00000000000E+00 0. -1.
         21   -1    0    0  501  502 -0.00000000000E+00 -0.00000000000E+00 -0.31998009577E+02  0.31998009577E+02  0.00000000000E+00 0. -1.
      99926    2    1    2    0    0  0.00000000000E+00  0.00000000000E+00  0.15885217024E+04  0.16525177215E+04  0.45542685587E+03 0.  0.
      99925    2    3    3    0    0  0.69820325750E+02 -0.85837475319E+02  0.10917918667E+04  0.11284652549E+04  0.26302357538E+03 0.  0.
         25    1    3    3    0    0 -0.69820325750E+02  0.85837475319E+02  0.49672983564E+03  0.52405246662E+03  0.12509000000E+03 0.  0.
         25    1    4    4    0    0  0.88683031663E+01 -0.58906653602E+02  0.64577346199E+03  0.66046916124E+03  0.12509000000E+03 0.  0.
         25    1    4    4    0    0  0.60952022583E+02 -0.26930821717E+02  0.44601840474E+03  0.46799609366E+03  0.12509000000E+03 0.  0.
<mgrwt>
<rscale>  2 0.45542686E+03</rscale>
<asrwt>0</asrwt>
<pdfrwt beam="1">  1       21 0.23831167E+00 0.45542686E+03</pdfrwt>
<pdfrwt beam="2">  1       21 0.47055907E-02 0.45542686E+03</pdfrwt>
<totfact> 0.20201581E+04</totfact>
</mgrwt>
</event>
<event>
 6    0  0.4712189E-002  0.4537888E+03  0.7546771E-02  0.1026598E+00
         21   -1    0    0  502  501  0.00000000000E+00  0.00000000000E+00  0.14220825277E+03  0.14220825277E+03  0.00000000000E+00 0. -1.
         21   -1    0    0  501  502 -0.00000000000E+00 -0.00000000000E+00 -0.36201179255E+03  0.36201179255E+03  0.00000000000E+00 0. -1.
      99926    2    1    2    0    0 -0.14210854715E-13  0.00000000000E+00 -0.21980353978E+03  0.50422004532E+03  0.45378878127E+03 0.  0.
         25    1    3    3    0    0 -0.16687083691E+01  0.64196205717E+02 -0.81991620334E+02  0.16276999515E+03  0.12509000000E+03 0.  0.
         25    1    3    3    0    0  0.72767174301E+02  0.16991069337E+02 -0.81222429283E+02  0.16681831198E+03  0.12509000000E+03 0.  0.
         25    1    3    3    0    0 -0.71098465932E+02 -0.81187275054E+02 -0.56589490163E+02  0.17463173820E+03  0.12509000000E+03 0.  0.
<mgrwt>
<rscale>  2 0.45378878E+03</rscale>
<asrwt>0</asrwt>
<pdfrwt beam="1">  1       21 0.20912979E-01 0.45378878E+03</pdfrwt>
<pdfrwt beam="2">  1       21 0.53237027E-01 0.45378878E+03</pdfrwt>
<totfact> 0.65603633E+04</totfact>
</mgrwt>
</event>
<event>
 7    0  0.4712189E-002  0.4266720E+03  0.7546771E-02  0.1034916E+00
         21   -1    0    0  502  501  0.00000000000E+00  0.00000000000E+00  0.23564509243E+03  0.23564509243E+03  0.00000000000E+00 0.  1.
         21   -1    0    0  501  502 -0.00000000000E+00 -0.00000000000E+00 -0.19313898131E+03  0.19313898131E+03  0.00000000000E+00 0.  1.
      99926    2    1    2    0    0  0.00000000000E+00  0.88817841970E-15  0.42506111121E+02  0.42878407374E+03  0.42667201972E+03 0.  0.
      99925    2    3    3    0    0  0.61229439979E+02 -0.50256328592E+01 -0.29844281009E+02  0.27176054478E+03  0.26303766134E+03 0.  0.
         25    1    4    4    0    0  0.29685274272E+02 -0.14472843609E+02 -0.53964072336E+02  0.14017955598E+03  0.12509000000E+03 0.  0.
         25    1    4    4    0    0  0.31544165707E+02  0.94472107500E+01  0.24119791327E+02  0.13158098880E+03  0.12509000000E+03 0.  0.
         25    1    3    3    0    0 -0.61229439979E+02  0.50256328592E+01  0.72350392130E+02  0.15702352896E+03  0.12509000000E+03 0.  0.
<mgrwt>
<rscale>  2 0.42667202E+03</rscale>
<asrwt>0</asrwt>
<pdfrwt beam="1">  1       21 0.34653690E-01 0.42667202E+03</pdfrwt>
<pdfrwt beam="2">  1       21 0.28402791E-01 0.42667202E+03</pdfrwt>
<totfact> 0.88985219E+04</totfact>
</mgrwt>
</event>
<event>
 7    0  0.4712189E-002  0.4528119E+03  0.7546771E-02  0.1026887E+00
         21   -1    0    0  502  501  0.00000000000E+00  0.00000000000E+00  0.12084704330E+03  0.12084704330E+03  0.00000000000E+00 0. -1.
         21   -1    0    0  501  502 -0.00000000000E+00 -0.00000000000E+00 -0.42416960783E+03  0.42416960783E+03  0.00000000000E+00 0. -1.
      99926    2    1    2    0    0  0.00000000000E+00  0.14210854715E-13 -0.30332256453E+03  0.54501665113E+03  0.45281185039E+03 0.  0.
      99925    2    3    3    0    0  0.70661595706E+02 -0.73573562144E+02 -0.24434010784E+03  0.37316622648E+03  0.26295401524E+03 0.  0.
         25    1    4    4    0    0  0.37568632254E+02 -0.78551901533E+02 -0.13809678760E+03  0.20566972118E+03  0.12509000000E+03 0.  0.
         25    1    4    4    0    0  0.33092963451E+02  0.49783393889E+01 -0.10624332024E+03  0.16749650530E+03  0.12509000000E+03 0.  0.
         25    1    3    3    0    0 -0.70661595706E+02  0.73573562144E+02 -0.58982456689E+02  0.17185042465E+03  0.12509000000E+03 0.  0.
<mgrwt>
<rscale>  2 0.45281185E+03</rscale>
<asrwt>0</asrwt>
<pdfrwt beam="1">  1       21 0.17771624E-01 0.45281185E+03</pdfrwt>
<pdfrwt beam="2">  1       21 0.62377883E-01 0.45281185E+03</pdfrwt>
<totfact> 0.63285688E+04</totfact>
</mgrwt>
</event>
<event>
 7    0  0.4712189E-002  0.4492748E+03  0.7546771E-02  0.1027939E+00
         21   -1    0    0  502  501  0.00000000000E+00  0.00000000000E+00  0.11879733907E+04  0.11879733907E+04  0.00000000000E+00 0. -1.
         21   -1    0    0  501  502 -0.00000000000E+00 -0.00000000000E+00 -0.42477349250E+02  0.42477349250E+02  0.00000000000E+00 0. -1.
      99926    2    1    2    0    0 -0.71054273576E-14  0.00000000000E+00  0.11454960414E+04  0.12304507399E+04  0.44927479616E+03 0.  0.
      99925    2    3    3    0    0  0.40113355037E+02  0.99106823519E+02  0.68960022139E+03  0.74576553225E+03  0.26303330591E+03 0.  0.
         25    1    3    3    0    0 -0.40113355037E+02 -0.99106823519E+02  0.45589582003E+03  0.48468520768E+03  0.12509000000E+03 0.  0.
         25    1    4    4    0    0 -0.65011340524E+01  0.17252735466E+02  0.33781887148E+03  0.36070627892E+03  0.12509000000E+03 0.  0.
         25    1    4    4    0    0  0.46614489089E+02  0.81854088053E+02  0.35178134991E+03  0.38505925332E+03  0.12509000000E+03 0.  0.
<mgrwt>
<rscale>  2 0.44927480E+03</rscale>
<asrwt>0</asrwt>
<pdfrwt beam="1">  1       21 0.17470195E+00 0.44927480E+03</pdfrwt>
<pdfrwt beam="2">  1       21 0.62466697E-02 0.44927480E+03</pdfrwt>
<totfact> 0.32633908E+04</totfact>
</mgrwt>
</event>
<event>
 7    0  0.4712189E-002  0.4552944E+03  0.7546771E-02  0.1026155E+00
         21   -1    0    0  502  501  0.00000000000E+00  0.00000000000E+00  0.33915262004E+03  0.33915262004E+03  0.00000000000E+00 0.  1.
         21   -1    0    0  501  502 -0.00000000000E+00 -0.00000000000E+00 -0.15280214213E+03  0.15280214213E+03  0.00000000000E+00 0.  1.
      99926    2    1    2    0    0  0.00000000000E+00  0.00000000000E+00  0.18635047791E+03  0.49195476217E+03  0.45529439641E+03 0.  0.
      99925    2    3    3    0    0  0.96700281285E+02 -0.39869278227E+02  0.69850799523E+02  0.29155469503E+03  0.26302947031E+03 0.  0.
         25    1    3    3    0    0 -0.96700281285E+02  0.39869278227E+02  0.11649967839E+03  0.20040006714E+03  0.12509000000E+03 0.  0.
         25    1    4    4    0    0  0.33786790917E+02 -0.41509750842E+02  0.66605772005E+02  0.15148743717E+03  0.12509000000E+03 0.  0.
         25    1    4    4    0    0  0.62913490368E+02  0.16404726150E+01  0.32450275180E+01  0.14006725786E+03  0.12509000000E+03 0.  0.
<mgrwt>
<rscale>  2 0.45529440E+03</rscale>
<asrwt>0</asrwt>
<pdfrwt beam="1">  1       21 0.49875385E-01 0.45529440E+03</pdfrwt>
<pdfrwt beam="2">  1       21 0.22470903E-01 0.45529440E+03</pdfrwt>
<totfact> 0.65685987E+04</totfact>
</mgrwt>
</event>
<event>
 7    0  0.4712189E-002  0.4524005E+03  0.7546771E-02  0.1027009E+00
         21   -1    0    0  502  501  0.00000000000E+00  0.00000000000E+00  0.25387131013E+03  0.25387131013E+03  0.00000000000E+00 0.  1.
         21   -1    0    0  501  502 -0.00000000000E+00 -0.00000000000E+00 -0.20154524302E+03  0.20154524302E+03  0.00000000000E+00 0.  1.
      99926    2    1    2    0    0  0.71054273576E-14 -0.71054273576E-14  0.52326067111E+02  0.45541655315E+03  0.45240050794E+03 0.  0.
      99925    2    3    3    0    0  0.39994556583E+02 -0.25792596790E+02 -0.67614262933E+02  0.27570007234E+03  0.26300954114E+03 0.  0.
         25    1    4    4    0    0  0.40096442223E+02 -0.41784833705E+02 -0.56936121831E+02  0.14914062852E+03  0.12509000000E+03 0.  0.
         25    1    3    3    0    0 -0.39994556583E+02  0.25792596790E+02  0.11994033004E+03  0.17971648081E+03  0.12509000000E+03 0.  0.
         25    1    4    4    0    0 -0.10188563993E+00  0.15992236915E+02 -0.10678141101E+02  0.12655944382E+03  0.12509000000E+03 0.  0.
<mgrwt>
<rscale>  2 0.45240051E+03</rscale>
<asrwt>0</asrwt>
<pdfrwt beam="1">  1       21 0.37334016E-01 0.45240051E+03</pdfrwt>
<pdfrwt beam="2">  1       21 0.29639006E-01 0.45240051E+03</pdfrwt>
<totfact> 0.69954833E+04</totfact>
</mgrwt>
</event>
<event>
 7    0  0.4712189E-002  0.4475968E+03  0.7546771E-02  0.1028441E+00
         21   -1    0    0  502  501  0.00000000000E+00  0.00000000000E+00  0.80838682788E+03  0.80838682788E+03  0.00000000000E+00 0.  1.
         21   -1    0    0  501  502 -0.00000000000E+00 -0.00000000000E+00 -0.61957615903E+02  0.61957615903E+02  0.00000000000E+00 0.  1.
      99926    2    1    2    0    0  0.00000000000E+00  0.17763568394E-14  0.74642921197E+03  0.87034444378E+03  0.44759678543E+03 0.  0.
      99925    2    3    3    0    0  0.38994173916E+02  0.95982985566E+01  0.66382383859E+03  0.71515478966E+03  0.26300496489E+03 0.  0.
         25    1    4    4    0    0  0.23745682516E+02  0.23417139598E+02  0.43140055659E+03  0.45040666979E+03  0.12509000000E+03 0.  0.
         25    1    3    3    0    0 -0.38994173916E+02 -0.95982985566E+01  0.82605373385E+02  0.15518965412E+03  0.12509000000E+03 0.  0.
         25    1    4    4    0    0  0.15248491400E+02 -0.13818841042E+02  0.23242328200E+03  0.26474811986E+03  0.12509000000E+03 0.  0.
<mgrwt>
<rscale>  2 0.44759679E+03</rscale>
<asrwt>0</asrwt>
<pdfrwt beam="1">  1       21 0.11888041E+00 0.44759679E+03</pdfrwt>
<pdfrwt beam="2">  1       21 0.91114146E-02 0.44759679E+03</pdfrwt>
<totfact> 0.47220095E+04</totfact>
</mgrwt>
</event>
<event>
 7    0  0.4712189E-002  0.4589440E+03  0.7546771E-02  0.1025088E+00
         21   -1    0    0  502  501  0.00000000000E+00  0.00000000000E+00  0.84008208905E+02  0.84008208905E+02  0.00000000000E+00 0. -1.
         21   -1    0    0  501  502 -0.00000000000E+00 -0.00000000000E+00 -0.62681263323E+03  0.62681263323E+03  0.00000000000E+00 0. -1.
      99926    2    1    2    0    0 -0.71054273576E-14  0.00000000000E+00 -0.54280442432E+03  0.71082084213E+03  0.45894403422E+03 0.  0.
      99925    2    3    3    0    0  0.44018647103E+02  0.84648384021E+02 -0.44482977251E+03  0.52548457826E+03  0.26297818400E+03 0.  0.
         25    1    4    4    0    0  0.87874793069E+00  0.71095376881E+02 -0.19356550656E+03  0.24118548513E+03  0.12509000000E+03 0.  0.
         25    1    3    3    0    0 -0.44018647103E+02 -0.84648384021E+02 -0.97974651810E+02  0.18533626388E+03  0.12509000000E+03 0.  0.
         25    1    4    4    0    0  0.43139899172E+02  0.13553007140E+02 -0.25126426596E+03  0.28429909312E+03  0.12509000000E+03 0.  0.
<mgrwt>
<rscale>  2 0.45894403E+03</rscale>
<asrwt>0</asrwt>
<pdfrwt beam="1">  1       21 0.12354148E-01 0.45894403E+03</pdfrwt>
<pdfrwt beam="2">  1       21 0.92178329E-01 0.45894403E+03</pdfrwt>
<totfact> 0.50726926E+04</totfact>
</mgrwt>
</event>
<event>
 7    0  0.4712189E-002  0.4479652E+03  0.7546771E-02  0.1028331E+00
         21   -1    0    0  502  501  0.00000000000E+00  0.00000000000E+00  0.11637969742E+04  0.11637969742E+04  0.00000000000E+00 0. -1.
         21   -1    0    0  501  502 -0.00000000000E+00 -0.00000000000E+00 -0.43107355499E+02  0.43107355499E+02  0.00000000000E+00 0. -1.
      99926    2    1    2    0    0  0.00000000000E+00  0.00000000000E+00  0.11206896187E+04  0.12069043297E+04  0.44796522140E+03 0.  0.
      99925    2    3    3    0    0  0.37595718288E+02 -0.99424022602E+02  0.72055176653E+03  0.77440417578E+03  0.26307490361E+03 0.  0.
         25    1    4    4    0    0  0.11540757836E+02 -0.36014276633E+02  0.44948353636E+03  0.46809526250E+03  0.12509000000E+03 0.  0.
         25    1    3    3    0    0 -0.37595718288E+02  0.99424022602E+02  0.40013785219E+03  0.43250015394E+03  0.12509000000E+03 0.  0.
         25    1    4    4    0    0  0.26054960452E+02 -0.63409745969E+02  0.27106823017E+03  0.30630891328E+03  0.12509000000E+03 0.  0.
<mgrwt>
<rscale>  2 0.44796522E+03</rscale>
<asrwt>0</asrwt>
<pdfrwt beam="1">  1       21 0.17114659E+00 0.44796522E+03</pdfrwt>
<pdfrwt beam="2">  1       21 0.63393177E-02 0.44796522E+03</pdfrwt>
<totfact> 0.33749672E+04</totfact>
</mgrwt>
</event>
<event>
 7    0  0.4712189E-002  0.4528160E+03  0.7546771E-02  0.1026886E+00
         21   -1    0    0  502  501  0.00000000000E+00  0.00000000000E+00  0.28325512599E+03  0.28325512599E+03  0.00000000000E+00 0. -1.
         21   -1    0    0  501  502 -0.00000000000E+00 -0.00000000000E+00 -0.18096968154E+03  0.18096968154E+03  0.00000000000E+00 0. -1.
      99926    2    1    2    0    0  0.00000000000E+00 -0.14210854715E-13  0.10228544445E+03  0.46422480754E+03  0.45281603305E+03 0.  0.
      99925    2    3    3    0    0 -0.68365548626E+01 -0.11089487376E+03  0.61797978849E+02  0.29208778514E+03  0.26296743626E+03 0.  0.
         25    1    3    3    0    0  0.68365548626E+01  0.11089487376E+03  0.40487465598E+02  0.17213702239E+03  0.12509000000E+03 0.  0.
         25    1    4    4    0    0  0.21539938193E+01 -0.40248900759E+02 -0.88938803212E+01  0.13172404074E+03  0.12509000000E+03 0.  0.
         25    1    4    4    0    0 -0.89905486820E+01 -0.70645972996E+02  0.70691859170E+02  0.16036374440E+03  0.12509000000E+03 0.  0.
<mgrwt>
<rscale>  2 0.45281603E+03</rscale>
<asrwt>0</asrwt>
<pdfrwt beam="1">  1       21 0.41655166E-01 0.45281603E+03</pdfrwt>
<pdfrwt beam="2">  1       21 0.26613188E-01 0.45281603E+03</pdfrwt>
<totfact> 0.69056603E+04</totfact>
</mgrwt>
</event>
<event>
 7    0  0.4712189E-002  0.4422956E+03  0.7546771E-02  0.1030045E+00
         21   -1    0    0  502  501  0.00000000000E+00  0.00000000000E+00  0.73971764118E+02  0.73971764118E+02  0.00000000000E+00 0.  1.
         21   -1    0    0  501  502 -0.00000000000E+00 -0.00000000000E+00 -0.66114894990E+03  0.66114894990E+03  0.00000000000E+00 0.  1.
      99926    2    1    2    0    0  0.00000000000E+00  0.35527136788E-14 -0.58717718578E+03  0.73512071402E+03  0.44229562136E+03 0.  0.
      99925    2    3    3    0    0  0.77495626281E+02 -0.17038439776E+02 -0.27048740383E+03  0.38549833685E+03  0.26296321332E+03 0.  0.
         25    1    3    3    0    0 -0.77495626281E+02  0.17038439776E+02 -0.31668978195E+03  0.34962237716E+03  0.12509000000E+03 0.  0.
         25    1    4    4    0    0  0.19280127231E+01 -0.19357638086E+01 -0.98077634690E+02  0.15897859900E+03  0.12509000000E+03 0.  0.
         25    1    4    4    0    0  0.75567613558E+02 -0.15102675968E+02 -0.17240976914E+03  0.22651973785E+03  0.12509000000E+03 0.  0.
<mgrwt>
<rscale>  2 0.44229562E+03</rscale>
<asrwt>0</asrwt>
<pdfrwt beam="1">  1       21 0.10878201E-01 0.44229562E+03</pdfrwt>
<pdfrwt beam="2">  1       21 0.97227788E-01 0.44229562E+03</pdfrwt>
<totfact> 0.56470020E+04</totfact>
</mgrwt>
</event>
<event>
 7    0  0.4712189E-002  0.4408976E+03  0.7546771E-02  0.1030472E+00
         21   -1    0    0  502  501  0.00000000000E+00  0.00000000000E+00  0.11030660332E+03  0.11030660332E+03  0.00000000000E+00 0.  1.
         21   -1    0    0  501  502 -0.00000000000E+00 -0.00000000000E+00 -0.44056899087E+03  0.44056899087E+03  0.00000000000E+00 0.  1.
      99926    2    1    2    0    0  0.00000000000E+00  0.71054273576E-14 -0.33026238755E+03  0.55087559420E+03  0.44089757955E+03 0.  0.
      99925    2    3    3    0    0 -0.37331052127E+02 -0.50149521876E+02 -0.30703869038E+03  0.40911724274E+03  0.26305052541E+03 0.  0.
         25    1    4    4    0    0 -0.19066174634E+02  0.16255878269E+02 -0.14342019234E+03  0.19194955657E+03  0.12509000000E+03 0.  0.
         25    1    3    3    0    0  0.37331052127E+02  0.50149521876E+02 -0.23223697168E+02  0.14175835146E+03  0.12509000000E+03 0.  0.
         25    1    4    4    0    0 -0.18264877493E+02 -0.66405400145E+02 -0.16361849804E+03  0.21716768617E+03  0.12509000000E+03 0.  0.
<mgrwt>
<rscale>  2 0.44089758E+03</rscale>
<asrwt>0</asrwt>
<pdfrwt beam="1">  1       21 0.16221559E-01 0.44089758E+03</pdfrwt>
<pdfrwt beam="2">  1       21 0.64789558E-01 0.44089758E+03</pdfrwt>
<totfact> 0.69213793E+04</totfact>
</mgrwt>
</event>
<event>
 7    0  0.4712189E-002  0.4559315E+03  0.7546771E-02  0.1025968E+00
         21   -1    0    0  502  501  0.00000000000E+00  0.00000000000E+00  0.15451440819E+04  0.15451440819E+04  0.00000000000E+00 0.  1.
         21   -1    0    0  501  502 -0.00000000000E+00 -0.00000000000E+00 -0.33633352066E+02  0.33633352066E+02  0.00000000000E+00 0.  1.
      99926    2    1    2    0    0  0.00000000000E+00  0.00000000000E+00  0.15115107299E+04  0.15787774340E+04  0.45593146371E+03 0.  0.
      99925    2    3    3    0    0 -0.29204783847E+02  0.11008394887E+03  0.92465271553E+03  0.96802279236E+03  0.26289558191E+03 0.  0.
         25    1    4    4    0    0 -0.52862594295E+02  0.53757820917E+02  0.51828773971E+03  0.53847381220E+03  0.12509000000E+03 0.  0.
         25    1    3    3    0    0  0.29204783847E+02 -0.11008394887E+03  0.58685801435E+03  0.61075464165E+03  0.12509000000E+03 0.  0.
         25    1    4    4    0    0  0.23657810448E+02  0.56326127950E+02  0.40636497582E+03  0.42954898016E+03  0.12509000000E+03 0.  0.
<mgrwt>
<rscale>  2 0.45593146E+03</rscale>
<asrwt>0</asrwt>
<pdfrwt beam="1">  1       21 0.22722702E+00 0.45593146E+03</pdfrwt>
<pdfrwt beam="2">  1       21 0.49460822E-02 0.45593146E+03</pdfrwt>
<totfact> 0.21754955E+04</totfact>
</mgrwt>
</event>
<event>
 7    0  0.4712189E-002  0.4491408E+03  0.7546771E-02  0.1027979E+00
         21   -1    0    0  502  501  0.00000000000E+00  0.00000000000E+00  0.13627982069E+03  0.13627982069E+03  0.00000000000E+00 0. -1.
         21   -1    0    0  501  502 -0.00000000000E+00 -0.00000000000E+00 -0.37006110296E+03  0.37006110296E+03  0.00000000000E+00 0. -1.
      99926    2    1    2    0    0  0.00000000000E+00  0.00000000000E+00 -0.23378128226E+03  0.50634092365E+03  0.44914078308E+03 0.  0.
      99925    2    3    3    0    0 -0.75916960745E+02 -0.76145566603E+02 -0.15174952970E+03  0.32211755713E+03  0.26300241179E+03 0.  0.
         25    1    4    4    0    0 -0.71973325850E+02 -0.51708421691E+02 -0.58247050954E+02  0.16399435220E+03  0.12509000000E+03 0.  0.
         25    1    4    4    0    0 -0.39436348942E+01 -0.24437144912E+02 -0.93502478748E+02  0.15812320494E+03  0.12509000000E+03 0.  0.
         25    1    3    3    0    0  0.75916960745E+02  0.76145566603E+02 -0.82031752560E+02  0.18422336651E+03  0.12509000000E+03 0.  0.
<mgrwt>
<rscale>  2 0.44914078E+03</rscale>
<asrwt>0</asrwt>
<pdfrwt beam="1">  1       21 0.20041150E-01 0.44914078E+03</pdfrwt>
<pdfrwt beam="2">  1       21 0.54420750E-01 0.44914078E+03</pdfrwt>
<totfact> 0.67931792E+04</totfact>
</mgrwt>
</event>
<event>
 7    0  0.4712189E-002  0.4486750E+03  0.7546771E-02  0.1028118E+00
         21   -1    0    0  502  501  0.00000000000E+00  0.00000000000E+00  0.11279795901E+04  0.11279795901E+04  0.00000000000E+00 0.  1.
         21   -1    0    0  501  502 -0.00000000000E+00 -0.00000000000E+00 -0.44617224360E+02  0.44617224360E+02  0.00000000000E+00 0.  1.
      99926    2    1    2    0    0  0.35527136788E-14  0.00000000000E+00  0.10833623657E+04  0.11725968145E+04  0.44867502023E+03 0.  0.
      99925    2    3    3    0    0  0.24131825716E+02 -0.55379389085E+02  0.91652165636E+03  0.95549648707E+03  0.26327242255E+03 0.  0.
         25    1    4    4    0    0  0.47730853801E+02 -0.47925332576E+02  0.45741674672E+03  0.47901217123E+03  0.12509000000E+03 0.  0.
         25    1    3    3    0    0 -0.24131825716E+02  0.55379389085E+02  0.16684070939E+03  0.21710032740E+03  0.12509000000E+03 0.  0.
         25    1    4    4    0    0 -0.23599028085E+02 -0.74540565092E+01  0.45910490964E+03  0.47648431584E+03  0.12509000000E+03 0.  0.
<mgrwt>
<rscale>  2 0.44867502E+03</rscale>
<asrwt>0</asrwt>
<pdfrwt beam="1">  1       21 0.16587933E+00 0.44867502E+03</pdfrwt>
<pdfrwt beam="2">  1       21 0.65613572E-02 0.44867502E+03</pdfrwt>
<totfact> 0.34716466E+04</totfact>
</mgrwt>
</event>
<event>
 7    0  0.4712189E-002  0.4492292E+03  0.7546771E-02  0.1027952E+00
         21   -1    0    0  502  501  0.00000000000E+00  0.00000000000E+00  0.10317233249E+04  0.10317233249E+04  0.00000000000E+00 0.  1.
         21   -1    0    0  501  502 -0.00000000000E+00 -0.00000000000E+00 -0.48900442717E+02  0.48900442717E+02  0.00000000000E+00 0.  1.
      99926    2    1    2    0    0  0.00000000000E+00  0.00000000000E+00  0.98282288218E+03  0.10806237676E+04  0.44922923925E+03 0.  0.
      99925    2    3    3    0    0  0.96325586960E+02 -0.38352245332E+02  0.55070763885E+03  0.61897389482E+03  0.26286929369E+03 0.  0.
         25    1    3    3    0    0 -0.96325586960E+02  0.38352245332E+02  0.43211524333E+03  0.46164987279E+03  0.12509000000E+03 0.  0.
         25    1    4    4    0    0  0.36014375545E+02  0.19805290066E+02  0.24157913301E+03  0.27513136928E+03  0.12509000000E+03 0.  0.
         25    1    4    4    0    0  0.60311211415E+02 -0.58157535399E+02  0.30912850584E+03  0.34384252554E+03  0.12509000000E+03 0.  0.
<mgrwt>
<rscale>  2 0.44922924E+03</rscale>
<asrwt>0</asrwt>
<pdfrwt beam="1">  1       21 0.15172400E+00 0.44922924E+03</pdfrwt>
<pdfrwt beam="2">  1       21 0.71912422E-02 0.44922924E+03</pdfrwt>
<totfact> 0.37849116E+04</totfact>
</mgrwt>
</event>
<event>
 7    0  0.4712189E-002  0.4557501E+03  0.7546771E-02  0.1026021E+00
         21   -1    0    0  502  501  0.00000000000E+00  0.00000000000E+00  0.18182131987E+03  0.18182131987E+03  0.00000000000E+00 0.  1.
         21   -1    0    0  501  502 -0.00000000000E+00 -0.00000000000E+00 -0.28559376135E+03  0.28559376135E+03  0.00000000000E+00 0.  1.
      99926    2    1    2    0    0 -0.17763568394E-14  0.00000000000E+00 -0.10377244148E+03  0.46741508121E+03  0.45575008342E+03 0.  0.
      99925    2    3    3    0    0 -0.11743921130E+02 -0.11296120653E+03 -0.72394146580E+02  0.29557137503E+03  0.26310334739E+03 0.  0.
         25    1    4    4    0    0 -0.29223868384E+02 -0.39995207447E+02 -0.43405323592E+01  0.13461054722E+03  0.12509000000E+03 0.  0.
         25    1    4    4    0    0  0.17479947254E+02 -0.72965999087E+02 -0.68053614221E+02  0.16096082780E+03  0.12509000000E+03 0.  0.
         25    1    3    3    0    0  0.11743921130E+02  0.11296120653E+03 -0.31378294902E+02  0.17184370619E+03  0.12509000000E+03 0.  0.
<mgrwt>
<rscale>  2 0.45575008E+03</rscale>
<asrwt>0</asrwt>
<pdfrwt beam="1">  1       21 0.26738429E-01 0.45575008E+03</pdfrwt>
<pdfrwt beam="2">  1       21 0.41999082E-01 0.45575008E+03</pdfrwt>
<totfact> 0.67227867E+04</totfact>
</mgrwt>
</event>
<event>
 7    0  0.4712189E-002  0.4558138E+03  0.7546771E-02  0.1026002E+00
         21   -1    0    0  502  501  0.00000000000E+00  0.00000000000E+00  0.58767856302E+03  0.58767856302E+03  0.00000000000E+00 0. -1.
         21   -1    0    0  501  502 -0.00000000000E+00 -0.00000000000E+00 -0.88384305664E+02  0.88384305664E+02  0.00000000000E+00 0. -1.
      99926    2    1    2    0    0 -0.88817841970E-15  0.00000000000E+00  0.49929425735E+03  0.67606286868E+03  0.45581382930E+03 0.  0.
      99925    2    3    3    0    0  0.71732520097E+01 -0.11327185328E+03  0.30056357971E+03  0.41524998820E+03  0.26308196244E+03 0.  0.
         25    1    4    4    0    0 -0.25431955452E+02 -0.44398718214E+02  0.18264258114E+03  0.22720882703E+03  0.12509000000E+03 0.  0.
         25    1    4    4    0    0  0.32605207462E+02 -0.68873135068E+02  0.11792099858E+03  0.18804116117E+03  0.12509000000E+03 0.  0.
         25    1    3    3    0    0 -0.71732520097E+01  0.11327185328E+03  0.19873067764E+03  0.26081288048E+03  0.12509000000E+03 0.  0.
<mgrwt>
<rscale>  2 0.45581383E+03</rscale>
<asrwt>0</asrwt>
<pdfrwt beam="1">  1       21 0.86423316E-01 0.45581383E+03</pdfrwt>
<pdfrwt beam="2">  1       21 0.12997692E-01 0.45581383E+03</pdfrwt>
<totfact> 0.53876037E+04</totfact>
</mgrwt>
</event>
<event>
 7    0  0.4712189E-002  0.4791838E+03  0.7546771E-02  0.1019360E+00
         21   -1    0    0  502  501  0.00000000000E+00  0.00000000000E+00  0.19756174207E+03  0.19756174207E+03  0.00000000000E+00 0.  1.
         21   -1    0    0  501  502 -0.00000000000E+00 -0.00000000000E+00 -0.29056372109E+03  0.29056372109E+03  0.00000000000E+00 0.  1.
      99926    2    1    2    0    0  0.00000000000E+00  0.00000000000E+00 -0.93001979016E+02  0.48812546316E+03  0.47918378487E+03 0.  0.
      99925    2    3    3    0    0  0.21110592188E+02  0.88541892179E+02 -0.15842826928E+03  0.32015692048E+03  0.26289848506E+03 0.  0.
         25    1    4    4    0    0 -0.27626091909E+02  0.47001309780E+02 -0.63044486527E+02  0.15031446855E+03  0.12509000000E+03 0.  0.
         25    1    3    3    0    0 -0.21110592188E+02 -0.88541892179E+02  0.65426290267E+02  0.16796854268E+03  0.12509000000E+03 0.  0.
         25    1    4    4    0    0  0.48736684097E+02  0.41540582399E+02 -0.95383782756E+02  0.16984245192E+03  0.12509000000E+03 0.  0.
<mgrwt>
<rscale>  2 0.47918378E+03</rscale>
<asrwt>0</asrwt>
<pdfrwt beam="1">  1       21 0.29053198E-01 0.47918378E+03</pdfrwt>
<pdfrwt beam="2">  1       21 0.42729958E-01 0.47918378E+03</pdfrwt>
<totfact> 0.54808327E+04</totfact>
</mgrwt>
</event>
<event>
 7    0  0.4712189E-002  0.4186206E+03  0.7546771E-02  0.1037516E+00
         21   -1    0    0  502  501  0.00000000000E+00  0.00000000000E+00  0.26890418749E+03  0.26890418749E+03  0.00000000000E+00 0. -1.
         21   -1    0    0  501  502 -0.00000000000E+00 -0.00000000000E+00 -0.16292348295E+03  0.16292348295E+03  0.00000000000E+00 0. -1.
      99926    2    1    2    0    0  0.00000000000E+00  0.71054273576E-14  0.10598070454E+03  0.43182767044E+03  0.41862062446E+03 0.  0.
      99925    2    3    3    0    0  0.86032252828E+01  0.52242088719E+02  0.16094829298E+02  0.26894664028E+03  0.26319194605E+03 0.  0.
         25    1    4    4    0    0  0.28572957778E+02  0.16699296321E+02 -0.23588149625E+02  0.13152638259E+03  0.12509000000E+03 0.  0.
         25    1    4    4    0    0 -0.19969732496E+02  0.35542792398E+02  0.39682978923E+02  0.13742025769E+03  0.12509000000E+03 0.  0.
         25    1    3    3    0    0 -0.86032252828E+01 -0.52242088719E+02  0.89885875245E+02  0.16288103016E+03  0.12509000000E+03 0.  0.
<mgrwt>
<rscale>  2 0.41862062E+03</rscale>
<asrwt>0</asrwt>
<pdfrwt beam="1">  1       21 0.39544734E-01 0.41862062E+03</pdfrwt>
<pdfrwt beam="2">  1       21 0.23959336E-01 0.41862062E+03</pdfrwt>
<totfact> 0.94967203E+04</totfact>
</mgrwt>
</event>
<event>
 6    0  0.4712189E-002  0.4588773E+03  0.7546771E-02  0.1025107E+00
         21   -1    0    0  502  501  0.00000000000E+00  0.00000000000E+00  0.19019911488E+03  0.19019911488E+03  0.00000000000E+00 0. -1.
         21   -1    0    0  501  502 -0.00000000000E+00 -0.00000000000E+00 -0.27677363320E+03  0.27677363320E+03  0.00000000000E+00 0. -1.
      99926    2    1    2    0    0  0.00000000000E+00  0.35527136788E-14 -0.86574518312E+02  0.46697274808E+03  0.45887732590E+03 0.  0.
         25    1    3    3    0    0  0.23404523587E+02 -0.53974355987E+02  0.17353269986E+02  0.13931850885E+03  0.12509000000E+03 0.  0.
         25    1    3    3    0    0 -0.64243184805E+02  0.16850584680E+02 -0.12550783587E+03  0.18923755960E+03  0.12509000000E+03 0.  0.
         25    1    3    3    0    0  0.40838661218E+02  0.37123771308E+02  0.21580047576E+02  0.13841667963E+03  0.12509000000E+03 0.  0.
<mgrwt>
<rscale>  2 0.45887733E+03</rscale>
<asrwt>0</asrwt>
<pdfrwt beam="1">  1       21 0.27970458E-01 0.45887733E+03</pdfrwt>
<pdfrwt beam="2">  1       21 0.40702004E-01 0.45887733E+03</pdfrwt>
<totfact> 0.65618066E+04</totfact>
</mgrwt>
</event>
<event>
 7    0  0.4712189E-002  0.4487902E+03  0.7546771E-02  0.1028083E+00
         21   -1    0    0  502  501  0.00000000000E+00  0.00000000000E+00  0.66437233794E+02  0.66437233794E+02  0.00000000000E+00 0. -1.
         21   -1    0    0  501  502 -0.00000000000E+00 -0.00000000000E+00 -0.75790564419E+03  0.75790564419E+03  0.00000000000E+00 0. -1.
      99926    2    1    2    0    0  0.00000000000E+00 -0.71054273576E-14 -0.69146841039E+03  0.82434287798E+03  0.44879017136E+03 0.  0.
      99925    2    3    3    0    0  0.86975318117E+02  0.50344329200E+02 -0.36746391238E+03  0.46278281343E+03  0.26275263664E+03 0.  0.
         25    1    4    4    0    0  0.21842905074E+02 -0.58776972204E+01 -0.19760149515E+03  0.23495854701E+03  0.12509000000E+03 0.  0.
         25    1    3    3    0    0 -0.86975318117E+02 -0.50344329200E+02 -0.32400449802E+03  0.36156006455E+03  0.12509000000E+03 0.  0.
         25    1    4    4    0    0  0.65132413044E+02  0.56222026420E+02 -0.16986241722E+03  0.22782426642E+03  0.12509000000E+03 0.  0.
<mgrwt>
<rscale>  2 0.44879017E+03</rscale>
<asrwt>0</asrwt>
<pdfrwt beam="1">  1       21 0.97701817E-02 0.44879017E+03</pdfrwt>
<pdfrwt beam="2">  1       21 0.11145671E+00 0.44879017E+03</pdfrwt>
<totfact> 0.48951744E+04</totfact>
</mgrwt>
</event>
<event>
 7    0  0.4712189E-002  0.4458725E+03  0.7546771E-02  0.1028960E+00
         21   -1    0    0  502  501  0.00000000000E+00  0.00000000000E+00  0.96760716537E+02  0.96760716537E+02  0.00000000000E+00 0. -1.
         21   -1    0    0  501  502 -0.00000000000E+00 -0.00000000000E+00 -0.51364408412E+03  0.51364408412E+03  0.00000000000E+00 0. -1.
      99926    2    1    2    0    0  0.00000000000E+00  0.71054273576E-14 -0.41688336758E+03  0.61040480065E+03  0.44587249130E+03 0.  0.
      99925    2    3    3    0    0 -0.87642190746E+02 -0.42224141288E+02 -0.21292288024E+03  0.35211926060E+03  0.26303571820E+03 0.  0.
         25    1    4    4    0    0 -0.28995314965E+02  0.12313278241E+02 -0.12441575696E+03  0.17921811792E+03  0.12509000000E+03 0.  0.
         25    1    3    3    0    0  0.87642190746E+02  0.42224141288E+02 -0.20396048734E+03  0.25828554006E+03  0.12509000000E+03 0.  0.
         25    1    4    4    0    0 -0.58646875781E+02 -0.54537419528E+02 -0.88507123279E+02  0.17290114268E+03  0.12509000000E+03 0.  0.
<mgrwt>
<rscale>  2 0.44587249E+03</rscale>
<asrwt>0</asrwt>
<pdfrwt beam="1">  1       21 0.14229517E-01 0.44587249E+03</pdfrwt>
<pdfrwt beam="2">  1       21 0.75535894E-01 0.44587249E+03</pdfrwt>
<totfact> 0.62422303E+04</totfact>
</mgrwt>
</event>
<event>
 7    0  0.4712189E-002  0.4517912E+03  0.7546771E-02  0.1027189E+00
         21   -1    0    0  502  501  0.00000000000E+00  0.00000000000E+00  0.55172615634E+03  0.55172615634E+03  0.00000000000E+00 0.  1.
         21   -1    0    0  501  502 -0.00000000000E+00 -0.00000000000E+00 -0.92489395041E+02  0.92489395041E+02  0.00000000000E+00 0.  1.
      99926    2    1    2    0    0  0.00000000000E+00  0.00000000000E+00  0.45923676130E+03  0.64421555138E+03  0.45179118375E+03 0.  0.
      99925    2    3    3    0    0  0.99981907258E+02 -0.38659099921E+02  0.32574605684E+03  0.43218210104E+03  0.26302084923E+03 0.  0.
         25    1    4    4    0    0  0.20923671416E+02 -0.30356361230E+02  0.19473085362E+03  0.23436493369E+03  0.12509000000E+03 0.  0.
         25    1    4    4    0    0  0.79058235843E+02 -0.83027386912E+01  0.13101520322E+03  0.19781716735E+03  0.12509000000E+03 0.  0.
         25    1    3    3    0    0 -0.99981907258E+02  0.38659099921E+02  0.13349070446E+03  0.21203345034E+03  0.12509000000E+03 0.  0.
<mgrwt>
<rscale>  2 0.45179118E+03</rscale>
<asrwt>0</asrwt>
<pdfrwt beam="1">  1       21 0.81136198E-01 0.45179118E+03</pdfrwt>
<pdfrwt beam="2">  1       21 0.13601382E-01 0.45179118E+03</pdfrwt>
<totfact> 0.57477435E+04</totfact>
</mgrwt>
</event>
<event>
 7    0  0.4712189E-002  0.4580266E+03  0.7546771E-02  0.1025355E+00
         21   -1    0    0  502  501  0.00000000000E+00  0.00000000000E+00  0.74540036465E+03  0.74540036465E+03  0.00000000000E+00 0. -1.
         21   -1    0    0  501  502 -0.00000000000E+00 -0.00000000000E+00 -0.70360961802E+02  0.70360961802E+02  0.00000000000E+00 0. -1.
      99926    2    1    2    0    0  0.14210854715E-13  0.71054273576E-14  0.67503940285E+03  0.81576132645E+03  0.45802657820E+03 0.  0.
      99925    2    3    3    0    0 -0.88031798725E+02 -0.62891520216E+02  0.34925526972E+03  0.45040157169E+03  0.26301595285E+03 0.  0.
         25    1    4    4    0    0 -0.19209814294E+02 -0.32519366734E+02  0.21767292673E+03  0.25388095105E+03  0.12509000000E+03 0.  0.
         25    1    3    3    0    0  0.88031798725E+02  0.62891520216E+02  0.32578413312E+03  0.36535975476E+03  0.12509000000E+03 0.  0.
         25    1    4    4    0    0 -0.68821984431E+02 -0.30372153482E+02  0.13158234300E+03  0.19652062064E+03  0.12509000000E+03 0.  0.
<mgrwt>
<rscale>  2 0.45802658E+03</rscale>
<asrwt>0</asrwt>
<pdfrwt beam="1">  1       21 0.10961770E+00 0.45802658E+03</pdfrwt>
<pdfrwt beam="2">  1       21 0.10347201E-01 0.45802658E+03</pdfrwt>
<totfact> 0.45911768E+04</totfact>
</mgrwt>
</event>
<event>
 7    0  0.4712189E-002  0.4625553E+03  0.7546771E-02  0.1024043E+00
         21   -1    0    0  502  501  0.00000000000E+00  0.00000000000E+00  0.66535632743E+03  0.66535632743E+03  0.00000000000E+00 0.  1.
         21   -1    0    0  501  502 -0.00000000000E+00 -0.00000000000E+00 -0.80392042421E+02  0.80392042421E+02  0.00000000000E+00 0.  1.
      99926    2    1    2    0    0  0.00000000000E+00  0.00000000000E+00  0.58496428501E+03  0.74574836985E+03  0.46255531172E+03 0.  0.
      99925    2    3    3    0    0 -0.58666464356E+02 -0.58918640691E+02  0.50590432072E+03  0.57600990540E+03  0.26255488786E+03 0.  0.
         25    1    3    3    0    0  0.58666464356E+02  0.58918640691E+02  0.79059964294E+02  0.16973846445E+03  0.12509000000E+03 0.  0.
         25    1    4    4    0    0  0.96336381413E+01 -0.35409062987E+02  0.22112247756E+03  0.25668904711E+03  0.12509000000E+03 0.  0.
         25    1    4    4    0    0 -0.68300102497E+02 -0.23509577704E+02  0.28478184316E+03  0.31932085829E+03  0.12509000000E+03 0.  0.
<mgrwt>
<rscale>  2 0.46255531E+03</rscale>
<asrwt>0</asrwt>
<pdfrwt beam="1">  1       21 0.97846516E-01 0.46255531E+03</pdfrwt>
<pdfrwt beam="2">  1       21 0.11822360E-01 0.46255531E+03</pdfrwt>
<totfact> 0.47598118E+04</totfact>
</mgrwt>
</event>
<event>
 7    0  0.4712189E-002  0.4231553E+03  0.7546771E-02  0.1036044E+00
         21   -1    0    0  502  501  0.00000000000E+00  0.00000000000E+00  0.81975875096E+02  0.81975875096E+02  0.00000000000E+00 0. -1.
         21   -1    0    0  501  502 -0.00000000000E+00 -0.00000000000E+00 -0.54607654405E+03  0.54607654405E+03  0.00000000000E+00 0. -1.
      99926    2    1    2    0    0  0.00000000000E+00 -0.35527136788E-14 -0.46410066895E+03  0.62805241914E+03  0.42315530278E+03 0.  0.
      99925    2    3    3    0    0 -0.39532308701E+02  0.24089963236E+02 -0.39773081248E+03  0.47907055546E+03  0.26301267678E+03 0.  0.
         25    1    4    4    0    0 -0.51543991185E+02 -0.13294416069E+02 -0.20141917148E+03  0.24300352933E+03  0.12509000000E+03 0.  0.
         25    1    3    3    0    0  0.39532308701E+02 -0.24089963236E+02 -0.66369856467E+02  0.14898186369E+03  0.12509000000E+03 0.  0.
         25    1    4    4    0    0  0.12011682484E+02  0.37384379305E+02 -0.19631164100E+03  0.23606702613E+03  0.12509000000E+03 0.  0.
<mgrwt>
<rscale>  2 0.42315530E+03</rscale>
<asrwt>0</asrwt>
<pdfrwt beam="1">  1       21 0.12055276E-01 0.42315530E+03</pdfrwt>
<pdfrwt beam="2">  1       21 0.80305375E-01 0.42315530E+03</pdfrwt>
<totfact> 0.73867279E+04</totfact>
</mgrwt>
</event>
<event>
 7    0  0.4712189E-002  0.4393156E+03  0.7546771E-02  0.1030957E+00
         21   -1    0    0  502  501  0.00000000000E+00  0.00000000000E+00  0.23639736558E+03  0.23639736558E+03  0.00000000000E+00 0.  1.
         21   -1    0    0  501  502 -0.00000000000E+00 -0.00000000000E+00 -0.20410362115E+03  0.20410362115E+03  0.00000000000E+00 0.  1.
      99926    2    1    2    0    0  0.00000000000E+00  0.00000000000E+00  0.32293744425E+02  0.44050098673E+03  0.43931564209E+03 0.  0.
      99925    2    3    3    0    0  0.10651166520E+02 -0.89193075786E+02  0.60316977494E+02  0.28397091995E+03  0.26254998283E+03 0.  0.
         25    1    4    4    0    0  0.24735772279E+01 -0.37090376757E+02 -0.10385627288E+02  0.13090906762E+03  0.12509000000E+03 0.  0.
         25    1    4    4    0    0  0.81775892917E+01 -0.52102699029E+02  0.70702604782E+02  0.15306185232E+03  0.12509000000E+03 0.  0.
         25    1    3    3    0    0 -0.10651166520E+02  0.89193075786E+02 -0.28023233069E+02  0.15653006679E+03  0.12509000000E+03 0.  0.
<mgrwt>
<rscale>  2 0.43931564E+03</rscale>
<asrwt>0</asrwt>
<pdfrwt beam="1">  1       21 0.34764319E-01 0.43931564E+03</pdfrwt>
<pdfrwt beam="2">  1       21 0.30015238E-01 0.43931564E+03</pdfrwt>
<totfact> 0.79061572E+04</totfact>
</mgrwt>
</event>
<event>
 7    0  0.4712189E-002  0.4537238E+03  0.7546771E-02  0.1026617E+00
         21   -1    0    0  502  501  0.00000000000E+00  0.00000000000E+00  0.31822242068E+02  0.31822242068E+02  0.00000000000E+00 0.  1.
         21   -1    0    0  501  502 -0.00000000000E+00 -0.00000000000E+00 -0.16173067721E+04  0.16173067721E+04  0.00000000000E+00 0.  1.
      99926    2    1    2    0    0  0.00000000000E+00  0.00000000000E+00 -0.15854845300E+04  0.16491290142E+04  0.45372382613E+03 0.  0.
      99925    2    3    3    0    0 -0.73543211550E+02  0.79296051050E+02 -0.11069152023E+04  0.11427965373E+04  0.26272836295E+03 0.  0.
         25    1    4    4    0    0 -0.45466298976E+02  0.76108874197E+02 -0.52571670511E+03  0.54761784778E+03  0.12509000000E+03 0.  0.
         25    1    4    4    0    0 -0.28076912574E+02  0.31871768531E+01 -0.58119849723E+03  0.59517868947E+03  0.12509000000E+03 0.  0.
         25    1    3    3    0    0  0.73543211550E+02 -0.79296051050E+02 -0.47856932770E+03  0.50633247693E+03  0.12509000000E+03 0.  0.
<mgrwt>
<rscale>  2 0.45372383E+03</rscale>
<asrwt>0</asrwt>
<pdfrwt beam="1">  1       21 0.46797417E-02 0.45372383E+03</pdfrwt>
<pdfrwt beam="2">  1       21 0.23783922E+00 0.45372383E+03</pdfrwt>
<totfact> 0.20544831E+04</totfact>
</mgrwt>
</event>
<event>
 7    0  0.4712189E-002  0.4795866E+03  0.7546771E-02  0.1019249E+00
         21   -1    0    0  502  501  0.00000000000E+00  0.00000000000E+00  0.78358825341E+02  0.78358825341E+02  0.00000000000E+00 0. -1.
         21   -1    0    0  501  502 -0.00000000000E+00 -0.00000000000E+00 -0.73381416811E+03  0.73381416811E+03  0.00000000000E+00 0. -1.
      99926    2    1    2    0    0 -0.71054273576E-14  0.00000000000E+00 -0.65545534277E+03  0.81217299345E+03  0.47958655624E+03 0.  0.
      99925    2    3    3    0    0 -0.51268481857E+02  0.91004791002E+02 -0.54861584757E+03  0.61730761671E+03  0.26301904157E+03 0.  0.
         25    1    4    4    0    0 -0.44416108151E+02  0.67875551380E+02 -0.22918625375E+03  0.27341128021E+03  0.12509000000E+03 0.  0.
         25    1    3    3    0    0  0.51268481857E+02 -0.91004791002E+02 -0.10683949520E+03  0.19486537674E+03  0.12509000000E+03 0.  0.
         25    1    4    4    0    0 -0.68523737064E+01  0.23129239623E+02 -0.31942959382E+03  0.34389633650E+03  0.12509000000E+03 0.  0.
<mgrwt>
<rscale>  2 0.47958656E+03</rscale>
<asrwt>0</asrwt>
<pdfrwt beam="1">  1       21 0.11523356E-01 0.47958656E+03</pdfrwt>
<pdfrwt beam="2">  1       21 0.10791385E+00 0.47958656E+03</pdfrwt>
<totfact> 0.39078622E+04</totfact>
</mgrwt>
</event>
<event>
 7    0  0.4712189E-002  0.4386950E+03  0.7546771E-02  0.1031148E+00
         21   -1    0    0  502  501  0.00000000000E+00  0.00000000000E+00  0.20852121103E+03  0.20852121103E+03  0.00000000000E+00 0. -1.
         21   -1    0    0  501  502 -0.00000000000E+00 -0.00000000000E+00 -0.23073584662E+03  0.23073584662E+03  0.00000000000E+00 0. -1.
      99926    2    1    2    0    0  0.71054273576E-14 -0.35527136788E-14 -0.22214635594E+02  0.43925705766E+03  0.43869496540E+03 0.  0.
      99925    2    3    3    0    0 -0.34149159404E+02  0.25313762491E+02  0.73372965757E+02  0.27618820934E+03  0.26284859371E+03 0.  0.
         25    1    4    4    0    0 -0.80113905598E+00 -0.34576781578E+01  0.70301046836E+02  0.14353516171E+03  0.12509000000E+03 0.  0.
         25    1    3    3    0    0  0.34149159404E+02 -0.25313762491E+02 -0.95587601351E+02  0.16306884832E+03  0.12509000000E+03 0.  0.
         25    1    4    4    0    0 -0.33348020348E+02  0.28771440649E+02  0.30719189211E+01  0.13265304762E+03  0.12509000000E+03 0.  0.
<mgrwt>
<rscale>  2 0.43869497E+03</rscale>
<asrwt>0</asrwt>
<pdfrwt beam="1">  1       21 0.30664884E-01 0.43869497E+03</pdfrwt>
<pdfrwt beam="2">  1       21 0.33931742E-01 0.43869497E+03</pdfrwt>
<totfact> 0.79574072E+04</totfact>
</mgrwt>
</event>
<event>
 7    0  0.4712189E-002  0.4602403E+03  0.7546771E-02  0.1024712E+00
         21   -1    0    0  502  501  0.00000000000E+00  0.00000000000E+00  0.25331850312E+03  0.25331850312E+03  0.00000000000E+00 0.  1.
         21   -1    0    0  501  502 -0.00000000000E+00 -0.00000000000E+00 -0.20904621494E+03  0.20904621494E+03  0.00000000000E+00 0.  1.
      99926    2    1    2    0    0 -0.35527136788E-14  0.00000000000E+00  0.44272288172E+02  0.46236471806E+03  0.46024026009E+03 0.  0.
      99925    2    3    3    0    0  0.23881361342E+02  0.10896506428E+03 -0.11073031527E+02  0.28585886216E+03  0.26296192195E+03 0.  0.
         25    1    4    4    0    0  0.51432739264E+02  0.47911116152E+02 -0.11700615245E+02  0.14396254449E+03  0.12509000000E+03 0.  0.
         25    1    4    4    0    0 -0.27551377921E+02  0.61053948128E+02  0.62758371772E+00  0.14189631767E+03  0.12509000000E+03 0.  0.
         25    1    3    3    0    0 -0.23881361342E+02 -0.10896506428E+03  0.55345319699E+02  0.17650585590E+03  0.12509000000E+03 0.  0.
<mgrwt>
<rscale>  2 0.46024026E+03</rscale>
<asrwt>0</asrwt>
<pdfrwt beam="1">  1       21 0.37252721E-01 0.46024026E+03</pdfrwt>
<pdfrwt beam="2">  1       21 0.30742091E-01 0.46024026E+03</pdfrwt>
<totfact> 0.65238992E+04</totfact>
</mgrwt>
</event>
<event>
 7    0  0.4712189E-002  0.4539821E+03  0.7546771E-02  0.1026541E+00
         21   -1    0    0  502  501  0.00000000000E+00  0.00000000000E+00  0.25799498954E+03  0.25799498954E+03  0.00000000000E+00 0.  1.
         21   -1    0    0  501  502 -0.00000000000E+00 -0.00000000000E+00 -0.19971295106E+03  0.19971295106E+03  0.00000000000E+00 0.  1.
      99926    2    1    2    0    0  0.00000000000E+00  0.00000000000E+00  0.58282038478E+02  0.45770794059E+03  0.45398211735E+03 0.  0.
      99925    2    3    3    0    0 -0.77485000212E+02 -0.81094555967E+02  0.41366185763E+02  0.28884732814E+03  0.26294745746E+03 0.  0.
         25    1    4    4    0    0 -0.68840884805E+01 -0.65097720831E+02  0.25281017578E+02  0.14342852534E+03  0.12509000000E+03 0.  0.
         25    1    3    3    0    0  0.77485000212E+02  0.81094555967E+02  0.16915852715E+02  0.16886061245E+03  0.12509000000E+03 0.  0.
         25    1    4    4    0    0 -0.70600911732E+02 -0.15996835136E+02  0.16085168185E+02  0.14541880280E+03  0.12509000000E+03 0.  0.
<mgrwt>
<rscale>  2 0.45398212E+03</rscale>
<asrwt>0</asrwt>
<pdfrwt beam="1">  1       21 0.37940440E-01 0.45398212E+03</pdfrwt>
<pdfrwt beam="2">  1       21 0.29369552E-01 0.45398212E+03</pdfrwt>
<totfact> 0.68905554E+04</totfact>
</mgrwt>
</event>
<event>
 7    0  0.4712189E-002  0.4630049E+03  0.7546771E-02  0.1023913E+00
         21   -1    0    0  502  501  0.00000000000E+00  0.00000000000E+00  0.80624105097E+03  0.80624105097E+03  0.00000000000E+00 0. -1.
         21   -1    0    0  501  502 -0.00000000000E+00 -0.00000000000E+00 -0.66473142425E+02  0.66473142425E+02  0.00000000000E+00 0. -1.
      99926    2    1    2    0    0  0.00000000000E+00 -0.14210854715E-13  0.73976790855E+03  0.87271419340E+03  0.46300486481E+03 0.  0.
      99925    2    3    3    0    0  0.34618826601E+02  0.97127575416E+02  0.34476545836E+03  0.44574033844E+03  0.26303801812E+03 0.  0.
         25    1    4    4    0    0 -0.22369622186E+02  0.55945415705E+02  0.17762654268E+03  0.22545284717E+03  0.12509000000E+03 0.  0.
         25    1    4    4    0    0  0.56988448787E+02  0.41182159712E+02  0.16713891568E+03  0.22028749127E+03  0.12509000000E+03 0.  0.
         25    1    3    3    0    0 -0.34618826601E+02 -0.97127575416E+02  0.39500245019E+03  0.42697385496E+03  0.12509000000E+03 0.  0.
<mgrwt>
<rscale>  2 0.46300486E+03</rscale>
<asrwt>0</asrwt>
<pdfrwt beam="1">  1       21 0.11856485E+00 0.46300486E+03</pdfrwt>
<pdfrwt beam="2">  1       21 0.97754626E-02 0.46300486E+03</pdfrwt>
<totfact> 0.41754208E+04</totfact>
</mgrwt>
</event>
<event>
 7    0  0.4712189E-002  0.4515863E+03  0.7546771E-02  0.1027250E+00
         21   -1    0    0  502  501  0.00000000000E+00  0.00000000000E+00  0.41710084470E+03  0.41710084470E+03  0.00000000000E+00 0. -1.
         21   -1    0    0  501  502 -0.00000000000E+00 -0.00000000000E+00 -0.12223073697E+03  0.12223073697E+03  0.00000000000E+00 0. -1.
      99926    2    1    2    0    0  0.17763568394E-14  0.00000000000E+00  0.29487010773E+03  0.53933158167E+03  0.45158628694E+03 0.  0.
      99925    2    3    3    0    0 -0.13885358014E+02 -0.89542558312E+02  0.26046488081E+03  0.38108525263E+03  0.26300825599E+03 0.  0.
         25    1    4    4    0    0  0.22349475684E+02 -0.65671338158E+02  0.16182180264E+03  0.21597691457E+03  0.12509000000E+03 0.  0.
         25    1    3    3    0    0  0.13885358014E+02  0.89542558312E+02  0.34405226925E+02  0.15824632904E+03  0.12509000000E+03 0.  0.
         25    1    4    4    0    0 -0.36234833698E+02 -0.23871220154E+02  0.98643078164E+02  0.16510833805E+03  0.12509000000E+03 0.  0.
<mgrwt>
<rscale>  2 0.45158629E+03</rscale>
<asrwt>0</asrwt>
<pdfrwt beam="1">  1       21 0.61338359E-01 0.45158629E+03</pdfrwt>
<pdfrwt beam="2">  1       21 0.17975109E-01 0.45158629E+03</pdfrwt>
<totfact> 0.64296560E+04</totfact>
</mgrwt>
</event>
<event>
 7    0  0.4712189E-002  0.4660018E+03  0.7546771E-02  0.1023055E+00
         21   -1    0    0  502  501  0.00000000000E+00  0.00000000000E+00  0.38559324326E+03  0.38559324326E+03  0.00000000000E+00 0.  1.
         21   -1    0    0  501  502 -0.00000000000E+00 -0.00000000000E+00 -0.14079453921E+03  0.14079453921E+03  0.00000000000E+00 0.  1.
      99926    2    1    2    0    0  0.00000000000E+00  0.17763568394E-14  0.24479870405E+03  0.52638778246E+03  0.46600181547E+03 0.  0.
      99925    2    3    3    0    0 -0.12219628969E+03  0.15531861736E+02  0.15733832410E+03  0.33025008057E+03  0.26293838736E+03 0.  0.
         25    1    3    3    0    0  0.12219628969E+03 -0.15531861736E+02  0.87460379958E+02  0.19613770189E+03  0.12509000000E+03 0.  0.
         25    1    4    4    0    0 -0.95007207205E+02  0.86634059015E+00  0.11480539855E+03  0.19456337683E+03  0.12509000000E+03 0.  0.
         25    1    4    4    0    0 -0.27189082481E+02  0.14665521146E+02  0.42532925545E+02  0.13568670374E+03  0.12509000000E+03 0.  0.
<mgrwt>
<rscale>  2 0.46600182E+03</rscale>
<asrwt>0</asrwt>
<pdfrwt beam="1">  1       21 0.56704888E-01 0.46600182E+03</pdfrwt>
<pdfrwt beam="2">  1       21 0.20705079E-01 0.46600182E+03</pdfrwt>
<totfact> 0.58205194E+04</totfact>
</mgrwt>
</event>
<event>
 7    0  0.4712189E-002  0.4597417E+03  0.7546771E-02  0.1024856E+00
         21   -1    0    0  502  501  0.00000000000E+00  0.00000000000E+00  0.65522132391E+02  0.65522132391E+02  0.00000000000E+00 0.  1.
         21   -1    0    0  501  502 -0.00000000000E+00 -0.00000000000E+00 -0.80645430646E+03  0.80645430646E+03  0.00000000000E+00 0.  1.
      99926    2    1    2    0    0 -0.53290705182E-14 -0.14210854715E-13 -0.74093217407E+03  0.87197643885E+03  0.45974169197E+03 0.  0.
      99925    2    3    3    0    0  0.13922949414E+02  0.96827848630E+02 -0.58792211743E+03  0.65145644809E+03  0.26300875805E+03 0.  0.
         25    1    4    4    0    0 -0.20645883390E+02  0.22436779390E+02 -0.31356001082E+03  0.33896467375E+03  0.12509000000E+03 0.  0.
         25    1    4    4    0    0  0.34568832804E+02  0.74391069240E+02 -0.27436210661E+03  0.31249177434E+03  0.12509000000E+03 0.  0.
         25    1    3    3    0    0 -0.13922949414E+02 -0.96827848630E+02 -0.15301005664E+03  0.22051999076E+03  0.12509000000E+03 0.  0.
<mgrwt>
<rscale>  2 0.45974169E+03</rscale>
<asrwt>0</asrwt>
<pdfrwt beam="1">  1       21 0.96356080E-02 0.45974169E+03</pdfrwt>
<pdfrwt beam="2">  1       21 0.11859622E+00 0.45974169E+03</pdfrwt>
<totfact> 0.42853562E+04</totfact>
</mgrwt>
</event>
<event>
 7    0  0.4712189E-002  0.5011397E+03  0.7546771E-02  0.1013482E+00
         21   -1    0    0  502  501  0.00000000000E+00  0.00000000000E+00  0.69673450433E+02  0.69673450433E+02  0.00000000000E+00 0. -1.
         21   -1    0    0  501  502 -0.00000000000E+00 -0.00000000000E+00 -0.90113592576E+03  0.90113592576E+03  0.00000000000E+00 0. -1.
      99926    2    1    2    0    0  0.00000000000E+00 -0.17763568394E-14 -0.83146247533E+03  0.97080937619E+03  0.50113969811E+03 0.  0.
      99925    2    3    3    0    0  0.14324861165E+03  0.97919984745E+01 -0.40559463542E+03  0.50430431390E+03  0.26305851966E+03 0.  0.
         25    1    4    4    0    0  0.33865478631E+02 -0.12489684882E+02 -0.20530460707E+03  0.24310564094E+03  0.12509000000E+03 0.  0.
         25    1    3    3    0    0 -0.14324861165E+03 -0.97919984745E+01 -0.42586783991E+03  0.46650506229E+03  0.12509000000E+03 0.  0.
         25    1    4    4    0    0  0.10938313302E+03  0.22281683356E+02 -0.20029002835E+03  0.26119867297E+03  0.12509000000E+03 0.  0.
<mgrwt>
<rscale>  2 0.50113970E+03</rscale>
<asrwt>0</asrwt>
<pdfrwt beam="1">  1       21 0.10246096E-01 0.50113970E+03</pdfrwt>
<pdfrwt beam="2">  1       21 0.13251998E+00 0.50113970E+03</pdfrwt>
<totfact> 0.28533099E+04</totfact>
</mgrwt>
</event>
<event>
 7    0  0.4712189E-002  0.4565806E+03  0.7546771E-02  0.1025778E+00
         21   -1    0    0  502  501  0.00000000000E+00  0.00000000000E+00  0.11500003113E+03  0.11500003113E+03  0.00000000000E+00 0.  1.
         21   -1    0    0  501  502 -0.00000000000E+00 -0.00000000000E+00 -0.45318642961E+03  0.45318642961E+03  0.00000000000E+00 0.  1.
      99926    2    1    2    0    0  0.00000000000E+00  0.00000000000E+00 -0.33818639848E+03  0.56818646073E+03  0.45658056687E+03 0.  0.
      99925    2    3    3    0    0  0.11101346733E+03 -0.28411662286E+02 -0.21872658014E+03  0.36070304264E+03  0.26293374761E+03 0.  0.
         25    1    4    4    0    0  0.52154336062E+02 -0.28196550242E+02 -0.15697145959E+03  0.20929086803E+03  0.12509000000E+03 0.  0.
         25    1    4    4    0    0  0.58859131273E+02 -0.21511204404E+00 -0.61755120549E+02  0.15141217461E+03  0.12509000000E+03 0.  0.
         25    1    3    3    0    0 -0.11101346733E+03  0.28411662286E+02 -0.11945981834E+03  0.20748341809E+03  0.12509000000E+03 0.  0.
<mgrwt>
<rscale>  2 0.45658057E+03</rscale>
<asrwt>0</asrwt>
<pdfrwt beam="1">  1       21 0.16911769E-01 0.45658057E+03</pdfrwt>
<pdfrwt beam="2">  1       21 0.66645063E-01 0.45658057E+03</pdfrwt>
<totfact> 0.59927904E+04</totfact>
</mgrwt>
</event>
<event>
 7    0  0.4712189E-002  0.4536280E+03  0.7546771E-02  0.1026646E+00
         21   -1    0    0  502  501  0.00000000000E+00  0.00000000000E+00  0.23331248480E+03  0.23331248480E+03  0.00000000000E+00 0.  1.
         21   -1    0    0  501  502 -0.00000000000E+00 -0.00000000000E+00 -0.22049656383E+03  0.22049656383E+03  0.00000000000E+00 0.  1.
      99926    2    1    2    0    0  0.88817841970E-15 -0.88817841970E-15  0.12815920969E+02  0.45380904863E+03  0.45362804674E+03 0.  0.
      99925    2    3    3    0    0  0.63045367782E+01 -0.63648433520E+01  0.11963588754E+03  0.28907207108E+03  0.26300125148E+03 0.  0.
         25    1    4    4    0    0 -0.14395128569E+02 -0.12477028574E+02  0.20881502029E+02  0.12824367897E+03  0.12509000000E+03 0.  0.
         25    1    3    3    0    0 -0.63045367782E+01  0.63648433520E+01 -0.10681996657E+03  0.16473697755E+03  0.12509000000E+03 0.  0.
         25    1    4    4    0    0  0.20699665347E+02  0.61121852215E+01  0.98754385507E+02  0.16082839212E+03  0.12509000000E+03 0.  0.
<mgrwt>
<rscale>  2 0.45362805E+03</rscale>
<asrwt>0</asrwt>
<pdfrwt beam="1">  1       21 0.34310660E-01 0.45362805E+03</pdfrwt>
<pdfrwt beam="2">  1       21 0.32425965E-01 0.45362805E+03</pdfrwt>
<totfact> 0.69389621E+04</totfact>
</mgrwt>
</event>
<event>
 7    0  0.4712189E-002  0.4544682E+03  0.7546771E-02  0.1026398E+00
         21   -1    0    0  502  501  0.00000000000E+00  0.00000000000E+00  0.10549194558E+04  0.10549194558E+04  0.00000000000E+00 0.  1.
         21   -1    0    0  501  502 -0.00000000000E+00 -0.00000000000E+00 -0.48947186473E+02  0.48947186473E+02  0.00000000000E+00 0.  1.
      99926    2    1    2    0    0  0.00000000000E+00  0.00000000000E+00  0.10059722693E+04  0.11038666423E+04  0.45446821370E+03 0.  0.
      99925    2    3    3    0    0  0.10732151623E+03  0.17370680763E+02  0.70439192384E+03  0.75974767842E+03  0.26311386148E+03 0.  0.
         25    1    3    3    0    0 -0.10732151623E+03 -0.17370680763E+02  0.30158034547E+03  0.34411896384E+03  0.12509000000E+03 0.  0.
         25    1    4    4    0    0  0.45866161695E+02 -0.13239852798E+02  0.43158366600E+03  0.45187494659E+03  0.12509000000E+03 0.  0.
         25    1    4    4    0    0  0.61455354533E+02  0.30610533561E+02  0.27280825783E+03  0.30787273184E+03  0.12509000000E+03 0.  0.
<mgrwt>
<rscale>  2 0.45446821E+03</rscale>
<asrwt>0</asrwt>
<pdfrwt beam="1">  1       21 0.15513520E+00 0.45446821E+03</pdfrwt>
<pdfrwt beam="2">  1       21 0.71981163E-02 0.45446821E+03</pdfrwt>
<totfact> 0.35507355E+04</totfact>
</mgrwt>
</event>
<event>
 7    0  0.4712189E-002  0.4555291E+03  0.7546771E-02  0.1026086E+00
         21   -1    0    0  502  501  0.00000000000E+00  0.00000000000E+00  0.38431970311E+03  0.38431970311E+03  0.00000000000E+00 0.  1.
         21   -1    0    0  501  502 -0.00000000000E+00 -0.00000000000E+00 -0.13498314711E+03  0.13498314711E+03  0.00000000000E+00 0.  1.
      99926    2    1    2    0    0  0.00000000000E+00  0.17763568394E-14  0.24933655600E+03  0.51930285023E+03  0.45552906833E+03 0.  0.
      99925    2    3    3    0    0  0.11102286286E+03 -0.11708029098E+02  0.12980612268E+03  0.31339465075E+03  0.26249461635E+03 0.  0.
         25    1    3    3    0    0 -0.11102286286E+03  0.11708029098E+02  0.11953043332E+03  0.20590819948E+03  0.12509000000E+03 0.  0.
         25    1    4    4    0    0  0.50526559855E+02  0.66402502193E+01  0.10494539949E+03  0.17104990835E+03  0.12509000000E+03 0.  0.
         25    1    4    4    0    0  0.60496303001E+02 -0.18348279317E+02  0.24860723190E+02  0.14234474240E+03  0.12509000000E+03 0.  0.
<mgrwt>
<rscale>  2 0.45552907E+03</rscale>
<asrwt>0</asrwt>
<pdfrwt beam="1">  1       21 0.56517603E-01 0.45552907E+03</pdfrwt>
<pdfrwt beam="2">  1       21 0.19850463E-01 0.45552907E+03</pdfrwt>
<totfact> 0.63667121E+04</totfact>
</mgrwt>
</event>
<event>
 7    0  0.4712189E-002  0.4525884E+03  0.7546771E-02  0.1026953E+00
         21   -1    0    0  502  501  0.00000000000E+00  0.00000000000E+00  0.83919958871E+03  0.83919958871E+03  0.00000000000E+00 0.  1.
         21   -1    0    0  501  502 -0.00000000000E+00 -0.00000000000E+00 -0.61021330268E+02  0.61021330268E+02  0.00000000000E+00 0.  1.
      99926    2    1    2    0    0 -0.71054273576E-14  0.00000000000E+00  0.77817825844E+03  0.90022091897E+03  0.45258844556E+03 0.  0.
      99925    2    3    3    0    0  0.38116138254E+02 -0.95568916589E+02  0.40906795989E+03  0.49713757969E+03  0.26310248862E+03 0.  0.
         25    1    4    4    0    0  0.33268996908E+01 -0.15443106874E+02  0.22633806990E+03  0.25908683448E+03  0.12509000000E+03 0.  0.
         25    1    3    3    0    0 -0.38116138254E+02  0.95568916589E+02  0.36911029855E+03  0.40308333928E+03  0.12509000000E+03 0.  0.
         25    1    4    4    0    0  0.34789238564E+02 -0.80125809715E+02  0.18272988999E+03  0.23805074521E+03  0.12509000000E+03 0.  0.
<mgrwt>
<rscale>  2 0.45258845E+03</rscale>
<asrwt>0</asrwt>
<pdfrwt beam="1">  1       21 0.12341170E+00 0.45258845E+03</pdfrwt>
<pdfrwt beam="2">  1       21 0.89737255E-02 0.45258845E+03</pdfrwt>
<totfact> 0.44049979E+04</totfact>
</mgrwt>
</event>
<event>
 7    0  0.4712189E-002  0.4575739E+03  0.7546771E-02  0.1025487E+00
         21   -1    0    0  502  501  0.00000000000E+00  0.00000000000E+00  0.45018661873E+03  0.45018661873E+03  0.00000000000E+00 0. -1.
         21   -1    0    0  501  502 -0.00000000000E+00 -0.00000000000E+00 -0.11627061384E+03  0.11627061384E+03  0.00000000000E+00 0. -1.
      99926    2    1    2    0    0  0.00000000000E+00  0.00000000000E+00  0.33391600490E+03  0.56645723257E+03  0.45757392628E+03 0.  0.
      99925    2    3    3    0    0  0.45272437907E+02  0.26819367654E+02  0.82211540674E+02  0.28050003731E+03  0.26296893618E+03 0.  0.
         25    1    4    4    0    0  0.61390677447E+02  0.27625454286E+02  0.43243338695E+02  0.14849065776E+03  0.12509000000E+03 0.  0.
         25    1    4    4    0    0 -0.16118239541E+02 -0.80608663185E+00  0.38968201979E+02  0.13200937954E+03  0.12509000000E+03 0.  0.
         25    1    3    3    0    0 -0.45272437907E+02 -0.26819367654E+02  0.25170446422E+03  0.28595719527E+03  0.12509000000E+03 0.  0.
<mgrwt>
<rscale>  2 0.45757393E+03</rscale>
<asrwt>0</asrwt>
<pdfrwt beam="1">  1       21 0.66203914E-01 0.45757393E+03</pdfrwt>
<pdfrwt beam="2">  1       21 0.17098620E-01 0.45757393E+03</pdfrwt>
<totfact> 0.59570016E+04</totfact>
</mgrwt>
</event>
<event>
 7    0  0.4712189E-002  0.4279113E+03  0.7546771E-02  0.1034522E+00
         21   -1    0    0  502  501  0.00000000000E+00  0.00000000000E+00  0.36536576846E+03  0.36536576846E+03  0.00000000000E+00 0.  1.
         21   -1    0    0  501  502 -0.00000000000E+00 -0.00000000000E+00 -0.12529092769E+03  0.12529092769E+03  0.00000000000E+00 0.  1.
      99926    2    1    2    0    0  0.71054273576E-14  0.71054273576E-14  0.24007484077E+03  0.49065669614E+03  0.42791128087E+03 0.  0.
      99925    2    3    3    0    0  0.32037714584E+02  0.34065337191E+02  0.73210899998E+02  0.27693270314E+03  0.26295441399E+03 0.  0.
         25    1    4    4    0    0  0.24967523252E+02  0.14742729435E+01  0.73991179530E+02  0.14747119531E+03  0.12509000000E+03 0.  0.
         25    1    3    3    0    0 -0.32037714584E+02 -0.34065337191E+02  0.16686394077E+03  0.21372399300E+03  0.12509000000E+03 0.  0.
         25    1    4    4    0    0  0.70701913321E+01  0.32591064247E+02 -0.78027953160E+00  0.12946150783E+03  0.12509000000E+03 0.  0.
<mgrwt>
<rscale>  2 0.42791128E+03</rscale>
<asrwt>0</asrwt>
<pdfrwt beam="1">  1       21 0.53730260E-01 0.42791128E+03</pdfrwt>
<pdfrwt beam="2">  1       21 0.18425136E-01 0.42791128E+03</pdfrwt>
<totfact> 0.82239844E+04</totfact>
</mgrwt>
</event>
<event>
 7    0  0.4712189E-002  0.4559310E+03  0.7546771E-02  0.1025968E+00
         21   -1    0    0  502  501  0.00000000000E+00  0.00000000000E+00  0.42724644910E+03  0.42724644910E+03  0.00000000000E+00 0. -1.
         21   -1    0    0  501  502 -0.00000000000E+00 -0.00000000000E+00 -0.12163532748E+03  0.12163532748E+03  0.00000000000E+00 0. -1.
      99926    2    1    2    0    0  0.14210854715E-13 -0.71054273576E-14  0.30561112161E+03  0.54888177658E+03  0.45593096737E+03 0.  0.
      99925    2    3    3    0    0 -0.10825374832E+03  0.35736263865E+02  0.18884610843E+03  0.34326676987E+03  0.26300811404E+03 0.  0.
         25    1    4    4    0    0 -0.77518705563E+02 -0.93905958056E+01  0.12150500708E+03  0.19107147314E+03  0.12509000000E+03 0.  0.
         25    1    3    3    0    0  0.10825374832E+03 -0.35736263865E+02  0.11676501319E+03  0.20561500671E+03  0.12509000000E+03 0.  0.
         25    1    4    4    0    0 -0.30735042757E+02  0.45126859670E+02  0.67341101348E+02  0.15219529673E+03  0.12509000000E+03 0.  0.
<mgrwt>
<rscale>  2 0.45593097E+03</rscale>
<asrwt>0</asrwt>
<pdfrwt beam="1">  1       21 0.62830360E-01 0.45593097E+03</pdfrwt>
<pdfrwt beam="2">  1       21 0.17887548E-01 0.45593097E+03</pdfrwt>
<totfact> 0.61486308E+04</totfact>
</mgrwt>
</event>
<event>
 7    0  0.4712189E-002  0.4513514E+03  0.7546771E-02  0.1027320E+00
         21   -1    0    0  502  501  0.00000000000E+00  0.00000000000E+00  0.58343297525E+02  0.58343297525E+02  0.00000000000E+00 0.  1.
         21   -1    0    0  501  502 -0.00000000000E+00 -0.00000000000E+00 -0.87292840883E+03  0.87292840883E+03  0.00000000000E+00 0.  1.
      99926    2    1    2    0    0  0.00000000000E+00 -0.14210854715E-13 -0.81458511130E+03  0.93127170635E+03  0.45135140135E+03 0.  0.
      99925    2    3    3    0    0 -0.34915488305E+02  0.89985702619E+02 -0.62177681346E+03  0.68199461993E+03  0.26304702594E+03 0.  0.
         25    1    4    4    0    0 -0.12218595825E+02  0.10269916548E+02 -0.34214508714E+03  0.36464439393E+03  0.12509000000E+03 0.  0.
         25    1    3    3    0    0  0.34915488305E+02 -0.89985702619E+02 -0.19280829784E+03  0.24927708642E+03  0.12509000000E+03 0.  0.
         25    1    4    4    0    0 -0.22696892480E+02  0.79715786070E+02 -0.27963172633E+03  0.31735022600E+03  0.12509000000E+03 0.  0.
<mgrwt>
<rscale>  2 0.45135140E+03</rscale>
<asrwt>0</asrwt>
<pdfrwt beam="1">  1       21 0.85798977E-02 0.45135140E+03</pdfrwt>
<pdfrwt beam="2">  1       21 0.12837181E+00 0.45135140E+03</pdfrwt>
<totfact> 0.43126245E+04</totfact>
</mgrwt>
</event>
<event>
 7    0  0.4712189E-002  0.4505360E+03  0.7546771E-02  0.1027562E+00
         21   -1    0    0  502  501  0.00000000000E+00  0.00000000000E+00  0.37989428397E+02  0.37989428397E+02  0.00000000000E+00 0.  1.
         21   -1    0    0  501  502 -0.00000000000E+00 -0.00000000000E+00 -0.13357842311E+04  0.13357842311E+04  0.00000000000E+00 0.  1.
      99926    2    1    2    0    0  0.00000000000E+00 -0.71054273576E-14 -0.12977948027E+04  0.13737736595E+04  0.45053603363E+03 0.  0.
      99925    2    3    3    0    0 -0.49402845275E+02  0.35238249010E+02 -0.54285536581E+03  0.60613869626E+03  0.26273521956E+03 0.  0.
         25    1    4    4    0    0 -0.11927923825E+02  0.54705679460E+02 -0.25666562200E+03  0.29096346222E+03  0.12509000000E+03 0.  0.
         25    1    3    3    0    0  0.49402845275E+02 -0.35238249010E+02 -0.75493943686E+03  0.76763496321E+03  0.12509000000E+03 0.  0.
         25    1    4    4    0    0 -0.37474921449E+02 -0.19467430450E+02 -0.28618974381E+03  0.31517523404E+03  0.12509000000E+03 0.  0.
<mgrwt>
<rscale>  2 0.45053603E+03</rscale>
<asrwt>0</asrwt>
<pdfrwt beam="1">  1       21 0.55866812E-02 0.45053603E+03</pdfrwt>
<pdfrwt beam="2">  1       21 0.19643884E+00 0.45053603E+03</pdfrwt>
<totfact> 0.27998233E+04</totfact>
</mgrwt>
</event>
<event>
 7    0  0.4712189E-002  0.4528214E+03  0.7546771E-02  0.1026884E+00
         21   -1    0    0  502  501  0.00000000000E+00  0.00000000000E+00  0.90545803116E+02  0.90545803116E+02  0.00000000000E+00 0. -1.
         21   -1    0    0  501  502 -0.00000000000E+00 -0.00000000000E+00 -0.56614237622E+03  0.56614237622E+03  0.00000000000E+00 0. -1.
      99926    2    1    2    0    0  0.00000000000E+00  0.00000000000E+00 -0.47559657310E+03  0.65668817933E+03  0.45282144884E+03 0.  0.
      99925    2    3    3    0    0 -0.33305088776E+02  0.93683127003E+01 -0.14682408234E+03  0.30322551794E+03  0.26304259988E+03 0.  0.
         25    1    4    4    0    0 -0.43946269557E+02 -0.17856561488E+00 -0.41071771024E+02  0.13880095449E+03  0.12509000000E+03 0.  0.
         25    1    4    4    0    0  0.10641180781E+02  0.95468783152E+01 -0.10575231132E+03  0.16442456344E+03  0.12509000000E+03 0.  0.
         25    1    3    3    0    0  0.33305088776E+02 -0.93683127003E+01 -0.32877249076E+03  0.35346266140E+03  0.12509000000E+03 0.  0.
<mgrwt>
<rscale>  2 0.45282145E+03</rscale>
<asrwt>0</asrwt>
<pdfrwt beam="1">  1       21 0.13315559E-01 0.45282145E+03</pdfrwt>
<pdfrwt beam="2">  1       21 0.83256233E-01 0.45282145E+03</pdfrwt>
<totfact> 0.56278452E+04</totfact>
</mgrwt>
</event>
<event>
 7    0  0.4712189E-002  0.4537267E+03  0.7546771E-02  0.1026617E+00
         21   -1    0    0  502  501  0.00000000000E+00  0.00000000000E+00  0.36063052780E+03  0.36063052780E+03  0.00000000000E+00 0.  1.
         21   -1    0    0  501  502 -0.00000000000E+00 -0.00000000000E+00 -0.14271386957E+03  0.14271386957E+03  0.00000000000E+00 0.  1.
      99926    2    1    2    0    0  0.14210854715E-13 -0.71054273576E-14  0.21791665823E+03  0.50334439738E+03  0.45372669354E+03 0.  0.
      99925    2    3    3    0    0  0.10122150460E+03 -0.25101465450E+02  0.92099547774E+02  0.29754515067E+03  0.26301124202E+03 0.  0.
         25    1    4    4    0    0  0.61932041506E+02  0.17437231562E+02  0.20301546566E+02  0.14212422630E+03  0.12509000000E+03 0.  0.
         25    1    4    4    0    0  0.39289463090E+02 -0.42538697011E+02  0.71798001209E+02  0.15542092437E+03  0.12509000000E+03 0.  0.
         25    1    3    3    0    0 -0.10122150460E+03  0.25101465450E+02  0.12581711046E+03  0.20579924671E+03  0.12509000000E+03 0.  0.
<mgrwt>
<rscale>  2 0.45372669E+03</rscale>
<asrwt>0</asrwt>
<pdfrwt beam="1">  1       21 0.53033901E-01 0.45372669E+03</pdfrwt>
<pdfrwt beam="2">  1       21 0.20987334E-01 0.45372669E+03</pdfrwt>
<totfact> 0.65697830E+04</totfact>
</mgrwt>
</event>
<event>
 7    0  0.4712189E-002  0.4532719E+03  0.7546771E-02  0.1026751E+00
         21   -1    0    0  502  501  0.00000000000E+00  0.00000000000E+00  0.21900123652E+03  0.21900123652E+03  0.00000000000E+00 0. -1.
         21   -1    0    0  501  502 -0.00000000000E+00 -0.00000000000E+00 -0.23453679022E+03  0.23453679022E+03  0.00000000000E+00 0. -1.
      99926    2    1    2    0    0  0.00000000000E+00 -0.14210854715E-13 -0.15535553706E+02  0.45353802674E+03  0.45327187015E+03 0.  0.
      99925    2    3    3    0    0 -0.11424697707E+02 -0.82539232853E+02  0.64228062713E+02  0.28338224141E+03  0.26312924966E+03 0.  0.
         25    1    3    3    0    0  0.11424697707E+02  0.82539232853E+02 -0.79763616419E+02  0.17015578533E+03  0.12509000000E+03 0.  0.
         25    1    4    4    0    0 -0.86922926822E+01 -0.37558000460E+02 -0.96952444873E+01  0.13125420076E+03  0.12509000000E+03 0.  0.
         25    1    4    4    0    0 -0.27324050245E+01 -0.44981232393E+02  0.73923307201E+02  0.15212804065E+03  0.12509000000E+03 0.  0.
<mgrwt>
<rscale>  2 0.45327187E+03</rscale>
<asrwt>0</asrwt>
<pdfrwt beam="1">  1       21 0.32206064E-01 0.45327187E+03</pdfrwt>
<pdfrwt beam="2">  1       21 0.34490704E-01 0.45327187E+03</pdfrwt>
<totfact> 0.69607897E+04</totfact>
</mgrwt>
</event>
<event>
 7    0  0.4712189E-002  0.4576530E+03  0.7546771E-02  0.1025464E+00
         21   -1    0    0  502  501  0.00000000000E+00  0.00000000000E+00  0.47767820456E+03  0.47767820456E+03  0.00000000000E+00 0.  1.
         21   -1    0    0  501  502 -0.00000000000E+00 -0.00000000000E+00 -0.10961681439E+03  0.10961681439E+03  0.00000000000E+00 0.  1.
      99926    2    1    2    0    0  0.71054273576E-14  0.14210854715E-13  0.36806139017E+03  0.58729501895E+03  0.45765298245E+03 0.  0.
      99925    2    3    3    0    0  0.50017648338E+02  0.80687217745E+02  0.31574276807E+03  0.42177481302E+03  0.26303669906E+03 0.  0.
         25    1    4    4    0    0 -0.11300143455E+01  0.24012900013E+02  0.10494000330E+03  0.16503880965E+03  0.12509000000E+03 0.  0.
         25    1    4    4    0    0  0.51147662683E+02  0.56674317732E+02  0.21080276477E+03  0.25673600336E+03  0.12509000000E+03 0.  0.
         25    1    3    3    0    0 -0.50017648338E+02 -0.80687217745E+02  0.52318622098E+02  0.16552020593E+03  0.12509000000E+03 0.  0.
<mgrwt>
<rscale>  2 0.45765298E+03</rscale>
<asrwt>0</asrwt>
<pdfrwt beam="1">  1       21 0.70246794E-01 0.45765298E+03</pdfrwt>
<pdfrwt beam="2">  1       21 0.16120120E-01 0.45765298E+03</pdfrwt>
<totfact> 0.58236345E+04</totfact>
</mgrwt>
</event>
<event>
 7    0  0.4712189E-002  0.4556112E+03  0.7546771E-02  0.1026062E+00
         21   -1    0    0  502  501  0.00000000000E+00  0.00000000000E+00  0.25756423345E+03  0.25756423345E+03  0.00000000000E+00 0.  1.
         21   -1    0    0  501  502 -0.00000000000E+00 -0.00000000000E+00 -0.20148524441E+03  0.20148524441E+03  0.00000000000E+00 0.  1.
      99926    2    1    2    0    0 -0.71054273576E-14  0.00000000000E+00  0.56078989033E+02  0.45904947786E+03  0.45561120499E+03 0.  0.
      99925    2    3    3    0    0 -0.35934656935E+02  0.51498514452E+02  0.13084708281E+03  0.30036371131E+03  0.26297148787E+03 0.  0.
         25    1    4    4    0    0  0.16750179164E+02  0.31464505962E+01  0.58786650909E+02  0.13926179332E+03  0.12509000000E+03 0.  0.
         25    1    4    4    0    0 -0.52684836099E+02  0.48352063856E+02  0.72060431899E+02  0.16110191799E+03  0.12509000000E+03 0.  0.
         25    1    3    3    0    0  0.35934656935E+02 -0.51498514452E+02 -0.74768093775E+02  0.15868576655E+03  0.12509000000E+03 0.  0.
<mgrwt>
<rscale>  2 0.45561120E+03</rscale>
<asrwt>0</asrwt>
<pdfrwt beam="1">  1       21 0.37877094E-01 0.45561120E+03</pdfrwt>
<pdfrwt beam="2">  1       21 0.29630183E-01 0.45561120E+03</pdfrwt>
<totfact> 0.67918197E+04</totfact>
</mgrwt>
</event>
<event>
 7    0  0.4712189E-002  0.4538024E+03  0.7546771E-02  0.1026594E+00
         21   -1    0    0  502  501  0.00000000000E+00  0.00000000000E+00  0.25689998224E+02  0.25689998224E+02  0.00000000000E+00 0. -1.
         21   -1    0    0  501  502 -0.00000000000E+00 -0.00000000000E+00 -0.20040545508E+04  0.20040545508E+04  0.00000000000E+00 0. -1.
      99926    2    1    2    0    0 -0.14210854715E-13  0.00000000000E+00 -0.19783645526E+04  0.20297445491E+04  0.45380241451E+03 0.  0.
      99925    2    3    3    0    0  0.90900714170E+02  0.53533088330E+02 -0.14160198671E+04  0.14440758843E+04  0.26289572915E+03 0.  0.
         25    1    4    4    0    0  0.59375937070E+02  0.53261172267E+02 -0.60895823726E+03  0.62676941310E+03  0.12509000000E+03 0.  0.
         25    1    4    4    0    0  0.31524777100E+02  0.27191606288E+00 -0.80706162981E+03  0.81730647123E+03  0.12509000000E+03 0.  0.
         25    1    3    3    0    0 -0.90900714170E+02 -0.53533088330E+02 -0.56234468556E+03  0.58566866474E+03  0.12509000000E+03 0.  0.
<mgrwt>
<rscale>  2 0.45380241E+03</rscale>
<asrwt>0</asrwt>
<pdfrwt beam="1">  1       21 0.37779408E-02 0.45380241E+03</pdfrwt>
<pdfrwt beam="2">  1       21 0.29471391E+00 0.45380241E+03</pdfrwt>
<totfact> 0.13353812E+04</totfact>
</mgrwt>
</event>
<event>
 7    0  0.4712189E-002  0.4540155E+03  0.7546771E-02  0.1026531E+00
         21   -1    0    0  502  501  0.00000000000E+00  0.00000000000E+00  0.17535279156E+03  0.17535279156E+03  0.00000000000E+00 0. -1.
         21   -1    0    0  501  502 -0.00000000000E+00 -0.00000000000E+00 -0.29387902613E+03  0.29387902613E+03  0.00000000000E+00 0. -1.
      99926    2    1    2    0    0  0.00000000000E+00  0.00000000000E+00 -0.11852623457E+03  0.46923181770E+03  0.45401545178E+03 0.  0.
      99925    2    3    3    0    0 -0.35222870547E+02 -0.56851355228E+02  0.18189561402E+02  0.27222561432E+03  0.26325500517E+03 0.  0.
         25    1    4    4    0    0 -0.93433025218E+01 -0.59641918458E+02 -0.16390739442E+02  0.13985928707E+03  0.12509000000E+03 0.  0.
         25    1    3    3    0    0  0.35222870547E+02  0.56851355228E+02 -0.13671579597E+03  0.19700620338E+03  0.12509000000E+03 0.  0.
         25    1    4    4    0    0 -0.25879568026E+02  0.27905632303E+01  0.34580300845E+02  0.13236632725E+03  0.12509000000E+03 0.  0.
<mgrwt>
<rscale>  2 0.45401545E+03</rscale>
<asrwt>0</asrwt>
<pdfrwt beam="1">  1       21 0.25787176E-01 0.45401545E+03</pdfrwt>
<pdfrwt beam="2">  1       21 0.43217503E-01 0.45401545E+03</pdfrwt>
<totfact> 0.68022626E+04</totfact>
</mgrwt>
</event>
<event>
 7    0  0.4712189E-002  0.4553122E+03  0.7546771E-02  0.1026150E+00
         21   -1    0    0  502  501  0.00000000000E+00  0.00000000000E+00  0.20992076372E+02  0.20992076372E+02  0.00000000000E+00 0. -1.
         21   -1    0    0  501  502 -0.00000000000E+00 -0.00000000000E+00 -0.24688987226E+04  0.24688987226E+04  0.00000000000E+00 0. -1.
      99926    2    1    2    0    0 -0.14210854715E-13  0.00000000000E+00 -0.24479066462E+04  0.24898907990E+04  0.45531224688E+03 0.  0.
      99925    2    3    3    0    0 -0.92699593984E+02 -0.59077591674E+02 -0.13864003827E+04  0.14154018823E+04  0.26300777659E+03 0.  0.
         25    1    3    3    0    0  0.92699593984E+02  0.59077591674E+02 -0.10615062635E+04  0.10744889167E+04  0.12509000000E+03 0.  0.
         25    1    4    4    0    0 -0.15248472442E+02 -0.30360773430E+02 -0.50645845669E+03  0.52278290803E+03  0.12509000000E+03 0.  0.
         25    1    4    4    0    0 -0.77451121542E+02 -0.28716818244E+02 -0.87994192606E+03  0.89261897426E+03  0.12509000000E+03 0.  0.
<mgrwt>
<rscale>  2 0.45531225E+03</rscale>
<asrwt>0</asrwt>
<pdfrwt beam="1">  1       21 0.30870709E-02 0.45531225E+03</pdfrwt>
<pdfrwt beam="2">  1       21 0.36307324E+00 0.45531225E+03</pdfrwt>
<totfact> 0.72182415E+03</totfact>
</mgrwt>
</event>
<event>
 7    0  0.4712189E-002  0.4667397E+03  0.7546771E-02  0.1022844E+00
         21   -1    0    0  502  501  0.00000000000E+00  0.00000000000E+00  0.21165274081E+03  0.21165274081E+03  0.00000000000E+00 0. -1.
         21   -1    0    0  501  502 -0.00000000000E+00 -0.00000000000E+00 -0.25731529013E+03  0.25731529013E+03  0.00000000000E+00 0. -1.
      99926    2    1    2    0    0  0.00000000000E+00  0.00000000000E+00 -0.45662549326E+02  0.46896803094E+03  0.46673969794E+03 0.  0.
      99925    2    3    3    0    0 -0.26503057309E+02  0.11958482189E+03 -0.10008686957E+02  0.29030172837E+03  0.26300566155E+03 0.  0.
         25    1    4    4    0    0  0.50108661207E+01  0.78298636599E+02 -0.36930650261E+02  0.15220764206E+03  0.12509000000E+03 0.  0.
         25    1    4    4    0    0 -0.31513923430E+02  0.41286185292E+02  0.26921963303E+02  0.13809408631E+03  0.12509000000E+03 0.  0.
         25    1    3    3    0    0  0.26503057309E+02 -0.11958482189E+03 -0.35653862369E+02  0.17866630257E+03  0.12509000000E+03 0.  0.
<mgrwt>
<rscale>  2 0.46673970E+03</rscale>
<asrwt>0</asrwt>
<pdfrwt beam="1">  1       21 0.31125403E-01 0.46673970E+03</pdfrwt>
<pdfrwt beam="2">  1       21 0.37840484E-01 0.46673970E+03</pdfrwt>
<totfact> 0.61562772E+04</totfact>
</mgrwt>
</event>
<event>
 7    0  0.4712189E-002  0.4633436E+03  0.7546771E-02  0.1023816E+00
         21   -1    0    0  502  501  0.00000000000E+00  0.00000000000E+00  0.36243327382E+03  0.36243327382E+03  0.00000000000E+00 0. -1.
         21   -1    0    0  501  502 -0.00000000000E+00 -0.00000000000E+00 -0.14808749106E+03  0.14808749106E+03  0.00000000000E+00 0. -1.
      99926    2    1    2    0    0  0.35527136788E-14  0.00000000000E+00  0.21434578276E+03  0.51052076488E+03  0.46334364870E+03 0.  0.
      99925    2    3    3    0    0 -0.22374013653E+02  0.54065951011E+02  0.25034638831E+03  0.36780680185E+03  0.26303004733E+03 0.  0.
         25    1    4    4    0    0 -0.50734573739E+02  0.19059453456E+02  0.12005876337E+03  0.18165592338E+03  0.12509000000E+03 0.  0.
         25    1    3    3    0    0  0.22374013653E+02 -0.54065951011E+02 -0.36000605549E+02  0.14271396304E+03  0.12509000000E+03 0.  0.
         25    1    4    4    0    0  0.28360560086E+02  0.35006497555E+02  0.13028762494E+03  0.18615087846E+03  0.12509000000E+03 0.  0.
<mgrwt>
<rscale>  2 0.46334365E+03</rscale>
<asrwt>0</asrwt>
<pdfrwt beam="1">  1       21 0.53299011E-01 0.46334365E+03</pdfrwt>
<pdfrwt beam="2">  1       21 0.21777572E-01 0.46334365E+03</pdfrwt>
<totfact> 0.60435125E+04</totfact>
</mgrwt>
</event>
<event>
 7    0  0.4712189E-002  0.4525398E+03  0.7546771E-02  0.1026967E+00
         21   -1    0    0  502  501  0.00000000000E+00  0.00000000000E+00  0.78687223533E+02  0.78687223533E+02  0.00000000000E+00 0.  1.
         21   -1    0    0  501  502 -0.00000000000E+00 -0.00000000000E+00 -0.65065280994E+03  0.65065280994E+03  0.00000000000E+00 0.  1.
      99926    2    1    2    0    0  0.00000000000E+00  0.00000000000E+00 -0.57196558641E+03  0.72934003348E+03  0.45253977990E+03 0.  0.
      99925    2    3    3    0    0 -0.48765070369E+02  0.45399285010E+01 -0.52089765188E+03  0.58562474175E+03  0.26310327131E+03 0.  0.
         25    1    4    4    0    0 -0.54470044946E+02  0.15501106448E+00 -0.21000376758E+03  0.25043182770E+03  0.12509000000E+03 0.  0.
         25    1    4    4    0    0  0.57049745771E+01  0.43849174365E+01 -0.31089388430E+03  0.33519291405E+03  0.12509000000E+03 0.  0.
         25    1    3    3    0    0  0.48765070369E+02 -0.45399285010E+01 -0.51067934525E+02  0.14371529172E+03  0.12509000000E+03 0.  0.
<mgrwt>
<rscale>  2 0.45253978E+03</rscale>
<asrwt>0</asrwt>
<pdfrwt beam="1">  1       21 0.11571651E-01 0.45253978E+03</pdfrwt>
<pdfrwt beam="2">  1       21 0.95684236E-01 0.45253978E+03</pdfrwt>
<totfact> 0.52344138E+04</totfact>
</mgrwt>
</event>
<event>
 7    0  0.4712189E-002  0.4345177E+03  0.7546771E-02  0.1032442E+00
         21   -1    0    0  502  501  0.00000000000E+00  0.00000000000E+00  0.58914864557E+03  0.58914864557E+03  0.00000000000E+00 0. -1.
         21   -1    0    0  501  502 -0.00000000000E+00 -0.00000000000E+00 -0.80117998532E+02  0.80117998532E+02  0.00000000000E+00 0. -1.
      99926    2    1    2    0    0  0.00000000000E+00 -0.71054273576E-14  0.50903064704E+03  0.66926664410E+03  0.43451771113E+03 0.  0.
      99925    2    3    3    0    0  0.35171948860E+02  0.39143763183E+02  0.44417289414E+03  0.51885608466E+03  0.26296915505E+03 0.  0.
         25    1    3    3    0    0 -0.35171948860E+02 -0.39143763183E+02  0.64857752897E+02  0.15041055945E+03  0.12509000000E+03 0.  0.
         25    1    4    4    0    0  0.17616078756E+02  0.56021718996E+02  0.19520704130E+03  0.23916951374E+03  0.12509000000E+03 0.  0.
         25    1    4    4    0    0  0.17555870105E+02 -0.16877955813E+02  0.24896585285E+03  0.27968657092E+03  0.12509000000E+03 0.  0.
<mgrwt>
<rscale>  2 0.43451771E+03</rscale>
<asrwt>0</asrwt>
<pdfrwt beam="1">  1       21 0.86639504E-01 0.43451771E+03</pdfrwt>
<pdfrwt beam="2">  1       21 0.11782059E-01 0.43451771E+03</pdfrwt>
<totfact> 0.64378590E+04</totfact>
</mgrwt>
</event>
<event>
 7    0  0.4712189E-002  0.4529520E+03  0.7546771E-02  0.1026845E+00
         21   -1    0    0  502  501  0.00000000000E+00  0.00000000000E+00  0.12845994964E+03  0.12845994964E+03  0.00000000000E+00 0.  1.
         21   -1    0    0  501  502 -0.00000000000E+00 -0.00000000000E+00 -0.39927913335E+03  0.39927913335E+03  0.00000000000E+00 0.  1.
      99926    2    1    2    0    0  0.00000000000E+00  0.00000000000E+00 -0.27081918371E+03  0.52773908299E+03  0.45295199465E+03 0.  0.
      99925    2    3    3    0    0 -0.10502971494E+03  0.33214394626E+02 -0.15404881650E+03  0.32422676448E+03  0.26316823499E+03 0.  0.
         25    1    4    4    0    0 -0.67424919616E+02  0.40795152286E+02 -0.46879550815E+02  0.15509856421E+03  0.12509000000E+03 0.  0.
         25    1    4    4    0    0 -0.37604795321E+02 -0.75807576599E+01 -0.10716926569E+03  0.16912820027E+03  0.12509000000E+03 0.  0.
         25    1    3    3    0    0  0.10502971494E+03 -0.33214394626E+02 -0.11677036721E+03  0.20351231852E+03  0.12509000000E+03 0.  0.
<mgrwt>
<rscale>  2 0.45295199E+03</rscale>
<asrwt>0</asrwt>
<pdfrwt beam="1">  1       21 0.18891169E-01 0.45295199E+03</pdfrwt>
<pdfrwt beam="2">  1       21 0.58717519E-01 0.45295199E+03</pdfrwt>
<totfact> 0.64398902E+04</totfact>
</mgrwt>
</event>
<event>
 7    0  0.4712189E-002  0.4534849E+03  0.7546771E-02  0.1026688E+00
         21   -1    0    0  502  501  0.00000000000E+00  0.00000000000E+00  0.14056461805E+03  0.14056461805E+03  0.00000000000E+00 0.  1.
         21   -1    0    0  501  502 -0.00000000000E+00 -0.00000000000E+00 -0.36575453377E+03  0.36575453377E+03  0.00000000000E+00 0.  1.
      99926    2    1    2    0    0  0.00000000000E+00  0.00000000000E+00 -0.22518991572E+03  0.50631915182E+03  0.45348493399E+03 0.  0.
      99925    2    3    3    0    0  0.28148548992E+02  0.72451464167E+02 -0.23149057399E+03  0.35891236139E+03  0.26303733925E+03 0.  0.
         25    1    3    3    0    0 -0.28148548992E+02 -0.72451464167E+02  0.63006582761E+01  0.14740679043E+03  0.12509000000E+03 0.  0.
         25    1    4    4    0    0 -0.17130635824E+02  0.38330147940E+02 -0.79426757467E+02  0.15400901541E+03  0.12509000000E+03 0.  0.
         25    1    4    4    0    0  0.45279184816E+02  0.34121316227E+02 -0.15206381652E+03  0.20490334598E+03  0.12509000000E+03 0.  0.
<mgrwt>
<rscale>  2 0.45348493E+03</rscale>
<asrwt>0</asrwt>
<pdfrwt beam="1">  1       21 0.20671268E-01 0.45348493E+03</pdfrwt>
<pdfrwt beam="2">  1       21 0.53787431E-01 0.45348493E+03</pdfrwt>
<totfact> 0.65614427E+04</totfact>
</mgrwt>
</event>
<event>
 7    0  0.4712189E-002  0.4519877E+03  0.7546771E-02  0.1027131E+00
         21   -1    0    0  502  501  0.00000000000E+00  0.00000000000E+00  0.18150064298E+02  0.18150064298E+02  0.00000000000E+00 0.  1.
         21   -1    0    0  501  502 -0.00000000000E+00 -0.00000000000E+00 -0.28139421740E+04  0.28139421740E+04  0.00000000000E+00 0.  1.
      99926    2    1    2    0    0 -0.71054273576E-14  0.00000000000E+00 -0.27957921097E+04  0.28320922383E+04  0.45198774935E+03 0.  0.
      99925    2    3    3    0    0 -0.60230231591E+02 -0.42047249985E+02 -0.22797888871E+04  0.22960861881E+04  0.26301855705E+03 0.  0.
         25    1    4    4    0    0 -0.61246486363E+02 -0.48330133049E+02 -0.11699978218E+04  0.11792494838E+04  0.12509000000E+03 0.  0.
         25    1    3    3    0    0  0.60230231591E+02  0.42047249985E+02 -0.51600322263E+03  0.53600605024E+03  0.12509000000E+03 0.  0.
         25    1    4    4    0    0  0.10162547717E+01  0.62828830637E+01 -0.11097910653E+04  0.11168367043E+04  0.12509000000E+03 0.  0.
<mgrwt>
<rscale>  2 0.45198775E+03</rscale>
<asrwt>0</asrwt>
<pdfrwt beam="1">  1       21 0.26691295E-02 0.45198775E+03</pdfrwt>
<pdfrwt beam="2">  1       21 0.41381465E+00 0.45198775E+03</pdfrwt>
<totfact> 0.43981190E+03</totfact>
</mgrwt>
</event>
<event>
 7    0  0.4712189E-002  0.4549819E+03  0.7546771E-02  0.1026247E+00
         21   -1    0    0  502  501  0.00000000000E+00  0.00000000000E+00  0.50406990685E+03  0.50406990685E+03  0.00000000000E+00 0. -1.
         21   -1    0    0  501  502 -0.00000000000E+00 -0.00000000000E+00 -0.10266855790E+03  0.10266855790E+03  0.00000000000E+00 0. -1.
      99926    2    1    2    0    0  0.00000000000E+00  0.00000000000E+00  0.40140134895E+03  0.60673846475E+03  0.45498189159E+03 0.  0.
      99925    2    3    3    0    0 -0.25683569414E+02  0.10361673101E+03  0.20280905323E+03  0.34889649628E+03  0.26306117229E+03 0.  0.
         25    1    4    4    0    0 -0.21988314295E+02  0.96934608412E+01  0.94261899412E+02  0.15846218139E+03  0.12509000000E+03 0.  0.
         25    1    4    4    0    0 -0.36952551192E+01  0.93923270169E+02  0.10854715381E+03  0.19043431490E+03  0.12509000000E+03 0.  0.
         25    1    3    3    0    0  0.25683569414E+02 -0.10361673101E+03  0.19859229572E+03  0.25784196847E+03  0.12509000000E+03 0.  0.
<mgrwt>
<rscale>  2 0.45498189E+03</rscale>
<asrwt>0</asrwt>
<pdfrwt beam="1">  1       21 0.74127926E-01 0.45498189E+03</pdfrwt>
<pdfrwt beam="2">  1       21 0.15098318E-01 0.45498189E+03</pdfrwt>
<totfact> 0.58273740E+04</totfact>
</mgrwt>
</event>
<event>
 7    0  0.4712189E-002  0.4535709E+03  0.7546771E-02  0.1026662E+00
         21   -1    0    0  502  501  0.00000000000E+00  0.00000000000E+00  0.13475411285E+03  0.13475411285E+03  0.00000000000E+00 0.  1.
         21   -1    0    0  501  502 -0.00000000000E+00 -0.00000000000E+00 -0.38167022721E+03  0.38167022721E+03  0.00000000000E+00 0.  1.
      99926    2    1    2    0    0  0.17763568394E-14  0.00000000000E+00 -0.24691611436E+03  0.51642434006E+03  0.45357086710E+03 0.  0.
      99925    2    3    3    0    0 -0.14000479510E+02 -0.35705100322E+02 -0.36057967807E+02  0.26827210114E+03  0.26305679157E+03 0.  0.
         25    1    4    4    0    0  0.12267531450E+02 -0.15516400956E+02 -0.53914978402E+02  0.13764295849E+03  0.12509000000E+03 0.  0.
         25    1    4    4    0    0 -0.26268010960E+02 -0.20188699365E+02  0.17857010595E+02  0.13062914265E+03  0.12509000000E+03 0.  0.
         25    1    3    3    0    0  0.14000479510E+02  0.35705100322E+02 -0.21085814655E+03  0.24815223892E+03  0.12509000000E+03 0.  0.
<mgrwt>
<rscale>  2 0.45357087E+03</rscale>
<asrwt>0</asrwt>
<pdfrwt beam="1">  1       21 0.19816781E-01 0.45357087E+03</pdfrwt>
<pdfrwt beam="2">  1       21 0.56127975E-01 0.45357087E+03</pdfrwt>
<totfact> 0.64863947E+04</totfact>
</mgrwt>
</event>
<event>
 7    0  0.4712189E-002  0.4551366E+03  0.7546771E-02  0.1026201E+00
         21   -1    0    0  502  501  0.00000000000E+00  0.00000000000E+00  0.89825366402E+02  0.89825366402E+02  0.00000000000E+00 0. -1.
         21   -1    0    0  501  502 -0.00000000000E+00 -0.00000000000E+00 -0.57653353083E+03  0.57653353083E+03  0.00000000000E+00 0. -1.
      99926    2    1    2    0    0  0.00000000000E+00  0.71054273576E-14 -0.48670816443E+03  0.66635889724E+03  0.45513661971E+03 0.  0.
      99925    2    3    3    0    0 -0.67483027143E+02 -0.48226330201E+02 -0.19338689147E+03  0.33686744796E+03  0.26306168444E+03 0.  0.
         25    1    4    4    0    0 -0.59189136356E+00 -0.33506302227E+02 -0.11967334497E+03  0.17632991867E+03  0.12509000000E+03 0.  0.
         25    1    3    3    0    0  0.67483027143E+02  0.48226330201E+02 -0.29332127296E+03  0.32949144928E+03  0.12509000000E+03 0.  0.
         25    1    4    4    0    0 -0.66891135780E+02 -0.14720027974E+02 -0.73713546504E+02  0.16053752928E+03  0.12509000000E+03 0.  0.
<mgrwt>
<rscale>  2 0.45513662E+03</rscale>
<asrwt>0</asrwt>
<pdfrwt beam="1">  1       21 0.13209613E-01 0.45513662E+03</pdfrwt>
<pdfrwt beam="2">  1       21 0.84784341E-01 0.45513662E+03</pdfrwt>
<totfact> 0.54708714E+04</totfact>
</mgrwt>
</event>
<event>
 7    0  0.4712189E-002  0.4188841E+03  0.7546771E-02  0.1037430E+00
         21   -1    0    0  502  501  0.00000000000E+00  0.00000000000E+00  0.15560805729E+03  0.15560805729E+03  0.00000000000E+00 0. -1.
         21   -1    0    0  501  502 -0.00000000000E+00 -0.00000000000E+00 -0.28190040741E+03  0.28190040741E+03  0.00000000000E+00 0. -1.
      99926    2    1    2    0    0  0.71054273576E-14  0.35527136788E-14 -0.12629235012E+03  0.43750846469E+03  0.41888411163E+03 0.  0.
      99925    2    3    3    0    0 -0.52333192207E+02 -0.14185625979E+02 -0.13562755150E+03  0.30085324497E+03  0.26301681942E+03 0.  0.
         25    1    4    4    0    0 -0.54556481394E+01 -0.41839070297E+02 -0.62284545740E+02  0.14596967027E+03  0.12509000000E+03 0.  0.
         25    1    3    3    0    0  0.52333192207E+02  0.14185625979E+02  0.93352013766E+01  0.13665521972E+03  0.12509000000E+03 0.  0.
         25    1    4    4    0    0 -0.46877544068E+02  0.27653444319E+02 -0.73343005757E+02  0.15488357471E+03  0.12509000000E+03 0.  0.
<mgrwt>
<rscale>  2 0.41888411E+03</rscale>
<asrwt>0</asrwt>
<pdfrwt beam="1">  1       21 0.22883538E-01 0.41888411E+03</pdfrwt>
<pdfrwt beam="2">  1       21 0.41455942E-01 0.41888411E+03</pdfrwt>
<totfact> 0.94147568E+04</totfact>
</mgrwt>
</event>
<event>
 7    0  0.4712189E-002  0.4688824E+03  0.7546771E-02  0.1022236E+00
         21   -1    0    0  502  501  0.00000000000E+00  0.00000000000E+00  0.87242615035E+03  0.87242615035E+03  0.00000000000E+00 0. -1.
         21   -1    0    0  501  502 -0.00000000000E+00 -0.00000000000E+00 -0.62999810408E+02  0.62999810408E+02  0.00000000000E+00 0. -1.
      99926    2    1    2    0    0  0.14210854715E-13 -0.14210854715E-13  0.80942633994E+03  0.93542596076E+03  0.46888242478E+03 0.  0.
      99925    2    3    3    0    0 -0.81314588317E+02  0.93946561320E+02  0.54062793617E+03  0.61396350786E+03  0.26312469468E+03 0.  0.
         25    1    4    4    0    0 -0.44776670414E+02  0.89919509515E+02  0.28760209952E+03  0.32932194606E+03  0.12509000000E+03 0.  0.
         25    1    3    3    0    0  0.81314588317E+02 -0.93946561320E+02  0.26879840377E+03  0.32146245290E+03  0.12509000000E+03 0.  0.
         25    1    4    4    0    0 -0.36537917903E+02  0.40270518042E+01  0.25302583665E+03  0.28464156180E+03  0.12509000000E+03 0.  0.
<mgrwt>
<rscale>  2 0.46888242E+03</rscale>
<asrwt>0</asrwt>
<pdfrwt beam="1">  1       21 0.12829796E+00 0.46888242E+03</pdfrwt>
<pdfrwt beam="2">  1       21 0.92646785E-02 0.46888242E+03</pdfrwt>
<totfact> 0.37495042E+04</totfact>
</mgrwt>
</event>
<event>
 7    0  0.4712189E-002  0.4554977E+03  0.7546771E-02  0.1026095E+00
         21   -1    0    0  502  501  0.00000000000E+00  0.00000000000E+00  0.53023314720E+03  0.53023314720E+03  0.00000000000E+00 0. -1.
         21   -1    0    0  501  502 -0.00000000000E+00 -0.00000000000E+00 -0.97824024406E+02  0.97824024406E+02  0.00000000000E+00 0. -1.
      99926    2    1    2    0    0 -0.71054273576E-14  0.14210854715E-13  0.43240912280E+03  0.62805717161E+03  0.45549770727E+03 0.  0.
      99925    2    3    3    0    0 -0.54622505849E+02  0.83978333421E+02  0.34671688975E+03  0.44632482574E+03  0.26259716261E+03 0.  0.
         25    1    4    4    0    0 -0.35777491844E+02  0.60681594298E+02  0.23781366526E+03  0.27778612689E+03  0.12509000000E+03 0.  0.
         25    1    4    4    0    0 -0.18845014005E+02  0.23296739122E+02  0.10890322449E+03  0.16853869885E+03  0.12509000000E+03 0.  0.
         25    1    3    3    0    0  0.54622505849E+02 -0.83978333421E+02  0.85692233051E+02  0.18173234587E+03  0.12509000000E+03 0.  0.
<mgrwt>
<rscale>  2 0.45549771E+03</rscale>
<asrwt>0</asrwt>
<pdfrwt beam="1">  1       21 0.77975462E-01 0.45549771E+03</pdfrwt>
<pdfrwt beam="2">  1       21 0.14385886E-01 0.45549771E+03</pdfrwt>
<totfact> 0.56760322E+04</totfact>
</mgrwt>
</event>
<event>
 7    0  0.4712189E-002  0.4525546E+03  0.7546771E-02  0.1026963E+00
         21   -1    0    0  502  501  0.00000000000E+00  0.00000000000E+00  0.15370552071E+04  0.15370552071E+04  0.00000000000E+00 0.  1.
         21   -1    0    0  501  502 -0.00000000000E+00 -0.00000000000E+00 -0.33311376525E+02  0.33311376525E+02  0.00000000000E+00 0.  1.
      99926    2    1    2    0    0  0.00000000000E+00  0.00000000000E+00  0.15037438305E+04  0.15703665836E+04  0.45255463645E+03 0.  0.
      99925    2    3    3    0    0  0.10493286602E+03  0.35056210224E+02  0.96986520517E+03  0.10109796522E+04  0.26306177370E+03 0.  0.
         25    1    4    4    0    0  0.72755786564E+02  0.13720709656E+02  0.63522276991E+03  0.65164187854E+03  0.12509000000E+03 0.  0.
         25    1    4    4    0    0  0.32177079458E+02  0.21335500568E+02  0.33464243526E+03  0.35933777370E+03  0.12509000000E+03 0.  0.
         25    1    3    3    0    0 -0.10493286602E+03 -0.35056210224E+02  0.53387862537E+03  0.55938693136E+03  0.12509000000E+03 0.  0.
<mgrwt>
<rscale>  2 0.45255464E+03</rscale>
<asrwt>0</asrwt>
<pdfrwt beam="1">  1       21 0.22603748E+00 0.45255464E+03</pdfrwt>
<pdfrwt beam="2">  1       21 0.48987329E-02 0.45255464E+03</pdfrwt>
<totfact> 0.22530913E+04</totfact>
</mgrwt>
</event>
<event>
 7    0  0.4712189E-002  0.4592499E+03  0.7546771E-02  0.1024999E+00
         21   -1    0    0  502  501  0.00000000000E+00  0.00000000000E+00  0.44064552621E+03  0.44064552621E+03  0.00000000000E+00 0.  1.
         21   -1    0    0  501  502 -0.00000000000E+00 -0.00000000000E+00 -0.11965996684E+03  0.11965996684E+03  0.00000000000E+00 0.  1.
      99926    2    1    2    0    0  0.00000000000E+00  0.00000000000E+00  0.32098555938E+03  0.56030549305E+03  0.45924994960E+03 0.  0.
      99925    2    3    3    0    0  0.55657774972E+02  0.69285876676E+02  0.29419779023E+03  0.40453831648E+03  0.26306004847E+03 0.  0.
         25    1    4    4    0    0  0.26941052527E+02  0.58904466520E+02  0.10505345782E+03  0.17572505111E+03  0.12509000000E+03 0.  0.
         25    1    3    3    0    0 -0.55657774972E+02 -0.69285876676E+02  0.26787769148E+02  0.15576717657E+03  0.12509000000E+03 0.  0.
         25    1    4    4    0    0  0.28716722445E+02  0.10381410156E+02  0.18914433242E+03  0.22881326537E+03  0.12509000000E+03 0.  0.
<mgrwt>
<rscale>  2 0.45924995E+03</rscale>
<asrwt>0</asrwt>
<pdfrwt beam="1">  1       21 0.64800812E-01 0.45924995E+03</pdfrwt>
<pdfrwt beam="2">  1       21 0.17597054E-01 0.45924995E+03</pdfrwt>
<totfact> 0.59176075E+04</totfact>
</mgrwt>
</event>
<event>
 7    0  0.4712189E-002  0.4510537E+03  0.7546771E-02  0.1027408E+00
         21   -1    0    0  502  501  0.00000000000E+00  0.00000000000E+00  0.49419024596E+03  0.49419024596E+03  0.00000000000E+00 0. -1.
         21   -1    0    0  501  502 -0.00000000000E+00 -0.00000000000E+00 -0.10292059366E+03  0.10292059366E+03  0.00000000000E+00 0. -1.
      99926    2    1    2    0    0  0.00000000000E+00  0.00000000000E+00  0.39126965230E+03  0.59711083962E+03  0.45105367085E+03 0.  0.
      99925    2    3    3    0    0  0.52021945129E+02  0.78498175861E+02  0.17412343650E+03  0.32940160645E+03  0.26328349893E+03 0.  0.
         25    1    3    3    0    0 -0.52021945129E+02 -0.78498175861E+02  0.21714621580E+03  0.26770923317E+03  0.12509000000E+03 0.  0.
         25    1    4    4    0    0  0.29554345175E+02  0.56271017823E+02  0.13467251067E+03  0.19448413816E+03  0.12509000000E+03 0.  0.
         25    1    4    4    0    0  0.22467599954E+02  0.22227158038E+02  0.39450925829E+02  0.13491746829E+03  0.12509000000E+03 0.  0.
<mgrwt>
<rscale>  2 0.45105367E+03</rscale>
<asrwt>0</asrwt>
<pdfrwt beam="1">  1       21 0.72675035E-01 0.45105367E+03</pdfrwt>
<pdfrwt beam="2">  1       21 0.15135382E-01 0.45105367E+03</pdfrwt>
<totfact> 0.60728101E+04</totfact>
</mgrwt>
</event>
<event>
 7    0  0.4712189E-002  0.4520837E+03  0.7546771E-02  0.1027102E+00
         21   -1    0    0  502  501  0.00000000000E+00  0.00000000000E+00  0.70251114525E+03  0.70251114525E+03  0.00000000000E+00 0. -1.
         21   -1    0    0  501  502 -0.00000000000E+00 -0.00000000000E+00 -0.72731823777E+02  0.72731823777E+02  0.00000000000E+00 0. -1.
      99926    2    1    2    0    0  0.00000000000E+00  0.14210854715E-13  0.62977932148E+03  0.77524296903E+03  0.45208369498E+03 0.  0.
      99925    2    3    3    0    0  0.44968161236E+02 -0.99206835847E+02  0.36654202204E+03  0.46410712134E+03  0.26301755522E+03 0.  0.
         25    1    4    4    0    0  0.56373975446E+02 -0.29873233031E+02  0.19853037302E+03  0.24317124064E+03  0.12509000000E+03 0.  0.
         25    1    3    3    0    0 -0.44968161236E+02  0.99206835847E+02  0.26323729944E+03  0.31113584769E+03  0.12509000000E+03 0.  0.
         25    1    4    4    0    0 -0.11405814210E+02 -0.69333602815E+02  0.16801164901E+03  0.22093588070E+03  0.12509000000E+03 0.  0.
<mgrwt>
<rscale>  2 0.45208369E+03</rscale>
<asrwt>0</asrwt>
<pdfrwt beam="1">  1       21 0.10331046E+00 0.45208369E+03</pdfrwt>
<pdfrwt beam="2">  1       21 0.10695857E-01 0.45208369E+03</pdfrwt>
<totfact> 0.50123216E+04</totfact>
</mgrwt>
</event>
<event>
 7    0  0.4712189E-002  0.4739498E+03  0.7546771E-02  0.1020811E+00
         21   -1    0    0  502  501  0.00000000000E+00  0.00000000000E+00  0.20048330174E+03  0.20048330174E+03  0.00000000000E+00 0.  1.
         21   -1    0    0  501  502 -0.00000000000E+00 -0.00000000000E+00 -0.28010859067E+03  0.28010859067E+03  0.00000000000E+00 0.  1.
      99926    2    1    2    0    0  0.00000000000E+00  0.00000000000E+00 -0.79625288931E+02  0.48059189241E+03  0.47394976571E+03 0.  0.
      99925    2    3    3    0    0  0.16394116096E+02 -0.95752558880E+02 -0.13734703135E+03  0.31201957196E+03  0.26278258445E+03 0.  0.
         25    1    4    4    0    0  0.34742182071E+02 -0.57833201442E+02 -0.10332269760E+03  0.17571222594E+03  0.12509000000E+03 0.  0.
         25    1    3    3    0    0 -0.16394116096E+02  0.95752558880E+02  0.57721742419E+02  0.16857232045E+03  0.12509000000E+03 0.  0.
         25    1    4    4    0    0 -0.18348065975E+02 -0.37919357438E+02 -0.34024333749E+02  0.13630734603E+03  0.12509000000E+03 0.  0.
<mgrwt>
<rscale>  2 0.47394977E+03</rscale>
<asrwt>0</asrwt>
<pdfrwt beam="1">  1       21 0.29482839E-01 0.47394977E+03</pdfrwt>
<pdfrwt beam="2">  1       21 0.41192440E-01 0.47394977E+03</pdfrwt>
<totfact> 0.57505105E+04</totfact>
</mgrwt>
</event>
<event>
 7    0  0.4712189E-002  0.4522397E+03  0.7546771E-02  0.1027056E+00
         21   -1    0    0  502  501  0.00000000000E+00  0.00000000000E+00  0.10087072637E+03  0.10087072637E+03  0.00000000000E+00 0.  1.
         21   -1    0    0  501  502 -0.00000000000E+00 -0.00000000000E+00 -0.50688825853E+03  0.50688825853E+03  0.00000000000E+00 0.  1.
      99926    2    1    2    0    0  0.00000000000E+00  0.00000000000E+00 -0.40601753217E+03  0.60775898490E+03  0.45223970115E+03 0.  0.
      99925    2    3    3    0    0 -0.30171115620E+02 -0.39804334121E+02 -0.12347317875E+03  0.29475179492E+03  0.26294165418E+03 0.  0.
         25    1    4    4    0    0  0.18215844814E+02 -0.31489543893E+02 -0.82768755968E+02  0.15434242269E+03  0.12509000000E+03 0.  0.
         25    1    3    3    0    0  0.30171115620E+02  0.39804334121E+02 -0.28254435341E+03  0.31300718998E+03  0.12509000000E+03 0.  0.
         25    1    4    4    0    0 -0.48386960434E+02 -0.83147902276E+01 -0.40704422786E+02  0.14040937223E+03  0.12509000000E+03 0.  0.
<mgrwt>
<rscale>  2 0.45223970E+03</rscale>
<asrwt>0</asrwt>
<pdfrwt beam="1">  1       21 0.14833930E-01 0.45223970E+03</pdfrwt>
<pdfrwt beam="2">  1       21 0.74542391E-01 0.45223970E+03</pdfrwt>
<totfact> 0.59489781E+04</totfact>
</mgrwt>
</event>
<event>
 7    0  0.4712189E-002  0.4517431E+03  0.7546771E-02  0.1027204E+00
         21   -1    0    0  502  501  0.00000000000E+00  0.00000000000E+00  0.77397015852E+02  0.77397015852E+02  0.00000000000E+00 0.  1.
         21   -1    0    0  501  502 -0.00000000000E+00 -0.00000000000E+00 -0.65917216183E+03  0.65917216183E+03  0.00000000000E+00 0.  1.
      99926    2    1    2    0    0  0.00000000000E+00  0.00000000000E+00 -0.58177514598E+03  0.73656917768E+03  0.45174310513E+03 0.  0.
      99925    2    3    3    0    0  0.64574922847E+02  0.67124188262E+02 -0.27353288099E+03  0.39111819804E+03  0.26358609702E+03 0.  0.
         25    1    3    3    0    0 -0.64574922847E+02 -0.67124188262E+02 -0.30824226499E+03  0.34545097964E+03  0.12509000000E+03 0.  0.
         25    1    4    4    0    0  0.44243894752E+02  0.48738289677E+02 -0.90879933855E+02  0.16804646257E+03  0.12509000000E+03 0.  0.
         25    1    4    4    0    0  0.20331028096E+02  0.18385898585E+02 -0.18265294714E+03  0.22307173548E+03  0.12509000000E+03 0.  0.
<mgrwt>
<rscale>  2 0.45174311E+03</rscale>
<asrwt>0</asrwt>
<pdfrwt beam="1">  1       21 0.11381914E-01 0.45174311E+03</pdfrwt>
<pdfrwt beam="2">  1       21 0.96937085E-01 0.45174311E+03</pdfrwt>
<totfact> 0.52288159E+04</totfact>
</mgrwt>
</event>
<event>
 7    0  0.4712189E-002  0.4557182E+03  0.7546771E-02  0.1026030E+00
         21   -1    0    0  502  501  0.00000000000E+00  0.00000000000E+00  0.56880258102E+02  0.56880258102E+02  0.00000000000E+00 0. -1.
         21   -1    0    0  501  502 -0.00000000000E+00 -0.00000000000E+00 -0.91279077720E+03  0.91279077720E+03  0.00000000000E+00 0. -1.
      99926    2    1    2    0    0  0.00000000000E+00 -0.17763568394E-14 -0.85591051910E+03  0.96967103530E+03  0.45571822434E+03 0.  0.
      99925    2    3    3    0    0  0.11312225750E+03 -0.32251906832E+01 -0.56360632058E+03  0.63218577701E+03  0.26305840617E+03 0.  0.
         25    1    3    3    0    0 -0.11312225750E+03  0.32251906832E+01 -0.29230419852E+03  0.33748525829E+03  0.12509000000E+03 0.  0.
         25    1    4    4    0    0  0.56988120759E+02 -0.37567271491E+02 -0.24105569799E+03  0.28002554067E+03  0.12509000000E+03 0.  0.
         25    1    4    4    0    0  0.56134136737E+02  0.34342080807E+02 -0.32255062260E+03  0.35216023634E+03  0.12509000000E+03 0.  0.
<mgrwt>
<rscale>  2 0.45571822E+03</rscale>
<asrwt>0</asrwt>
<pdfrwt beam="1">  1       21 0.83647434E-02 0.45571822E+03</pdfrwt>
<pdfrwt beam="2">  1       21 0.13423395E+00 0.45571822E+03</pdfrwt>
<totfact> 0.40128582E+04</totfact>
</mgrwt>
</event>
<event>
 7    0  0.4712189E-002  0.4360745E+03  0.7546771E-02  0.1031958E+00
         21   -1    0    0  502  501  0.00000000000E+00  0.00000000000E+00  0.14579416558E+03  0.14579416558E+03  0.00000000000E+00 0. -1.
         21   -1    0    0  501  502 -0.00000000000E+00 -0.00000000000E+00 -0.32607781633E+03  0.32607781633E+03  0.00000000000E+00 0. -1.
      99926    2    1    2    0    0  0.00000000000E+00  0.00000000000E+00 -0.18028365076E+03  0.47187198191E+03  0.43607450347E+03 0.  0.
      99925    2    3    3    0    0 -0.70181238469E+02  0.61816281137E+02 -0.12886072842E+03  0.30743815361E+03  0.26299519410E+03 0.  0.
         25    1    3    3    0    0  0.70181238469E+02 -0.61816281137E+02 -0.51422922337E+02  0.16443382830E+03  0.12509000000E+03 0.  0.
         25    1    4    4    0    0 -0.69669060320E+02  0.25568411634E+02 -0.91937039960E+02  0.17206815236E+03  0.12509000000E+03 0.  0.
         25    1    4    4    0    0 -0.51217814950E+00  0.36247869503E+02 -0.36923688461E+02  0.13537000125E+03  0.12509000000E+03 0.  0.
<mgrwt>
<rscale>  2 0.43607450E+03</rscale>
<asrwt>0</asrwt>
<pdfrwt beam="1">  1       21 0.21440319E-01 0.43607450E+03</pdfrwt>
<pdfrwt beam="2">  1       21 0.47952619E-01 0.43607450E+03</pdfrwt>
<totfact> 0.78433623E+04</totfact>
</mgrwt>
</event>
<event>
 7    0  0.4979087E-002  0.4076815E+03  0.7546771E-02  0.1041152E+00
         21   -1    0    0  502  501  0.00000000000E+00  0.00000000000E+00  0.43165452738E+03  0.43165452738E+03  0.00000000000E+00 0.  1.
         21   -1    0    0  501  502 -0.00000000000E+00 -0.00000000000E+00 -0.96259978521E+02  0.96259978521E+02  0.00000000000E+00 0.  1.
      99926    2    1    2    0    0  0.71054273576E-14 -0.35527136788E-14  0.33539454886E+03  0.52791450590E+03  0.40768152048E+03 0.  0.
      99925    2    3    3    0    0 -0.53533476232E+02  0.13531875673E+02  0.23912202862E+03  0.36068756133E+03  0.26432409575E+03 0.  0.
         25    1    4    4    0    0 -0.21391068800E+01  0.37658495600E+02  0.13853819589E+03  0.19042866877E+03  0.12509000000E+03 0.  0.
         25    1    3    3    0    0  0.53533476232E+02 -0.13531875673E+02  0.96272520244E+02  0.16722694457E+03  0.12509000000E+03 0.  0.
         25    1    4    4    0    0 -0.51394369352E+02 -0.24126619927E+02  0.10058383273E+03  0.17025889256E+03  0.12509000000E+03 0.  0.
<mgrwt>
<rscale>  2 0.40768152E+03</rscale>
<asrwt>0</asrwt>
<pdfrwt beam="1">  1       21 0.63478606E-01 0.40768152E+03</pdfrwt>
<pdfrwt beam="2">  1       21 0.14155879E-01 0.40768152E+03</pdfrwt>
<totfact> 0.93877136E+04</totfact>
</mgrwt>
</event>
<event>
 7    0  0.4712189E-002  0.4476178E+03  0.7546771E-02  0.1028435E+00
         21   -1    0    0  502  501  0.00000000000E+00  0.00000000000E+00  0.48022613497E+02  0.48022613497E+02  0.00000000000E+00 0. -1.
         21   -1    0    0  501  502 -0.00000000000E+00 -0.00000000000E+00 -0.10430592282E+04  0.10430592282E+04  0.00000000000E+00 0. -1.
      99926    2    1    2    0    0  0.00000000000E+00  0.00000000000E+00 -0.99503661472E+03  0.10910818417E+04  0.44761782883E+03 0.  0.
      99925    2    3    3    0    0  0.88868930294E+02  0.13777554422E+02 -0.76743490215E+03  0.81624087780E+03  0.26306906656E+03 0.  0.
         25    1    3    3    0    0 -0.88868930294E+02 -0.13777554422E+02 -0.22760171257E+03  0.27484096391E+03  0.12509000000E+03 0.  0.
         25    1    4    4    0    0  0.46864747137E+02 -0.48851532768E+01 -0.27018924348E+03  0.30144635449E+03  0.12509000000E+03 0.  0.
         25    1    4    4    0    0  0.42004183157E+02  0.18662707699E+02 -0.49724565867E+03  0.51479452331E+03  0.12509000000E+03 0.  0.
<mgrwt>
<rscale>  2 0.44761783E+03</rscale>
<asrwt>0</asrwt>
<pdfrwt beam="1">  1       21 0.70621489E-02 0.44761783E+03</pdfrwt>
<pdfrwt beam="2">  1       21 0.15339107E+00 0.44761783E+03</pdfrwt>
<totfact> 0.37943701E+04</totfact>
</mgrwt>
</event>
<event>
 7    0  0.4712189E-002  0.4608056E+03  0.7546771E-02  0.1024548E+00
         21   -1    0    0  502  501  0.00000000000E+00  0.00000000000E+00  0.40764013309E+03  0.40764013309E+03  0.00000000000E+00 0.  1.
         21   -1    0    0  501  502 -0.00000000000E+00 -0.00000000000E+00 -0.13022627835E+03  0.13022627835E+03  0.00000000000E+00 0.  1.
      99926    2    1    2    0    0  0.00000000000E+00  0.00000000000E+00  0.27741385474E+03  0.53786641144E+03  0.46080563120E+03 0.  0.
      99925    2    3    3    0    0 -0.11225687045E+03 -0.35430741949E+02  0.15754282764E+03  0.32840635874E+03  0.26300960339E+03 0.  0.
         25    1    4    4    0    0 -0.15262836191E+02 -0.68522386060E+01  0.83561273718E+02  0.15136017279E+03  0.12509000000E+03 0.  0.
         25    1    3    3    0    0  0.11225687045E+03  0.35430741949E+02  0.11987102710E+03  0.20946005270E+03  0.12509000000E+03 0.  0.
         25    1    4    4    0    0 -0.96994034264E+02 -0.28578503343E+02  0.73981553922E+02  0.17704618594E+03  0.12509000000E+03 0.  0.
<mgrwt>
<rscale>  2 0.46080563E+03</rscale>
<asrwt>0</asrwt>
<pdfrwt beam="1">  1       21 0.59947078E-01 0.46080563E+03</pdfrwt>
<pdfrwt beam="2">  1       21 0.19150923E-01 0.46080563E+03</pdfrwt>
<totfact> 0.59874468E+04</totfact>
</mgrwt>
</event>
<event>
 7    0  0.4712189E-002  0.4568874E+03  0.7546771E-02  0.1025688E+00
         21   -1    0    0  502  501  0.00000000000E+00  0.00000000000E+00  0.13986260304E+04  0.13986260304E+04  0.00000000000E+00 0. -1.
         21   -1    0    0  501  502 -0.00000000000E+00 -0.00000000000E+00 -0.37312703281E+02  0.37312703281E+02  0.00000000000E+00 0. -1.
      99926    2    1    2    0    0  0.71054273576E-14  0.00000000000E+00  0.13613133271E+04  0.14359387337E+04  0.45688737375E+03 0.  0.
      99925    2    3    3    0    0  0.40655406174E+02 -0.59503605753E+02  0.11362128358E+04  0.11685228022E+04  0.26319648504E+03 0.  0.
         25    1    4    4    0    0  0.20622137901E+02 -0.15582405090E+02  0.39074340062E+03  0.41109122729E+03  0.12509000000E+03 0.  0.
         25    1    3    3    0    0 -0.40655406174E+02  0.59503605753E+02  0.22510049131E+03  0.26741593153E+03  0.12509000000E+03 0.  0.
         25    1    4    4    0    0  0.20033268273E+02 -0.43921200663E+02  0.74546943521E+03  0.75743157488E+03  0.12509000000E+03 0.  0.
<mgrwt>
<rscale>  2 0.45688737E+03</rscale>
<asrwt>0</asrwt>
<pdfrwt beam="1">  1       21 0.20568026E+00 0.45688737E+03</pdfrwt>
<pdfrwt beam="2">  1       21 0.54871632E-02 0.45688737E+03</pdfrwt>
<totfact> 0.25020921E+04</totfact>
</mgrwt>
</event>
<event>
 7    0  0.4712189E-002  0.4602954E+03  0.7546771E-02  0.1024696E+00
         21   -1    0    0  502  501  0.00000000000E+00  0.00000000000E+00  0.57356115587E+03  0.57356115587E+03  0.00000000000E+00 0.  1.
         21   -1    0    0  501  502 -0.00000000000E+00 -0.00000000000E+00 -0.92349268160E+02  0.92349268160E+02  0.00000000000E+00 0.  1.
      99926    2    1    2    0    0 -0.71054273576E-14  0.00000000000E+00  0.48121188771E+03  0.66591042403E+03  0.46029535296E+03 0.  0.
      99925    2    3    3    0    0  0.26766672447E+02 -0.95189374266E+02  0.39488425531E+03  0.48458905204E+03  0.26289827411E+03 0.  0.
         25    1    3    3    0    0 -0.26766672447E+02  0.95189374266E+02  0.86327632400E+02  0.18132137200E+03  0.12509000000E+03 0.  0.
         25    1    4    4    0    0 -0.93878802028E+01 -0.72636626818E+02  0.16676786809E+03  0.22095981938E+03  0.12509000000E+03 0.  0.
         25    1    4    4    0    0  0.36154552650E+02 -0.22552747449E+02  0.22811638722E+03  0.26362923266E+03  0.12509000000E+03 0.  0.
<mgrwt>
<rscale>  2 0.46029535E+03</rscale>
<asrwt>0</asrwt>
<pdfrwt beam="1">  1       21 0.84347227E-01 0.46029535E+03</pdfrwt>
<pdfrwt beam="2">  1       21 0.13580775E-01 0.46029535E+03</pdfrwt>
<totfact> 0.52563828E+04</totfact>
</mgrwt>
</event>
<event>
 7    0  0.4712189E-002  0.4423171E+03  0.7546771E-02  0.1030038E+00
         21   -1    0    0  502  501  0.00000000000E+00  0.00000000000E+00  0.96503972565E+02  0.96503972565E+02  0.00000000000E+00 0. -1.
         21   -1    0    0  501  502 -0.00000000000E+00 -0.00000000000E+00 -0.50683002108E+03  0.50683002108E+03  0.00000000000E+00 0. -1.
      99926    2    1    2    0    0  0.00000000000E+00 -0.35527136788E-14 -0.41032604852E+03  0.60333399365E+03  0.44231712809E+03 0.  0.
      99925    2    3    3    0    0 -0.77621608099E+02 -0.22544722722E+02 -0.34319278308E+03  0.43997009924E+03  0.26317109131E+03 0.  0.
         25    1    4    4    0    0 -0.67689728229E+02 -0.58612859297E+01 -0.13423947601E+03  0.19566297299E+03  0.12509000000E+03 0.  0.
         25    1    3    3    0    0  0.77621608099E+02  0.22544722722E+02 -0.67133265431E+02  0.16336389440E+03  0.12509000000E+03 0.  0.
         25    1    4    4    0    0 -0.99318798695E+01 -0.16683436793E+02 -0.20895330707E+03  0.24430712625E+03  0.12509000000E+03 0.  0.
<mgrwt>
<rscale>  2 0.44231713E+03</rscale>
<asrwt>0</asrwt>
<pdfrwt beam="1">  1       21 0.14191761E-01 0.44231713E+03</pdfrwt>
<pdfrwt beam="2">  1       21 0.74533826E-01 0.44231713E+03</pdfrwt>
<totfact> 0.64718237E+04</totfact>
</mgrwt>
</event>
<event>
 7    0  0.4712189E-002  0.4163345E+03  0.7546771E-02  0.1038266E+00
         21   -1    0    0  502  501  0.00000000000E+00  0.00000000000E+00  0.56097449727E+03  0.56097449727E+03  0.00000000000E+00 0.  1.
         21   -1    0    0  501  502 -0.00000000000E+00 -0.00000000000E+00 -0.77247004434E+02  0.77247004434E+02  0.00000000000E+00 0.  1.
      99926    2    1    2    0    0  0.00000000000E+00  0.00000000000E+00  0.48372749283E+03  0.63822150170E+03  0.41633447841E+03 0.  0.
      99925    2    3    3    0    0 -0.58700753459E+02  0.39942782024E+02  0.30846332554E+03  0.41149205781E+03  0.26293513675E+03 0.  0.
         25    1    4    4    0    0 -0.27265010934E+02  0.74232333814E+01  0.93520514731E+02  0.15872013102E+03  0.12509000000E+03 0.  0.
         25    1    4    4    0    0 -0.31435742525E+02  0.32519548643E+02  0.21494281081E+03  0.25277192679E+03  0.12509000000E+03 0.  0.
         25    1    3    3    0    0  0.58700753459E+02 -0.39942782024E+02  0.17526416729E+03  0.22672944389E+03  0.12509000000E+03 0.  0.
<mgrwt>
<rscale>  2 0.41633448E+03</rscale>
<asrwt>0</asrwt>
<pdfrwt beam="1">  1       21 0.82496248E-01 0.41633448E+03</pdfrwt>
<pdfrwt beam="2">  1       21 0.11359854E-01 0.41633448E+03</pdfrwt>
<totfact> 0.77430747E+04</totfact>
</mgrwt>
</event>
<event>
 7    0  0.4712189E-002  0.4538851E+03  0.7546771E-02  0.1026570E+00
         21   -1    0    0  502  501  0.00000000000E+00  0.00000000000E+00  0.59625599819E+02  0.59625599819E+02  0.00000000000E+00 0.  1.
         21   -1    0    0  501  502 -0.00000000000E+00 -0.00000000000E+00 -0.86377206958E+03  0.86377206958E+03  0.00000000000E+00 0.  1.
      99926    2    1    2    0    0  0.71054273576E-14  0.00000000000E+00 -0.80414646976E+03  0.92339766940E+03  0.45388512977E+03 0.  0.
      99925    2    3    3    0    0 -0.57053137862E+02  0.44588554716E+02 -0.33238481194E+03  0.42999137674E+03  0.26300137092E+03 0.  0.
         25    1    3    3    0    0  0.57053137862E+02 -0.44588554716E+02 -0.47176165782E+03  0.49340629266E+03  0.12509000000E+03 0.  0.
         25    1    4    4    0    0 -0.40222961589E+02 -0.13762412617E+02 -0.18536753298E+03  0.22763110733E+03  0.12509000000E+03 0.  0.
         25    1    4    4    0    0 -0.16830176273E+02  0.58350967334E+02 -0.14701727897E+03  0.20236026941E+03  0.12509000000E+03 0.  0.
<mgrwt>
<rscale>  2 0.45388513E+03</rscale>
<asrwt>0</asrwt>
<pdfrwt beam="1">  1       21 0.87684712E-02 0.45388513E+03</pdfrwt>
<pdfrwt beam="2">  1       21 0.12702530E+00 0.45388513E+03</pdfrwt>
<totfact> 0.42607625E+04</totfact>
</mgrwt>
</event>
<event>
 7    0  0.4712189E-002  0.4477134E+03  0.7546771E-02  0.1028406E+00
         21   -1    0    0  502  501  0.00000000000E+00  0.00000000000E+00  0.42424903546E+02  0.42424903546E+02  0.00000000000E+00 0.  1.
         21   -1    0    0  501  502 -0.00000000000E+00 -0.00000000000E+00 -0.11811890284E+04  0.11811890284E+04  0.00000000000E+00 0.  1.
      99926    2    1    2    0    0  0.00000000000E+00  0.00000000000E+00 -0.11387641249E+04  0.12236139320E+04  0.44771343781E+03 0.  0.
      99925    2    3    3    0    0  0.52574008845E+02  0.69468043098E+02 -0.88735311862E+03  0.92959890244E+03  0.26299948077E+03 0.  0.
         25    1    4    4    0    0  0.62267328831E+02  0.50789628017E+02 -0.52707331570E+03  0.54764093600E+03  0.12509000000E+03 0.  0.
         25    1    4    4    0    0 -0.96933199866E+01  0.18678415081E+02 -0.36027980292E+03  0.38195796645E+03  0.12509000000E+03 0.  0.
         25    1    3    3    0    0 -0.52574008845E+02 -0.69468043098E+02 -0.25141100625E+03  0.29401502951E+03  0.12509000000E+03 0.  0.
<mgrwt>
<rscale>  2 0.44771344E+03</rscale>
<asrwt>0</asrwt>
<pdfrwt beam="1">  1       21 0.62389565E-02 0.44771344E+03</pdfrwt>
<pdfrwt beam="2">  1       21 0.17370427E+00 0.44771344E+03</pdfrwt>
<totfact> 0.33263816E+04</totfact>
</mgrwt>
</event>
<event>
 7    0  0.4712189E-002  0.4556946E+03  0.7546771E-02  0.1026037E+00
         21   -1    0    0  502  501  0.00000000000E+00  0.00000000000E+00  0.50760204107E+03  0.50760204107E+03  0.00000000000E+00 0. -1.
         21   -1    0    0  501  502 -0.00000000000E+00 -0.00000000000E+00 -0.10227378838E+03  0.10227378838E+03  0.00000000000E+00 0. -1.
      99926    2    1    2    0    0  0.00000000000E+00  0.00000000000E+00  0.40532825269E+03  0.60987582946E+03  0.45569456320E+03 0.  0.
      99925    2    3    3    0    0  0.37509804726E+02 -0.23884290229E+02  0.39520020911E+03  0.47673105811E+03  0.26289133062E+03 0.  0.
         25    1    3    3    0    0 -0.37509804726E+02  0.23884290229E+02  0.10128043580E+02  0.13314477135E+03  0.12509000000E+03 0.  0.
         25    1    4    4    0    0  0.54906990687E+01 -0.25491995729E+02  0.26038660618E+03  0.29004944819E+03  0.12509000000E+03 0.  0.
         25    1    4    4    0    0  0.32019105657E+02  0.16077055000E+01  0.13481360293E+03  0.18668160991E+03  0.12509000000E+03 0.  0.
<mgrwt>
<rscale>  2 0.45569456E+03</rscale>
<asrwt>0</asrwt>
<pdfrwt beam="1">  1       21 0.74647357E-01 0.45569456E+03</pdfrwt>
<pdfrwt beam="2">  1       21 0.15040263E-01 0.45569456E+03</pdfrwt>
<totfact> 0.57756941E+04</totfact>
</mgrwt>
</event>
<event>
 7    0  0.4712189E-002  0.4531176E+03  0.7546771E-02  0.1026796E+00
         21   -1    0    0  502  501  0.00000000000E+00  0.00000000000E+00  0.56236386845E+03  0.56236386845E+03  0.00000000000E+00 0. -1.
         21   -1    0    0  501  502 -0.00000000000E+00 -0.00000000000E+00 -0.91273436997E+02  0.91273436997E+02  0.00000000000E+00 0. -1.
      99926    2    1    2    0    0  0.35527136788E-14  0.14210854715E-13  0.47109043145E+03  0.65363730545E+03  0.45311757024E+03 0.  0.
      99925    2    3    3    0    0  0.23854821575E+02 -0.10821012142E+03  0.31355111166E+03  0.42397531845E+03  0.26298723950E+03 0.  0.
         25    1    4    4    0    0  0.42509063087E+02 -0.68276726435E+02  0.13002260470E+03  0.19754016718E+03  0.12509000000E+03 0.  0.
         25    1    4    4    0    0 -0.18654241512E+02 -0.39933394990E+02  0.18352850696E+03  0.22643515127E+03  0.12509000000E+03 0.  0.
         25    1    3    3    0    0 -0.23854821575E+02  0.10821012142E+03  0.15753931979E+03  0.22966198700E+03  0.12509000000E+03 0.  0.
<mgrwt>
<rscale>  2 0.45311757E+03</rscale>
<asrwt>0</asrwt>
<pdfrwt beam="1">  1       21 0.82700567E-01 0.45311757E+03</pdfrwt>
<pdfrwt beam="2">  1       21 0.13422565E-01 0.45311757E+03</pdfrwt>
<totfact> 0.56324108E+04</totfact>
</mgrwt>
</event>
<event>
 7    0  0.4712189E-002  0.4629366E+03  0.7546771E-02  0.1023933E+00
         21   -1    0    0  502  501  0.00000000000E+00  0.00000000000E+00  0.97081935299E+02  0.97081935299E+02  0.00000000000E+00 0.  1.
         21   -1    0    0  501  502 -0.00000000000E+00 -0.00000000000E+00 -0.55187988145E+03  0.55187988145E+03  0.00000000000E+00 0.  1.
      99926    2    1    2    0    0  0.00000000000E+00  0.71054273576E-14 -0.45479794615E+03  0.64896181675E+03  0.46293656993E+03 0.  0.
      99925    2    3    3    0    0  0.11611176409E+02  0.61853174756E+02 -0.14025395282E+03  0.30465662294E+03  0.26302823418E+03 0.  0.
         25    1    4    4    0    0  0.61551527769E+01  0.73590968771E+01 -0.29610455949E+02  0.12890434211E+03  0.12509000000E+03 0.  0.
         25    1    4    4    0    0  0.54560236322E+01  0.54494077879E+02 -0.11064349687E+03  0.17575228083E+03  0.12509000000E+03 0.  0.
         25    1    3    3    0    0 -0.11611176409E+02 -0.61853174756E+02 -0.31454399333E+03  0.34430519381E+03  0.12509000000E+03 0.  0.
<mgrwt>
<rscale>  2 0.46293657E+03</rscale>
<asrwt>0</asrwt>
<pdfrwt beam="1">  1       21 0.14276755E-01 0.46293657E+03</pdfrwt>
<pdfrwt beam="2">  1       21 0.81158808E-01 0.46293657E+03</pdfrwt>
<totfact> 0.52402139E+04</totfact>
</mgrwt>
</event>
<event>
 7    0  0.4712189E-002  0.4573063E+03  0.7546771E-02  0.1025565E+00
         21   -1    0    0  502  501  0.00000000000E+00  0.00000000000E+00  0.14313543199E+03  0.14313543199E+03  0.00000000000E+00 0. -1.
         21   -1    0    0  501  502 -0.00000000000E+00 -0.00000000000E+00 -0.36526422729E+03  0.36526422729E+03  0.00000000000E+00 0. -1.
      99926    2    1    2    0    0  0.00000000000E+00  0.71054273576E-14 -0.22212879530E+03  0.50839965929E+03  0.45730625609E+03 0.  0.
      99925    2    3    3    0    0  0.62330833078E+01  0.32474923491E+02 -0.16652182058E+02  0.26557952282E+03  0.26298615133E+03 0.  0.
         25    1    3    3    0    0 -0.62330833078E+01 -0.32474923491E+02 -0.20547661324E+03  0.24282013647E+03  0.12509000000E+03 0.  0.
         25    1    4    4    0    0  0.73403740751E+01 -0.20340963496E+02  0.94852526891E+01  0.12729930874E+03  0.12509000000E+03 0.  0.
         25    1    4    4    0    0 -0.11072907673E+01  0.52815886987E+02 -0.26137434747E+02  0.13828021408E+03  0.12509000000E+03 0.  0.
<mgrwt>
<rscale>  2 0.45730626E+03</rscale>
<asrwt>0</asrwt>
<pdfrwt beam="1">  1       21 0.21049328E-01 0.45730626E+03</pdfrwt>
<pdfrwt beam="2">  1       21 0.53715327E-01 0.45730626E+03</pdfrwt>
<totfact> 0.63513919E+04</totfact>
</mgrwt>
</event>
<event>
 7    0  0.4712189E-002  0.4555717E+03  0.7546771E-02  0.1026073E+00
         21   -1    0    0  502  501  0.00000000000E+00  0.00000000000E+00  0.45591596604E+03  0.45591596604E+03  0.00000000000E+00 0. -1.
         21   -1    0    0  501  502 -0.00000000000E+00 -0.00000000000E+00 -0.11380694701E+03  0.11380694701E+03  0.00000000000E+00 0. -1.
      99926    2    1    2    0    0  0.00000000000E+00  0.00000000000E+00  0.34210901902E+03  0.56972291305E+03  0.45557174711E+03 0.  0.
      99925    2    3    3    0    0  0.71234465257E+02 -0.85672738499E+02  0.24546116063E+03  0.37632569540E+03  0.26259413642E+03 0.  0.
         25    1    4    4    0    0  0.45207779495E+02 -0.93580978581E+01  0.14372776919E+03  0.19605228144E+03  0.12509000000E+03 0.  0.
         25    1    3    3    0    0 -0.71234465257E+02  0.85672738499E+02  0.96647858392E+02  0.19339721765E+03  0.12509000000E+03 0.  0.
         25    1    4    4    0    0  0.26026685762E+02 -0.76314640641E+02  0.10173339144E+03  0.18027341397E+03  0.12509000000E+03 0.  0.
<mgrwt>
<rscale>  2 0.45557175E+03</rscale>
<asrwt>0</asrwt>
<pdfrwt beam="1">  1       21 0.67046465E-01 0.45557175E+03</pdfrwt>
<pdfrwt beam="2">  1       21 0.16736316E-01 0.45557175E+03</pdfrwt>
<totfact> 0.60308576E+04</totfact>
</mgrwt>
</event>
<event>
 7    0  0.4712189E-002  0.4491839E+03  0.7546771E-02  0.1027966E+00
         21   -1    0    0  502  501  0.00000000000E+00  0.00000000000E+00  0.10851438044E+03  0.10851438044E+03  0.00000000000E+00 0. -1.
         21   -1    0    0  501  502 -0.00000000000E+00 -0.00000000000E+00 -0.46483734516E+03  0.46483734516E+03  0.00000000000E+00 0. -1.
      99926    2    1    2    0    0 -0.35527136788E-14 -0.14210854715E-13 -0.35632296472E+03  0.57335172560E+03  0.44918386665E+03 0.  0.
      99925    2    3    3    0    0 -0.27399558884E+02 -0.10159984478E+03 -0.19669722104E+03  0.34487601479E+03  0.26301407666E+03 0.  0.
         25    1    4    4    0    0 -0.20986878636E+02 -0.17985836365E+02 -0.12144426413E+03  0.17652239737E+03  0.12509000000E+03 0.  0.
         25    1    3    3    0    0  0.27399558884E+02  0.10159984478E+03 -0.15962574368E+03  0.22847571081E+03  0.12509000000E+03 0.  0.
         25    1    4    4    0    0 -0.64126802480E+01 -0.83614008416E+02 -0.75252956914E+02  0.16835361741E+03  0.12509000000E+03 0.  0.
<mgrwt>
<rscale>  2 0.44918387E+03</rscale>
<asrwt>0</asrwt>
<pdfrwt beam="1">  1       21 0.15957997E-01 0.44918387E+03</pdfrwt>
<pdfrwt beam="2">  1       21 0.68358432E-01 0.44918387E+03</pdfrwt>
<totfact> 0.63206243E+04</totfact>
</mgrwt>
</event>
<event>
 6    0  0.4712189E-002  0.4517555E+03  0.7546771E-02  0.1027200E+00
         21   -1    0    0  502  501  0.00000000000E+00  0.00000000000E+00  0.38390180148E+02  0.38390180148E+02  0.00000000000E+00 0.  1.
         21   -1    0    0  501  502 -0.00000000000E+00 -0.00000000000E+00 -0.13290052325E+04  0.13290052325E+04  0.00000000000E+00 0.  1.
      99926    2    1    2    0    0  0.00000000000E+00  0.00000000000E+00 -0.12906150523E+04  0.13673954126E+04  0.45175546612E+03 0.  0.
         25    1    3    3    0    0 -0.49505234870E+02 -0.80297018925E+01 -0.47810035586E+03  0.49673202310E+03  0.12509000000E+03 0.  0.
         25    1    3    3    0    0  0.13221140012E+00 -0.81815211406E+02 -0.43499496446E+03  0.45995855629E+03  0.12509000000E+03 0.  0.
         25    1    3    3    0    0  0.49373023470E+02  0.89844913298E+02 -0.37751973198E+03  0.41070483322E+03  0.12509000000E+03 0.  0.
<mgrwt>
<rscale>  2 0.45175547E+03</rscale>
<asrwt>0</asrwt>
<pdfrwt beam="1">  1       21 0.56456152E-02 0.45175547E+03</pdfrwt>
<pdfrwt beam="2">  1       21 0.19544193E+00 0.45175547E+03</pdfrwt>
<totfact> 0.27911237E+04</totfact>
</mgrwt>
</event>
<event>
 7    0  0.4712189E-002  0.4521815E+03  0.7546771E-02  0.1027073E+00
         21   -1    0    0  502  501  0.00000000000E+00  0.00000000000E+00  0.90202084626E+03  0.90202084626E+03  0.00000000000E+00 0. -1.
         21   -1    0    0  501  502 -0.00000000000E+00 -0.00000000000E+00 -0.56669445988E+02  0.56669445988E+02  0.00000000000E+00 0. -1.
      99926    2    1    2    0    0  0.00000000000E+00  0.00000000000E+00  0.84535140027E+03  0.95869029225E+03  0.45218147519E+03 0.  0.
      99925    2    3    3    0    0  0.59655895435E+02 -0.88680082234E+02  0.47215636438E+03  0.55083612008E+03  0.26280375931E+03 0.  0.
         25    1    3    3    0    0 -0.59655895435E+02  0.88680082234E+02  0.37319503589E+03  0.40785417217E+03  0.12509000000E+03 0.  0.
         25    1    4    4    0    0  0.11439110851E+02 -0.14852817309E+02  0.16744414509E+03  0.20984877713E+03  0.12509000000E+03 0.  0.
         25    1    4    4    0    0  0.48216784584E+02 -0.73827264925E+02  0.30471221929E+03  0.34098734294E+03  0.12509000000E+03 0.  0.
<mgrwt>
<rscale>  2 0.45218148E+03</rscale>
<asrwt>0</asrwt>
<pdfrwt beam="1">  1       21 0.13265012E+00 0.45218148E+03</pdfrwt>
<pdfrwt beam="2">  1       21 0.83337426E-02 0.45218148E+03</pdfrwt>
<totfact> 0.41702405E+04</totfact>
</mgrwt>
</event>
<event>
 7    0  0.4712189E-002  0.4678042E+03  0.7546771E-02  0.1022542E+00
         21   -1    0    0  502  501  0.00000000000E+00  0.00000000000E+00  0.99093180375E+03  0.99093180375E+03  0.00000000000E+00 0.  1.
         21   -1    0    0  501  502 -0.00000000000E+00 -0.00000000000E+00 -0.55210853674E+02  0.55210853674E+02  0.00000000000E+00 0.  1.
      99926    2    1    2    0    0  0.35527136788E-14  0.00000000000E+00  0.93572095008E+03  0.10461426574E+04  0.46780419330E+03 0.  0.
      99925    2    3    3    0    0  0.30947648845E+02 -0.11481718855E+03  0.66688145945E+03  0.72666977348E+03  0.26301584549E+03 0.  0.
         25    1    4    4    0    0  0.20075330103E+00 -0.44250295950E+02  0.40790166724E+03  0.42893986436E+03  0.12509000000E+03 0.  0.
         25    1    3    3    0    0 -0.30947648845E+02  0.11481718855E+03  0.26883949063E+03  0.31947288394E+03  0.12509000000E+03 0.  0.
         25    1    4    4    0    0  0.30746895544E+02 -0.70566892596E+02  0.25897979221E+03  0.29772990913E+03  0.12509000000E+03 0.  0.
<mgrwt>
<rscale>  2 0.46780419E+03</rscale>
<asrwt>0</asrwt>
<pdfrwt beam="1">  1       21 0.14572525E+00 0.46780419E+03</pdfrwt>
<pdfrwt beam="2">  1       21 0.81192438E-02 0.46780419E+03</pdfrwt>
<totfact> 0.33901997E+04</totfact>
</mgrwt>
</event>
<event>
 7    0  0.4712189E-002  0.4560553E+03  0.7546771E-02  0.1025932E+00
         21   -1    0    0  502  501  0.00000000000E+00  0.00000000000E+00  0.37623079040E+02  0.37623079040E+02  0.00000000000E+00 0. -1.
         21   -1    0    0  501  502 -0.00000000000E+00 -0.00000000000E+00 -0.13820400278E+04  0.13820400278E+04  0.00000000000E+00 0. -1.
      99926    2    1    2    0    0  0.00000000000E+00  0.00000000000E+00 -0.13444169488E+04  0.14196631068E+04  0.45605526508E+03 0.  0.
      99925    2    3    3    0    0  0.20184907514E+02 -0.94445704268E+02 -0.65538168883E+03  0.71273700104E+03  0.26294762414E+03 0.  0.
         25    1    3    3    0    0 -0.20184907514E+02  0.94445704268E+02 -0.68903525992E+03  0.70692610580E+03  0.12509000000E+03 0.  0.
         25    1    4    4    0    0 -0.68077662807E+01 -0.79950742960E+02 -0.30122329905E+03  0.33588904563E+03  0.12509000000E+03 0.  0.
         25    1    4    4    0    0  0.26992673795E+02 -0.14494961309E+02 -0.35415838978E+03  0.37684795541E+03  0.12509000000E+03 0.  0.
<mgrwt>
<rscale>  2 0.45605527E+03</rscale>
<asrwt>0</asrwt>
<pdfrwt beam="1">  1       21 0.55328061E-02 0.45605527E+03</pdfrwt>
<pdfrwt beam="2">  1       21 0.20324117E+00 0.45605527E+03</pdfrwt>
<totfact> 0.25602130E+04</totfact>
</mgrwt>
</event>
<event>
 7    0  0.4712189E-002  0.4503382E+03  0.7546771E-02  0.1027621E+00
         21   -1    0    0  502  501  0.00000000000E+00  0.00000000000E+00  0.30106018644E+02  0.30106018644E+02  0.00000000000E+00 0. -1.
         21   -1    0    0  501  502 -0.00000000000E+00 -0.00000000000E+00 -0.16840858677E+04  0.16840858677E+04  0.00000000000E+00 0. -1.
      99926    2    1    2    0    0  0.71054273576E-14 -0.17763568394E-14 -0.16539798490E+04  0.17141918863E+04  0.45033818639E+03 0.  0.
      99925    2    3    3    0    0  0.35664927833E+02 -0.12531246758E+02 -0.65655310916E+03  0.70824127683E+03  0.26289675128E+03 0.  0.
         25    1    3    3    0    0 -0.35664927833E+02  0.12531246758E+02 -0.99742673989E+03  0.10059506095E+04  0.12509000000E+03 0.  0.
         25    1    4    4    0    0 -0.14167644700E+02 -0.20201653151E+02 -0.37432969212E+03  0.39544791749E+03  0.12509000000E+03 0.  0.
         25    1    4    4    0    0  0.49832572534E+02  0.76704063932E+01 -0.28222341704E+03  0.31279335934E+03  0.12509000000E+03 0.  0.
<mgrwt>
<rscale>  2 0.45033819E+03</rscale>
<asrwt>0</asrwt>
<pdfrwt beam="1">  1       21 0.44273533E-02 0.45033819E+03</pdfrwt>
<pdfrwt beam="2">  1       21 0.24765982E+00 0.45033819E+03</pdfrwt>
<totfact> 0.19670304E+04</totfact>
</mgrwt>
</event>
<event>
 7    0  0.4712189E-002  0.4409647E+03  0.7546771E-02  0.1030451E+00
         21   -1    0    0  502  501  0.00000000000E+00  0.00000000000E+00  0.54712378684E+02  0.54712378684E+02  0.00000000000E+00 0.  1.
         21   -1    0    0  501  502 -0.00000000000E+00 -0.00000000000E+00 -0.88850941315E+03  0.88850941315E+03  0.00000000000E+00 0.  1.
      99926    2    1    2    0    0  0.00000000000E+00  0.00000000000E+00 -0.83379703446E+03  0.94322179183E+03  0.44096468555E+03 0.  0.
      99925    2    3    3    0    0 -0.55927852094E+02  0.81306687644E+02 -0.50746157219E+03  0.58006749387E+03  0.26310140268E+03 0.  0.
         25    1    4    4    0    0 -0.58991198399E+01  0.75316479358E+02 -0.26140266111E+03  0.29947659510E+03  0.12509000000E+03 0.  0.
         25    1    4    4    0    0 -0.50028732254E+02  0.59902082856E+01 -0.24605891109E+03  0.28059089877E+03  0.12509000000E+03 0.  0.
         25    1    3    3    0    0  0.55927852094E+02 -0.81306687644E+02 -0.32633546227E+03  0.36315429796E+03  0.12509000000E+03 0.  0.
<mgrwt>
<rscale>  2 0.44096469E+03</rscale>
<asrwt>0</asrwt>
<pdfrwt beam="1">  1       21 0.80459385E-02 0.44096469E+03</pdfrwt>
<pdfrwt beam="2">  1       21 0.13066314E+00 0.44096469E+03</pdfrwt>
<totfact> 0.46292484E+04</totfact>
</mgrwt>
</event>
<event>
 7    0  0.4712189E-002  0.4580585E+03  0.7546771E-02  0.1025346E+00
         21   -1    0    0  502  501  0.00000000000E+00  0.00000000000E+00  0.93370273619E+02  0.93370273619E+02  0.00000000000E+00 0. -1.
         21   -1    0    0  501  502 -0.00000000000E+00 -0.00000000000E+00 -0.56178904706E+03  0.56178904706E+03  0.00000000000E+00 0. -1.
      99926    2    1    2    0    0 -0.14210854715E-13  0.00000000000E+00 -0.46841877344E+03  0.65515932067E+03  0.45805849862E+03 0.  0.
      99925    2    3    3    0    0  0.67712748273E+02 -0.80395140750E+02 -0.36416372320E+03  0.46134234893E+03  0.26300789093E+03 0.  0.
         25    1    4    4    0    0  0.33962725229E+02 -0.22369165482E+02 -0.23552776955E+03  0.26976783462E+03  0.12509000000E+03 0.  0.
         25    1    4    4    0    0  0.33750023044E+02 -0.58025975268E+02 -0.12863595365E+03  0.19157451431E+03  0.12509000000E+03 0.  0.
         25    1    3    3    0    0 -0.67712748273E+02  0.80395140750E+02 -0.10425505024E+03  0.19381697174E+03  0.12509000000E+03 0.  0.
<mgrwt>
<rscale>  2 0.45805850E+03</rscale>
<asrwt>0</asrwt>
<pdfrwt beam="1">  1       21 0.13730922E-01 0.45805850E+03</pdfrwt>
<pdfrwt beam="2">  1       21 0.82616038E-01 0.45805850E+03</pdfrwt>
<totfact> 0.54088502E+04</totfact>
</mgrwt>
</event>
<event>
 7    0  0.4712189E-002  0.4555231E+03  0.7546771E-02  0.1026088E+00
         21   -1    0    0  502  501  0.00000000000E+00  0.00000000000E+00  0.64396725796E+02  0.64396725796E+02  0.00000000000E+00 0.  1.
         21   -1    0    0  501  502 -0.00000000000E+00 -0.00000000000E+00 -0.80555826955E+03  0.80555826955E+03  0.00000000000E+00 0.  1.
      99926    2    1    2    0    0 -0.88817841970E-15  0.00000000000E+00 -0.74116154375E+03  0.86995499535E+03  0.45552306197E+03 0.  0.
      99925    2    3    3    0    0  0.76950479366E+01  0.11136903189E+03 -0.50537176126E+03  0.58063405823E+03  0.26319767755E+03 0.  0.
         25    1    4    4    0    0 -0.85194338739E+01  0.43039666579E+02 -0.16779209617E+03  0.21383799777E+03  0.12509000000E+03 0.  0.
         25    1    3    3    0    0 -0.76950479366E+01 -0.11136903189E+03 -0.23578978249E+03  0.28932093712E+03  0.12509000000E+03 0.  0.
         25    1    4    4    0    0  0.16214481810E+02  0.68329365312E+02 -0.33757966509E+03  0.36679606046E+03  0.12509000000E+03 0.  0.
<mgrwt>
<rscale>  2 0.45552306E+03</rscale>
<asrwt>0</asrwt>
<pdfrwt beam="1">  1       21 0.94701065E-02 0.45552306E+03</pdfrwt>
<pdfrwt beam="2">  1       21 0.11846445E+00 0.45552306E+03</pdfrwt>
<totfact> 0.44376130E+04</totfact>
</mgrwt>
</event>
<event>
 7    0  0.4712189E-002  0.4544353E+03  0.7546771E-02  0.1026408E+00
         21   -1    0    0  502  501  0.00000000000E+00  0.00000000000E+00  0.67693441938E+03  0.67693441938E+03  0.00000000000E+00 0. -1.
         21   -1    0    0  501  502 -0.00000000000E+00 -0.00000000000E+00 -0.76267150533E+02  0.76267150533E+02  0.00000000000E+00 0. -1.
      99926    2    1    2    0    0  0.00000000000E+00  0.00000000000E+00  0.60066726884E+03  0.75320156991E+03  0.45443529468E+03 0.  0.
      99925    2    3    3    0    0 -0.34498512963E+02  0.85440281947E+02  0.48559392237E+03  0.55986359551E+03  0.26297452150E+03 0.  0.
         25    1    4    4    0    0 -0.36202383453E+02  0.56231893303E+02  0.18621653646E+03  0.23408704566E+03  0.12509000000E+03 0.  0.
         25    1    3    3    0    0  0.34498512963E+02 -0.85440281947E+02  0.11507334647E+03  0.19333797440E+03  0.12509000000E+03 0.  0.
         25    1    4    4    0    0  0.17038704903E+01  0.29208388645E+02  0.29937738591E+03  0.32577654985E+03  0.12509000000E+03 0.  0.
<mgrwt>
<rscale>  2 0.45443529E+03</rscale>
<asrwt>0</asrwt>
<pdfrwt beam="1">  1       21 0.99549176E-01 0.45443529E+03</pdfrwt>
<pdfrwt beam="2">  1       21 0.11215758E-01 0.45443529E+03</pdfrwt>
<totfact> 0.50330830E+04</totfact>
</mgrwt>
</event>
<event>
 7    0  0.4712189E-002  0.4574021E+03  0.7546771E-02  0.1025537E+00
         21   -1    0    0  502  501  0.00000000000E+00  0.00000000000E+00  0.93096711208E+02  0.93096711208E+02  0.00000000000E+00 0.  1.
         21   -1    0    0  501  502 -0.00000000000E+00 -0.00000000000E+00 -0.56182624321E+03  0.56182624321E+03  0.00000000000E+00 0.  1.
      99926    2    1    2    0    0 -0.14210854715E-13  0.00000000000E+00 -0.46872953200E+03  0.65492295442E+03  0.45740212292E+03 0.  0.
      99925    2    3    3    0    0  0.94461523189E+02  0.52559745600E+02 -0.35207640598E+03  0.45258421337E+03  0.26303834001E+03 0.  0.
         25    1    3    3    0    0 -0.94461523189E+02 -0.52559745600E+02 -0.11665312602E+03  0.20233874105E+03  0.12509000000E+03 0.  0.
         25    1    4    4    0    0  0.29432919624E+02  0.17231112673E+02 -0.22422019247E+03  0.25900851494E+03  0.12509000000E+03 0.  0.
         25    1    4    4    0    0  0.65028603565E+02  0.35328632927E+02 -0.12785621352E+03  0.19357569843E+03  0.12509000000E+03 0.  0.
<mgrwt>
<rscale>  2 0.45740212E+03</rscale>
<asrwt>0</asrwt>
<pdfrwt beam="1">  1       21 0.13690693E-01 0.45740212E+03</pdfrwt>
<pdfrwt beam="2">  1       21 0.82621504E-01 0.45740212E+03</pdfrwt>
<totfact> 0.54381036E+04</totfact>
</mgrwt>
</event>
<event>
 7    0  0.4712189E-002  0.4378536E+03  0.7546771E-02  0.1031407E+00
         21   -1    0    0  502  501  0.00000000000E+00  0.00000000000E+00  0.25669828012E+03  0.25669828012E+03  0.00000000000E+00 0.  1.
         21   -1    0    0  501  502 -0.00000000000E+00 -0.00000000000E+00 -0.18671314989E+03  0.18671314989E+03  0.00000000000E+00 0.  1.
      99926    2    1    2    0    0 -0.35527136788E-14 -0.14210854715E-13  0.69985130233E+02  0.44341143001E+03  0.43785360317E+03 0.  0.
      99925    2    3    3    0    0  0.10475040586E+02  0.93551302973E+02  0.64736829570E+02  0.28676971934E+03  0.26302935590E+03 0.  0.
         25    1    3    3    0    0 -0.10475040586E+02 -0.93551302973E+02  0.52483006629E+01  0.15664171067E+03  0.12509000000E+03 0.  0.
         25    1    4    4    0    0 -0.28441689231E+02  0.69079944407E+02  0.26169762083E+02  0.14803152689E+03  0.12509000000E+03 0.  0.
         25    1    4    4    0    0  0.38916729817E+02  0.24471358566E+02  0.38567067487E+02  0.13873819245E+03  0.12509000000E+03 0.  0.
<mgrwt>
<rscale>  2 0.43785360E+03</rscale>
<asrwt>0</asrwt>
<pdfrwt beam="1">  1       21 0.37749747E-01 0.43785360E+03</pdfrwt>
<pdfrwt beam="2">  1       21 0.27457816E-01 0.43785360E+03</pdfrwt>
<totfact> 0.79768449E+04</totfact>
</mgrwt>
</event>
<event>
 7    0  0.4712189E-002  0.4501223E+03  0.7546771E-02  0.1027686E+00
         21   -1    0    0  502  501  0.00000000000E+00  0.00000000000E+00  0.11142481710E+04  0.11142481710E+04  0.00000000000E+00 0. -1.
         21   -1    0    0  501  502 -0.00000000000E+00 -0.00000000000E+00 -0.45458931623E+02  0.45458931623E+02  0.00000000000E+00 0. -1.
      99926    2    1    2    0    0  0.00000000000E+00  0.14210854715E-13  0.10687892394E+04  0.11597071027E+04  0.45012234523E+03 0.  0.
      99925    2    3    3    0    0  0.67606656189E+02 -0.81414067692E+02  0.73810147268E+03  0.79065315329E+03  0.26294431816E+03 0.  0.
         25    1    4    4    0    0  0.28329183770E+02 -0.66118672514E+01  0.40663857927E+03  0.42643721893E+03  0.12509000000E+03 0.  0.
         25    1    4    4    0    0  0.39277472420E+02 -0.74802200441E+02  0.33146289341E+03  0.36421593436E+03  0.12509000000E+03 0.  0.
         25    1    3    3    0    0 -0.67606656189E+02  0.81414067692E+02  0.33068776674E+03  0.36905394938E+03  0.12509000000E+03 0.  0.
<mgrwt>
<rscale>  2 0.45012235E+03</rscale>
<asrwt>0</asrwt>
<pdfrwt beam="1">  1       21 0.16386001E+00 0.45012235E+03</pdfrwt>
<pdfrwt beam="2">  1       21 0.66851377E-02 0.45012235E+03</pdfrwt>
<totfact> 0.34762605E+04</totfact>
</mgrwt>
</event>
<event>
 7    0  0.4712189E-002  0.4541874E+03  0.7546771E-02  0.1026481E+00
         21   -1    0    0  502  501  0.00000000000E+00  0.00000000000E+00  0.57707666518E+02  0.57707666518E+02  0.00000000000E+00 0.  1.
         21   -1    0    0  501  502 -0.00000000000E+00 -0.00000000000E+00 -0.89366889034E+03  0.89366889034E+03  0.00000000000E+00 0.  1.
      99926    2    1    2    0    0 -0.71054273576E-14  0.71054273576E-14 -0.83596122382E+03  0.95137655686E+03  0.45418738997E+03 0.  0.
      99925    2    3    3    0    0  0.56376512826E+02 -0.45029172994E+02 -0.34595534467E+03  0.44053489125E+03  0.26302082101E+03 0.  0.
         25    1    4    4    0    0 -0.22563827964E+01 -0.41827902123E+02 -0.19956888535E+03  0.23922774246E+03  0.12509000000E+03 0.  0.
         25    1    3    3    0    0 -0.56376512826E+02  0.45029172994E+02 -0.49000587914E+03  0.51084166560E+03  0.12509000000E+03 0.  0.
         25    1    4    4    0    0  0.58632895622E+02 -0.32012708714E+01 -0.14638645932E+03  0.20130714880E+03  0.12509000000E+03 0.  0.
<mgrwt>
<rscale>  2 0.45418739E+03</rscale>
<asrwt>0</asrwt>
<pdfrwt beam="1">  1       21 0.84864216E-02 0.45418739E+03</pdfrwt>
<pdfrwt beam="2">  1       21 0.13142189E+00 0.45418739E+03</pdfrwt>
<totfact> 0.41347229E+04</totfact>
</mgrwt>
</event>
<event>
 7    0  0.4712189E-002  0.4523934E+03  0.7546771E-02  0.1027011E+00
         21   -1    0    0  502  501  0.00000000000E+00  0.00000000000E+00  0.17773256529E+03  0.17773256529E+03  0.00000000000E+00 0.  1.
         21   -1    0    0  501  502 -0.00000000000E+00 -0.00000000000E+00 -0.28787608784E+03  0.28787608784E+03  0.00000000000E+00 0.  1.
      99926    2    1    2    0    0  0.00000000000E+00 -0.14210854715E-13 -0.11014352255E+03  0.46560865313E+03  0.45239343752E+03 0.  0.
      99925    2    3    3    0    0 -0.26204705834E+02 -0.97816969465E+02 -0.11545572161E+03  0.30457892395E+03  0.26302747221E+03 0.  0.
         25    1    3    3    0    0  0.26204705834E+02  0.97816969465E+02  0.53121990658E+01  0.16102972919E+03  0.12509000000E+03 0.  0.
         25    1    4    4    0    0 -0.28519341611E+02 -0.71833236873E+02 -0.95287861487E+02  0.17521601357E+03  0.12509000000E+03 0.  0.
         25    1    4    4    0    0  0.23146357770E+01 -0.25983732592E+02 -0.20167860127E+02  0.12936291037E+03  0.12509000000E+03 0.  0.
<mgrwt>
<rscale>  2 0.45239344E+03</rscale>
<asrwt>0</asrwt>
<pdfrwt beam="1">  1       21 0.26137142E-01 0.45239344E+03</pdfrwt>
<pdfrwt beam="2">  1       21 0.42334718E-01 0.45239344E+03</pdfrwt>
<totfact> 0.69183268E+04</totfact>
</mgrwt>
</event>
<event>
 7    0  0.4712189E-002  0.4524673E+03  0.7546771E-02  0.1026989E+00
         21   -1    0    0  502  501  0.00000000000E+00  0.00000000000E+00  0.26664496920E+02  0.26664496920E+02  0.00000000000E+00 0.  1.
         21   -1    0    0  501  502 -0.00000000000E+00 -0.00000000000E+00 -0.19194683195E+04  0.19194683195E+04  0.00000000000E+00 0.  1.
      99926    2    1    2    0    0  0.00000000000E+00  0.00000000000E+00 -0.18928038226E+04  0.19461328164E+04  0.45246726774E+03 0.  0.
      99925    2    3    3    0    0 -0.20814509139E+02 -0.68281398643E+02 -0.82971572877E+03  0.87333302312E+03  0.26303381061E+03 0.  0.
         25    1    3    3    0    0  0.20814509139E+02  0.68281398643E+02 -0.10630880938E+04  0.10727997933E+04  0.12509000000E+03 0.  0.
         25    1    4    4    0    0 -0.40637429635E+02 -0.19454834615E+02 -0.33750821270E+03  0.36275224743E+03  0.12509000000E+03 0.  0.
         25    1    4    4    0    0  0.19822920496E+02 -0.48826564028E+02 -0.49220751607E+03  0.51058077570E+03  0.12509000000E+03 0.  0.
<mgrwt>
<rscale>  2 0.45246727E+03</rscale>
<asrwt>0</asrwt>
<pdfrwt beam="1">  1       21 0.39212494E-02 0.45246727E+03</pdfrwt>
<pdfrwt beam="2">  1       21 0.28227477E+00 0.45246727E+03</pdfrwt>
<totfact> 0.14900187E+04</totfact>
</mgrwt>
</event>
<event>
 7    0  0.4712189E-002  0.4515323E+03  0.7546771E-02  0.1027266E+00
         21   -1    0    0  502  501  0.00000000000E+00  0.00000000000E+00  0.16123325147E+03  0.16123325147E+03  0.00000000000E+00 0. -1.
         21   -1    0    0  501  502 -0.00000000000E+00 -0.00000000000E+00 -0.31612811454E+03  0.31612811454E+03  0.00000000000E+00 0. -1.
      99926    2    1    2    0    0  0.00000000000E+00  0.00000000000E+00 -0.15489486307E+03  0.47736136601E+03  0.45153234120E+03 0.  0.
      99925    2    3    3    0    0  0.76000680890E+02 -0.79178443098E+02 -0.10536636902E+03  0.30373559266E+03  0.26288383210E+03 0.  0.
         25    1    4    4    0    0  0.55125750699E+02 -0.21147768917E+02 -0.86133220694E+02  0.16294942874E+03  0.12509000000E+03 0.  0.
         25    1    4    4    0    0  0.20874930190E+02 -0.58030674181E+02 -0.19233148326E+02  0.14078616392E+03  0.12509000000E+03 0.  0.
         25    1    3    3    0    0 -0.76000680890E+02  0.79178443098E+02 -0.49528494054E+02  0.17362577335E+03  0.12509000000E+03 0.  0.
<mgrwt>
<rscale>  2 0.45153234E+03</rscale>
<asrwt>0</asrwt>
<pdfrwt beam="1">  1       21 0.23710773E-01 0.45153234E+03</pdfrwt>
<pdfrwt beam="2">  1       21 0.46489428E-01 0.45153234E+03</pdfrwt>
<totfact> 0.68765972E+04</totfact>
</mgrwt>
</event>
<event>
 7    0  0.4712189E-002  0.4513731E+03  0.7546771E-02  0.1027313E+00
         21   -1    0    0  502  501  0.00000000000E+00  0.00000000000E+00  0.83020503469E+02  0.83020503469E+02  0.00000000000E+00 0.  1.
         21   -1    0    0  501  502 -0.00000000000E+00 -0.00000000000E+00 -0.61351611565E+03  0.61351611565E+03  0.00000000000E+00 0.  1.
      99926    2    1    2    0    0  0.00000000000E+00  0.00000000000E+00 -0.53049561218E+03  0.69653661912E+03  0.45137309095E+03 0.  0.
      99925    2    3    3    0    0  0.10787700785E+03 -0.20479412815E+02 -0.33655401601E+03  0.44096333022E+03  0.26291290903E+03 0.  0.
         25    1    4    4    0    0  0.81259821602E+02 -0.35868245633E+02 -0.15256090723E+03  0.21636087485E+03  0.12509000000E+03 0.  0.
         25    1    4    4    0    0  0.26617186252E+02  0.15388832818E+02 -0.18399310878E+03  0.22460245537E+03  0.12509000000E+03 0.  0.
         25    1    3    3    0    0 -0.10787700785E+03  0.20479412815E+02 -0.19394159618E+03  0.25557328890E+03  0.12509000000E+03 0.  0.
<mgrwt>
<rscale>  2 0.45137309E+03</rscale>
<asrwt>0</asrwt>
<pdfrwt beam="1">  1       21 0.12208898E-01 0.45137309E+03</pdfrwt>
<pdfrwt beam="2">  1       21 0.90222958E-01 0.45137309E+03</pdfrwt>
<totfact> 0.54634356E+04</totfact>
</mgrwt>
</event>
<event>
 7    0  0.4712189E-002  0.4549377E+03  0.7546771E-02  0.1026260E+00
         21   -1    0    0  502  501  0.00000000000E+00  0.00000000000E+00  0.76613846290E+03  0.76613846290E+03  0.00000000000E+00 0.  1.
         21   -1    0    0  501  502 -0.00000000000E+00 -0.00000000000E+00 -0.67536192778E+02  0.67536192778E+02  0.00000000000E+00 0.  1.
      99926    2    1    2    0    0  0.00000000000E+00  0.00000000000E+00  0.69860227012E+03  0.83367465568E+03  0.45493768771E+03 0.  0.
      99925    2    3    3    0    0  0.10490610829E+03 -0.36779256102E+02  0.40235055099E+03  0.49342387401E+03  0.26310292345E+03 0.  0.
         25    1    4    4    0    0  0.15143977193E+02 -0.33846060902E+01  0.14995429834E+03  0.19589434727E+03  0.12509000000E+03 0.  0.
         25    1    3    3    0    0 -0.10490610829E+03  0.36779256102E+02  0.29625171913E+03  0.34025078166E+03  0.12509000000E+03 0.  0.
         25    1    4    4    0    0  0.89762131095E+02 -0.33394650011E+02  0.25239625266E+03  0.29752952674E+03  0.12509000000E+03 0.  0.
<mgrwt>
<rscale>  2 0.45493769E+03</rscale>
<asrwt>0</asrwt>
<pdfrwt beam="1">  1       21 0.11266742E+00 0.45493769E+03</pdfrwt>
<pdfrwt beam="2">  1       21 0.99317935E-02 0.45493769E+03</pdfrwt>
<totfact> 0.46201316E+04</totfact>
</mgrwt>
</event>
<event>
 7    0  0.4712189E-002  0.4653160E+03  0.7546771E-02  0.1023251E+00
         21   -1    0    0  502  501  0.00000000000E+00  0.00000000000E+00  0.15286971189E+03  0.15286971189E+03  0.00000000000E+00 0. -1.
         21   -1    0    0  501  502 -0.00000000000E+00 -0.00000000000E+00 -0.35409073061E+03  0.35409073061E+03  0.00000000000E+00 0. -1.
      99926    2    1    2    0    0  0.00000000000E+00  0.00000000000E+00 -0.20122101871E+03  0.50696044250E+03  0.46531601293E+03 0.  0.
      99925    2    3    3    0    0 -0.26196209891E+02 -0.51905229671E+02 -0.24306509025E+03  0.36281180843E+03  0.26300451699E+03 0.  0.
         25    1    4    4    0    0  0.16948274996E+02  0.13448904385E+01 -0.12495386269E+03  0.17762327735E+03  0.12509000000E+03 0.  0.
         25    1    4    4    0    0 -0.43144484887E+02 -0.53250120110E+02 -0.11811122757E+03  0.18518853108E+03  0.12509000000E+03 0.  0.
         25    1    3    3    0    0  0.26196209891E+02  0.51905229671E+02  0.41844071541E+02  0.14414863407E+03  0.12509000000E+03 0.  0.
<mgrwt>
<rscale>  2 0.46531601E+03</rscale>
<asrwt>0</asrwt>
<pdfrwt beam="1">  1       21 0.22480840E-01 0.46531601E+03</pdfrwt>
<pdfrwt beam="2">  1       21 0.52072166E-01 0.46531601E+03</pdfrwt>
<totfact> 0.59740476E+04</totfact>
</mgrwt>
</event>
<event>
 7    0  0.4712189E-002  0.4446271E+03  0.7546771E-02  0.1029337E+00
         21   -1    0    0  502  501  0.00000000000E+00  0.00000000000E+00  0.75173192748E+02  0.75173192748E+02  0.00000000000E+00 0. -1.
         21   -1    0    0  501  502 -0.00000000000E+00 -0.00000000000E+00 -0.65745919381E+03  0.65745919381E+03  0.00000000000E+00 0. -1.
      99926    2    1    2    0    0  0.00000000000E+00  0.00000000000E+00 -0.58228600106E+03  0.73263238655E+03  0.44462706485E+03 0.  0.
      99925    2    3    3    0    0 -0.71112675739E+02 -0.48944087574E+02 -0.27680861495E+03  0.39143379646E+03  0.26295412402E+03 0.  0.
         25    1    4    4    0    0 -0.12757391819E+02 -0.39258708044E+02 -0.92477100330E+02  0.16094570323E+03  0.12509000000E+03 0.  0.
         25    1    3    3    0    0  0.71112675739E+02  0.48944087574E+02 -0.30547738611E+03  0.34119859009E+03  0.12509000000E+03 0.  0.
         25    1    4    4    0    0 -0.58355283920E+02 -0.96853795296E+01 -0.18433151462E+03  0.23048809323E+03  0.12509000000E+03 0.  0.
<mgrwt>
<rscale>  2 0.44462706E+03</rscale>
<asrwt>0</asrwt>
<pdfrwt beam="1">  1       21 0.11054881E-01 0.44462706E+03</pdfrwt>
<pdfrwt beam="2">  1       21 0.96685176E-01 0.44462706E+03</pdfrwt>
<totfact> 0.55561711E+04</totfact>
</mgrwt>
</event>
<event>
 7    0  0.4712189E-002  0.4576197E+03  0.7546771E-02  0.1025474E+00
         21   -1    0    0  502  501  0.00000000000E+00  0.00000000000E+00  0.17377149227E+03  0.17377149227E+03  0.00000000000E+00 0. -1.
         21   -1    0    0  501  502 -0.00000000000E+00 -0.00000000000E+00 -0.30128043915E+03  0.30128043915E+03  0.00000000000E+00 0. -1.
      99926    2    1    2    0    0  0.00000000000E+00  0.00000000000E+00 -0.12750894688E+03  0.47505193143E+03  0.45761971769E+03 0.  0.
      99925    2    3    3    0    0  0.33388952770E+02  0.37736489414E+02 -0.18837683526E+03  0.32709493519E+03  0.26261454598E+03 0.  0.
         25    1    4    4    0    0 -0.12253542489E+02  0.32066783157E+02 -0.12253928942E+03  0.17844274554E+03  0.12509000000E+03 0.  0.
         25    1    4    4    0    0  0.45642495260E+02  0.56697062572E+01 -0.65837545843E+02  0.14865218964E+03  0.12509000000E+03 0.  0.
         25    1    3    3    0    0 -0.33388952770E+02 -0.37736489414E+02  0.60867888384E+02  0.14795699624E+03  0.12509000000E+03 0.  0.
<mgrwt>
<rscale>  2 0.45761972E+03</rscale>
<asrwt>0</asrwt>
<pdfrwt beam="1">  1       21 0.25554631E-01 0.45761972E+03</pdfrwt>
<pdfrwt beam="2">  1       21 0.44305947E-01 0.45761972E+03</pdfrwt>
<totfact> 0.65685982E+04</totfact>
</mgrwt>
</event>
<event>
 7    0  0.4712189E-002  0.4568724E+03  0.7546771E-02  0.1025692E+00
         21   -1    0    0  502  501  0.00000000000E+00  0.00000000000E+00  0.55449453760E+03  0.55449453760E+03  0.00000000000E+00 0. -1.
         21   -1    0    0  501  502 -0.00000000000E+00 -0.00000000000E+00 -0.94109296203E+02  0.94109296203E+02  0.00000000000E+00 0. -1.
      99926    2    1    2    0    0  0.00000000000E+00 -0.17763568394E-14  0.46038524140E+03  0.64860383381E+03  0.45687237028E+03 0.  0.
      99925    2    3    3    0    0  0.73041470984E+02 -0.95099751985E+01  0.41457588133E+03  0.49638195075E+03  0.26286190964E+03 0.  0.
         25    1    4    4    0    0  0.37990094934E+02  0.16527350822E+02  0.14451956302E+03  0.19557559366E+03  0.12509000000E+03 0.  0.
         25    1    3    3    0    0 -0.73041470984E+02  0.95099751985E+01  0.45809360072E+02  0.15222188306E+03  0.12509000000E+03 0.  0.
         25    1    4    4    0    0  0.35051376050E+02 -0.26037326021E+02  0.27005631830E+03  0.30080635709E+03  0.12509000000E+03 0.  0.
<mgrwt>
<rscale>  2 0.45687237E+03</rscale>
<asrwt>0</asrwt>
<pdfrwt beam="1">  1       21 0.81543313E-01 0.45687237E+03</pdfrwt>
<pdfrwt beam="2">  1       21 0.13839603E-01 0.45687237E+03</pdfrwt>
<totfact> 0.54965534E+04</totfact>
</mgrwt>
</event>
<event>
 7    0  0.4712189E-002  0.4582331E+03  0.7546771E-02  0.1025295E+00
         21   -1    0    0  502  501  0.00000000000E+00  0.00000000000E+00  0.93406007446E+02  0.93406007446E+02  0.00000000000E+00 0.  1.
         21   -1    0    0  501  502 -0.00000000000E+00 -0.00000000000E+00 -0.56200244515E+03  0.56200244515E+03  0.00000000000E+00 0.  1.
      99926    2    1    2    0    0  0.14210854715E-13  0.44408920985E-15 -0.46859643770E+03  0.65540845259E+03  0.45823314841E+03 0.  0.
      99925    2    3    3    0    0 -0.11586054408E+03 -0.38515111258E+01 -0.30477404806E+03  0.41892635336E+03  0.26300868684E+03 0.  0.
         25    1    4    4    0    0 -0.28664604350E+02  0.26596176964E+02 -0.15571843525E+03  0.20353072335E+03  0.12509000000E+03 0.  0.
         25    1    3    3    0    0  0.11586054408E+03  0.38515111258E+01 -0.16382238964E+03  0.23648209923E+03  0.12509000000E+03 0.  0.
         25    1    4    4    0    0 -0.87195939725E+02 -0.30447688090E+02 -0.14905561281E+03  0.21539563001E+03  0.12509000000E+03 0.  0.
<mgrwt>
<rscale>  2 0.45823315E+03</rscale>
<asrwt>0</asrwt>
<pdfrwt beam="1">  1       21 0.13736178E-01 0.45823315E+03</pdfrwt>
<pdfrwt beam="2">  1       21 0.82647415E-01 0.45823315E+03</pdfrwt>
<totfact> 0.54000611E+04</totfact>
</mgrwt>
</event>
<event>
 7    0  0.4712189E-002  0.4611409E+03  0.7546771E-02  0.1024451E+00
         21   -1    0    0  502  501  0.00000000000E+00  0.00000000000E+00  0.16528750347E+03  0.16528750347E+03  0.00000000000E+00 0. -1.
         21   -1    0    0  501  502 -0.00000000000E+00 -0.00000000000E+00 -0.32163799418E+03  0.32163799418E+03  0.00000000000E+00 0. -1.
      99926    2    1    2    0    0  0.00000000000E+00  0.00000000000E+00 -0.15635049071E+03  0.48692549765E+03  0.46114093758E+03 0.  0.
      99925    2    3    3    0    0 -0.84995196902E+02  0.82998090114E+02 -0.98623883399E+02  0.30501140872E+03  0.26304452592E+03 0.  0.
         25    1    4    4    0    0 -0.42377150028E+02  0.22814292701E+02 -0.86013670369E+02  0.15925506079E+03  0.12509000000E+03 0.  0.
         25    1    3    3    0    0  0.84995196902E+02 -0.82998090114E+02 -0.57726607310E+02  0.18191408893E+03  0.12509000000E+03 0.  0.
         25    1    4    4    0    0 -0.42618046874E+02  0.60183797413E+02 -0.12610213030E+02  0.14575634793E+03  0.12509000000E+03 0.  0.
<mgrwt>
<rscale>  2 0.46114094E+03</rscale>
<asrwt>0</asrwt>
<pdfrwt beam="1">  1       21 0.24306986E-01 0.46114094E+03</pdfrwt>
<pdfrwt beam="2">  1       21 0.47299704E-01 0.46114094E+03</pdfrwt>
<totfact> 0.63068382E+04</totfact>
</mgrwt>
</event>
<event>
 7    0  0.4712189E-002  0.4464864E+03  0.7546771E-02  0.1028775E+00
         21   -1    0    0  502  501  0.00000000000E+00  0.00000000000E+00  0.13998098369E+04  0.13998098369E+04  0.00000000000E+00 0. -1.
         21   -1    0    0  501  502 -0.00000000000E+00 -0.00000000000E+00 -0.35603073169E+02  0.35603073169E+02  0.00000000000E+00 0. -1.
      99926    2    1    2    0    0  0.00000000000E+00  0.00000000000E+00  0.13642067637E+04  0.14354129101E+04  0.44648642553E+03 0.  0.
      99925    2    3    3    0    0 -0.71726240405E+02 -0.76241385318E+02  0.83953921617E+03  0.88597597469E+03  0.26300176774E+03 0.  0.
         25    1    4    4    0    0  0.47807182452E+01 -0.34597546314E+02  0.35401213593E+03  0.37708347347E+03  0.12509000000E+03 0.  0.
         25    1    3    3    0    0  0.71726240405E+02  0.76241385318E+02  0.52466754756E+03  0.54943693538E+03  0.12509000000E+03 0.  0.
         25    1    4    4    0    0 -0.76506958650E+02 -0.41643839003E+02  0.48552708025E+03  0.50889250123E+03  0.12509000000E+03 0.  0.
<mgrwt>
<rscale>  2 0.44648643E+03</rscale>
<asrwt>0</asrwt>
<pdfrwt beam="1">  1       21 0.20585435E+00 0.44648643E+03</pdfrwt>
<pdfrwt beam="2">  1       21 0.52357470E-02 0.44648643E+03</pdfrwt>
<totfact> 0.27155901E+04</totfact>
</mgrwt>
</event>
<event>
 7    0  0.4712189E-002  0.4537178E+03  0.7546771E-02  0.1026619E+00
         21   -1    0    0  502  501  0.00000000000E+00  0.00000000000E+00  0.23893336390E+02  0.23893336390E+02  0.00000000000E+00 0.  1.
         21   -1    0    0  501  502 -0.00000000000E+00 -0.00000000000E+00 -0.21539457468E+04  0.21539457468E+04  0.00000000000E+00 0.  1.
      99926    2    1    2    0    0  0.35527136788E-14  0.31086244690E-14 -0.21300524104E+04  0.21778390832E+04  0.45371775497E+03 0.  0.
      99925    2    3    3    0    0  0.23939843850E+02  0.24060995503E+01 -0.18667624740E+04  0.18853531790E+04  0.26301248976E+03 0.  0.
         25    1    4    4    0    0  0.32095354161E+02 -0.34026407437E+02 -0.93272749786E+03  0.94223988534E+03  0.12509000000E+03 0.  0.
         25    1    4    4    0    0 -0.81555103101E+01  0.36432506988E+02 -0.93403497612E+03  0.94311329364E+03  0.12509000000E+03 0.  0.
         25    1    3    3    0    0 -0.23939843850E+02 -0.24060995503E+01 -0.26328993642E+03  0.29248590421E+03  0.12509000000E+03 0.  0.
<mgrwt>
<rscale>  2 0.45371775E+03</rscale>
<asrwt>0</asrwt>
<pdfrwt beam="1">  1       21 0.35137260E-02 0.45371775E+03</pdfrwt>
<pdfrwt beam="2">  1       21 0.31675673E+00 0.45371775E+03</pdfrwt>
<totfact> 0.11128006E+04</totfact>
</mgrwt>
</event>
<event>
 7    0  0.4712189E-002  0.4588972E+03  0.7546771E-02  0.1025102E+00
         21   -1    0    0  502  501  0.00000000000E+00  0.00000000000E+00  0.19551732952E+03  0.19551732952E+03  0.00000000000E+00 0.  1.
         21   -1    0    0  501  502 -0.00000000000E+00 -0.00000000000E+00 -0.26926853386E+03  0.26926853386E+03  0.00000000000E+00 0.  1.
      99926    2    1    2    0    0  0.00000000000E+00  0.00000000000E+00 -0.73751204343E+02  0.46478586338E+03  0.45889722014E+03 0.  0.
      99925    2    3    3    0    0 -0.84471049010E+02 -0.49489638808E+02  0.18283431670E+02  0.28120355270E+03  0.26297637100E+03 0.  0.
         25    1    4    4    0    0 -0.57174353739E+02 -0.42905616885E+02  0.43596533540E+02  0.15052562746E+03  0.12509000000E+03 0.  0.
         25    1    3    3    0    0  0.84471049010E+02  0.49489638808E+02 -0.92034636014E+02  0.18358231068E+03  0.12509000000E+03 0.  0.
         25    1    4    4    0    0 -0.27296695271E+02 -0.65840219230E+01 -0.25313101870E+02  0.13067792523E+03  0.12509000000E+03 0.  0.
<mgrwt>
<rscale>  2 0.45889722E+03</rscale>
<asrwt>0</asrwt>
<pdfrwt beam="1">  1       21 0.28752549E-01 0.45889722E+03</pdfrwt>
<pdfrwt beam="2">  1       21 0.39598313E-01 0.45889722E+03</pdfrwt>
<totfact> 0.65764820E+04</totfact>
</mgrwt>
</event>
<event>
 7    0  0.4712189E-002  0.4873233E+03  0.7546771E-02  0.1017142E+00
         21   -1    0    0  502  501  0.00000000000E+00  0.00000000000E+00  0.10682167108E+03  0.10682167108E+03  0.00000000000E+00 0.  1.
         21   -1    0    0  501  502 -0.00000000000E+00 -0.00000000000E+00 -0.55579548739E+03  0.55579548739E+03  0.00000000000E+00 0.  1.
      99926    2    1    2    0    0 -0.14210854715E-13 -0.71054273576E-14 -0.44897381632E+03  0.66261715847E+03  0.48732331256E+03 0.  0.
      99925    2    3    3    0    0 -0.99283013072E+02 -0.61866725231E+02 -0.16723553747E+03  0.33290732507E+03  0.26301131861E+03 0.  0.
         25    1    4    4    0    0 -0.57811148791E+02 -0.45250702052E+02 -0.43626927243E+02  0.15146145332E+03  0.12509000000E+03 0.  0.
         25    1    3    3    0    0  0.99283013072E+02  0.61866725231E+02 -0.28173827884E+03  0.32970983340E+03  0.12509000000E+03 0.  0.
         25    1    4    4    0    0 -0.41471864281E+02 -0.16616023179E+02 -0.12360861023E+03  0.18144587175E+03  0.12509000000E+03 0.  0.
<mgrwt>
<rscale>  2 0.48732331E+03</rscale>
<asrwt>0</asrwt>
<pdfrwt beam="1">  1       21 0.15709070E-01 0.48732331E+03</pdfrwt>
<pdfrwt beam="2">  1       21 0.81734628E-01 0.48732331E+03</pdfrwt>
<totfact> 0.42939483E+04</totfact>
</mgrwt>
</event>
<event>
 7    0  0.4712189E-002  0.4578828E+03  0.7546771E-02  0.1025397E+00
         21   -1    0    0  502  501  0.00000000000E+00  0.00000000000E+00  0.59743747115E+03  0.59743747115E+03  0.00000000000E+00 0. -1.
         21   -1    0    0  501  502 -0.00000000000E+00 -0.00000000000E+00 -0.87731616590E+02  0.87731616590E+02  0.00000000000E+00 0. -1.
      99926    2    1    2    0    0  0.00000000000E+00  0.00000000000E+00  0.50970585456E+03  0.68516908775E+03  0.45788275860E+03 0.  0.
      99925    2    3    3    0    0  0.82191427003E+02 -0.21615930381E+02  0.43774281833E+03  0.51769113158E+03  0.26298793431E+03 0.  0.
         25    1    3    3    0    0 -0.82191427003E+02  0.21615930381E+02  0.71963036232E+02  0.16747795617E+03  0.12509000000E+03 0.  0.
         25    1    4    4    0    0  0.68986958340E+02  0.93674043243E+01  0.18748716026E+03  0.23589381519E+03  0.12509000000E+03 0.  0.
         25    1    4    4    0    0  0.13204468663E+02 -0.30983334705E+02  0.25025565808E+03  0.28179731638E+03  0.12509000000E+03 0.  0.
<mgrwt>
<rscale>  2 0.45788276E+03</rscale>
<asrwt>0</asrwt>
<pdfrwt beam="1">  1       21 0.87858450E-01 0.45788276E+03</pdfrwt>
<pdfrwt beam="2">  1       21 0.12901709E-01 0.45788276E+03</pdfrwt>
<totfact> 0.52513769E+04</totfact>
</mgrwt>
</event>
<event>
 7    0  0.4712189E-002  0.4595777E+03  0.7546771E-02  0.1024904E+00
         21   -1    0    0  502  501  0.00000000000E+00  0.00000000000E+00  0.15830922207E+03  0.15830922207E+03  0.00000000000E+00 0. -1.
         21   -1    0    0  501  502 -0.00000000000E+00 -0.00000000000E+00 -0.33354289245E+03  0.33354289245E+03  0.00000000000E+00 0. -1.
      99926    2    1    2    0    0  0.00000000000E+00  0.44408920985E-15 -0.17523367037E+03  0.49185211452E+03  0.45957770107E+03 0.  0.
      99925    2    3    3    0    0 -0.11546159300E+03 -0.25498395285E+01 -0.13264340154E+03  0.31635476343E+03  0.26296042142E+03 0.  0.
         25    1    4    4    0    0 -0.47377317735E+02 -0.40463023649E+02 -0.60876162417E+02  0.15243123620E+03  0.12509000000E+03 0.  0.
         25    1    3    3    0    0  0.11546159300E+03  0.25498395285E+01 -0.42590268834E+02  0.17549735109E+03  0.12509000000E+03 0.  0.
         25    1    4    4    0    0 -0.68084275264E+02  0.37913184121E+02 -0.71767239125E+02  0.16392352723E+03  0.12509000000E+03 0.  0.
<mgrwt>
<rscale>  2 0.45957770E+03</rscale>
<asrwt>0</asrwt>
<pdfrwt beam="1">  1       21 0.23280768E-01 0.45957770E+03</pdfrwt>
<pdfrwt beam="2">  1       21 0.49050425E-01 0.45957770E+03</pdfrwt>
<totfact> 0.63507473E+04</totfact>
</mgrwt>
</event>
<event>
 7    0  0.4712189E-002  0.4540693E+03  0.7546771E-02  0.1026515E+00
         21   -1    0    0  502  501  0.00000000000E+00  0.00000000000E+00  0.43492004381E+02  0.43492004381E+02  0.00000000000E+00 0.  1.
         21   -1    0    0  501  502 -0.00000000000E+00 -0.00000000000E+00 -0.11851543432E+04  0.11851543432E+04  0.00000000000E+00 0.  1.
      99926    2    1    2    0    0  0.00000000000E+00  0.00000000000E+00 -0.11416623388E+04  0.12286463476E+04  0.45406932461E+03 0.  0.
      99925    2    3    3    0    0 -0.74190867566E+02  0.14189322823E+02 -0.94373438029E+03  0.98262072579E+03  0.26306517918E+03 0.  0.
         25    1    4    4    0    0 -0.69680404516E+01 -0.15967424549E+02 -0.50191877018E+03  0.51756494491E+03  0.12509000000E+03 0.  0.
         25    1    4    4    0    0 -0.67222827115E+02  0.30156747373E+02 -0.44181561011E+03  0.46505578088E+03  0.12509000000E+03 0.  0.
         25    1    3    3    0    0  0.74190867566E+02 -0.14189322823E+02 -0.19792795855E+03  0.24602562181E+03  0.12509000000E+03 0.  0.
<mgrwt>
<rscale>  2 0.45406932E+03</rscale>
<asrwt>0</asrwt>
<pdfrwt beam="1">  1       21 0.63958827E-02 0.45406932E+03</pdfrwt>
<pdfrwt beam="2">  1       21 0.17428741E+00 0.45406932E+03</pdfrwt>
<totfact> 0.31486931E+04</totfact>
</mgrwt>
</event>
<event>
 7    0  0.4712189E-002  0.4593169E+03  0.7546771E-02  0.1024980E+00
         21   -1    0    0  502  501  0.00000000000E+00  0.00000000000E+00  0.82635574523E+03  0.82635574523E+03  0.00000000000E+00 0.  1.
         21   -1    0    0  501  502 -0.00000000000E+00 -0.00000000000E+00 -0.63826016038E+02  0.63826016038E+02  0.00000000000E+00 0.  1.
      99926    2    1    2    0    0 -0.14210854715E-13 -0.71054273576E-14  0.76252972919E+03  0.89018176127E+03  0.45931686252E+03 0.  0.
      99925    2    3    3    0    0 -0.10309337162E+03 -0.35531585062E+02  0.56159686692E+03  0.62958195304E+03  0.26285292056E+03 0.  0.
         25    1    4    4    0    0 -0.67723929139E+02 -0.55036789929E+02  0.32195968322E+03  0.35625991150E+03  0.12509000000E+03 0.  0.
         25    1    4    4    0    0 -0.35369442479E+02  0.19505204867E+02  0.23963718370E+03  0.27332204154E+03  0.12509000000E+03 0.  0.
         25    1    3    3    0    0  0.10309337162E+03  0.35531585062E+02  0.20093286227E+03  0.26059980823E+03  0.12509000000E+03 0.  0.
<mgrwt>
<rscale>  2 0.45931686E+03</rscale>
<asrwt>0</asrwt>
<pdfrwt beam="1">  1       21 0.12152290E+00 0.45931686E+03</pdfrwt>
<pdfrwt beam="2">  1       21 0.93861793E-02 0.45931686E+03</pdfrwt>
<totfact> 0.42215673E+04</totfact>
</mgrwt>
</event>
<event>
 7    0  0.4712189E-002  0.4616180E+03  0.7546771E-02  0.1024313E+00
         21   -1    0    0  502  501  0.00000000000E+00  0.00000000000E+00  0.57721159711E+03  0.57721159711E+03  0.00000000000E+00 0.  1.
         21   -1    0    0  501  502 -0.00000000000E+00 -0.00000000000E+00 -0.92293356126E+02  0.92293356126E+02  0.00000000000E+00 0.  1.
      99926    2    1    2    0    0 -0.14210854715E-13 -0.28865798640E-14  0.48491824098E+03  0.66950495324E+03  0.46161800438E+03 0.  0.
      99925    2    3    3    0    0  0.10977259030E+03  0.10866525165E+01  0.23581852801E+03  0.36992294860E+03  0.26302358707E+03 0.  0.
         25    1    3    3    0    0 -0.10977259030E+03 -0.10866525165E+01  0.24909971298E+03  0.29958200463E+03  0.12509000000E+03 0.  0.
         25    1    4    4    0    0  0.23421121860E+02 -0.17363091395E+02  0.13642913088E+03  0.18737780484E+03  0.12509000000E+03 0.  0.
         25    1    4    4    0    0  0.86351468438E+02  0.18449743911E+02  0.99389397121E+02  0.18254514376E+03  0.12509000000E+03 0.  0.
<mgrwt>
<rscale>  2 0.46161800E+03</rscale>
<asrwt>0</asrwt>
<pdfrwt beam="1">  1       21 0.84884057E-01 0.46161800E+03</pdfrwt>
<pdfrwt beam="2">  1       21 0.13572553E-01 0.46161800E+03</pdfrwt>
<totfact> 0.51832470E+04</totfact>
</mgrwt>
</event>
<event>
 7    0  0.4712189E-002  0.4458915E+03  0.7546771E-02  0.1028954E+00
         21   -1    0    0  502  501  0.00000000000E+00  0.00000000000E+00  0.19455388554E+04  0.19455388554E+04  0.00000000000E+00 0.  1.
         21   -1    0    0  501  502 -0.00000000000E+00 -0.00000000000E+00 -0.25548097929E+02  0.25548097929E+02  0.00000000000E+00 0.  1.
      99926    2    1    2    0    0  0.14210854715E-13  0.00000000000E+00  0.19199907575E+04  0.19710869533E+04  0.44589154377E+03 0.  0.
      99925    2    3    3    0    0 -0.66403724106E+02  0.48400783730E+01  0.86296887793E+03  0.90460880406E+03  0.26299985395E+03 0.  0.
         25    1    4    4    0    0 -0.61478473262E+02  0.71083986094E+01  0.35528884639E+03  0.38171691667E+03  0.12509000000E+03 0.  0.
         25    1    3    3    0    0  0.66403724106E+02 -0.48400783730E+01  0.10570218796E+04  0.10664781493E+04  0.12509000000E+03 0.  0.
         25    1    4    4    0    0 -0.49252508439E+01 -0.22683202364E+01  0.50768003154E+03  0.52289188739E+03  0.12509000000E+03 0.  0.
<mgrwt>
<rscale>  2 0.44589154E+03</rscale>
<asrwt>0</asrwt>
<pdfrwt beam="1">  1       21 0.28610856E+00 0.44589154E+03</pdfrwt>
<pdfrwt beam="2">  1       21 0.37570745E-02 0.44589154E+03</pdfrwt>
<totfact> 0.15236768E+04</totfact>
</mgrwt>
</event>
<event>
 7    0  0.4712189E-002  0.4600271E+03  0.7546771E-02  0.1024773E+00
         21   -1    0    0  502  501  0.00000000000E+00  0.00000000000E+00  0.96739449454E+03  0.96739449454E+03  0.00000000000E+00 0. -1.
         21   -1    0    0  501  502 -0.00000000000E+00 -0.00000000000E+00 -0.54689416613E+02  0.54689416613E+02  0.00000000000E+00 0. -1.
      99926    2    1    2    0    0  0.00000000000E+00  0.00000000000E+00  0.91270507793E+03  0.10220839112E+04  0.46002713198E+03 0.  0.
      99925    2    3    3    0    0  0.37816098837E+02 -0.82345365845E+02  0.73909658086E+03  0.78970870817E+03  0.26299291115E+03 0.  0.
         25    1    3    3    0    0 -0.37816098837E+02  0.82345365845E+02  0.17360849707E+03  0.23237520299E+03  0.12509000000E+03 0.  0.
         25    1    4    4    0    0  0.72406714671E+00 -0.94653695133E+01  0.27792184610E+03  0.30492323318E+03  0.12509000000E+03 0.  0.
         25    1    4    4    0    0  0.37092031690E+02 -0.72879996332E+02  0.46117473476E+03  0.48478547499E+03  0.12509000000E+03 0.  0.
<mgrwt>
<rscale>  2 0.46002713E+03</rscale>
<asrwt>0</asrwt>
<pdfrwt beam="1">  1       21 0.14226389E+00 0.46002713E+03</pdfrwt>
<pdfrwt beam="2">  1       21 0.80425618E-02 0.46002713E+03</pdfrwt>
<totfact> 0.36850879E+04</totfact>
</mgrwt>
</event>
<event>
 7    0  0.4712189E-002  0.4553282E+03  0.7546771E-02  0.1026145E+00
         21   -1    0    0  502  501  0.00000000000E+00  0.00000000000E+00  0.82991021704E+02  0.82991021704E+02  0.00000000000E+00 0. -1.
         21   -1    0    0  501  502 -0.00000000000E+00 -0.00000000000E+00 -0.62453687737E+03  0.62453687737E+03  0.00000000000E+00 0. -1.
      99926    2    1    2    0    0 -0.17763568394E-14  0.14210854715E-13 -0.54154585567E+03  0.70752789908E+03  0.45532824883E+03 0.  0.
      99925    2    3    3    0    0  0.12425317451E+02  0.80458790991E+02 -0.21772801441E+03  0.35097003844E+03  0.26295717154E+03 0.  0.
         25    1    3    3    0    0 -0.12425317451E+02 -0.80458790991E+02 -0.32381784126E+03  0.35655786063E+03  0.12509000000E+03 0.  0.
         25    1    4    4    0    0  0.41660240717E+02  0.58573124242E+02 -0.12676822598E+03  0.19205227871E+03  0.12509000000E+03 0.  0.
         25    1    4    4    0    0 -0.29234923266E+02  0.21885666749E+02 -0.90959788431E+02  0.15891775973E+03  0.12509000000E+03 0.  0.
<mgrwt>
<rscale>  2 0.45532825E+03</rscale>
<asrwt>0</asrwt>
<pdfrwt beam="1">  1       21 0.12204562E-01 0.45532825E+03</pdfrwt>
<pdfrwt beam="2">  1       21 0.91843661E-01 0.45532825E+03</pdfrwt>
<totfact> 0.52360783E+04</totfact>
</mgrwt>
</event>
<event>
 7    0  0.4712189E-002  0.4543003E+03  0.7546771E-02  0.1026447E+00
         21   -1    0    0  502  501  0.00000000000E+00  0.00000000000E+00  0.91805089748E+02  0.91805089748E+02  0.00000000000E+00 0.  1.
         21   -1    0    0  501  502 -0.00000000000E+00 -0.00000000000E+00 -0.56202974949E+03  0.56202974949E+03  0.00000000000E+00 0.  1.
      99926    2    1    2    0    0  0.17763568394E-14 -0.14210854715E-13 -0.47022465974E+03  0.65383483923E+03  0.45430030417E+03 0.  0.
      99925    2    3    3    0    0 -0.91816741354E+01 -0.11138037069E+03 -0.31507941917E+03  0.42534535614E+03  0.26297098983E+03 0.  0.
         25    1    3    3    0    0  0.91816741354E+01  0.11138037069E+03 -0.15514524057E+03  0.22848948310E+03  0.12509000000E+03 0.  0.
         25    1    4    4    0    0  0.75136199716E+01 -0.24769291458E+02 -0.10462911515E+03  0.16512035647E+03  0.12509000000E+03 0.  0.
         25    1    4    4    0    0 -0.16695294107E+02 -0.86611079227E+02 -0.21045030401E+03  0.26022499966E+03  0.12509000000E+03 0.  0.
<mgrwt>
<rscale>  2 0.45430030E+03</rscale>
<asrwt>0</asrwt>
<pdfrwt beam="1">  1       21 0.13500749E-01 0.45430030E+03</pdfrwt>
<pdfrwt beam="2">  1       21 0.82651433E-01 0.45430030E+03</pdfrwt>
<totfact> 0.55788375E+04</totfact>
</mgrwt>
</event>
<event>
 7    0  0.4712189E-002  0.4551820E+03  0.7546771E-02  0.1026188E+00
         21   -1    0    0  502  501  0.00000000000E+00  0.00000000000E+00  0.13932402171E+03  0.13932402171E+03  0.00000000000E+00 0. -1.
         21   -1    0    0  501  502 -0.00000000000E+00 -0.00000000000E+00 -0.37177845928E+03  0.37177845928E+03  0.00000000000E+00 0. -1.
      99926    2    1    2    0    0  0.00000000000E+00  0.17763568394E-14 -0.23245443757E+03  0.51110248099E+03  0.45518203011E+03 0.  0.
      99925    2    3    3    0    0 -0.11026165114E+03  0.36323720047E+01 -0.17546107483E+03  0.33484534685E+03  0.26299047833E+03 0.  0.
         25    1    3    3    0    0  0.11026165114E+03 -0.36323720047E+01 -0.56993362741E+02  0.17625713414E+03  0.12509000000E+03 0.  0.
         25    1    4    4    0    0 -0.58335685671E+02  0.17688866405E+02 -0.13228617803E+03  0.19199762815E+03  0.12509000000E+03 0.  0.
         25    1    4    4    0    0 -0.51925965471E+02 -0.14056494400E+02 -0.43174896792E+02  0.14284771870E+03  0.12509000000E+03 0.  0.
<mgrwt>
<rscale>  2 0.45518203E+03</rscale>
<asrwt>0</asrwt>
<pdfrwt beam="1">  1       21 0.20488827E-01 0.45518203E+03</pdfrwt>
<pdfrwt beam="2">  1       21 0.54673301E-01 0.45518203E+03</pdfrwt>
<totfact> 0.64404417E+04</totfact>
</mgrwt>
</event>
<event>
 7    0  0.4712189E-002  0.4559300E+03  0.7546771E-02  0.1025968E+00
         21   -1    0    0  502  501  0.00000000000E+00  0.00000000000E+00  0.20892261685E+04  0.20892261685E+04  0.00000000000E+00 0.  1.
         21   -1    0    0  501  502 -0.00000000000E+00 -0.00000000000E+00 -0.24874296200E+02  0.24874296200E+02  0.00000000000E+00 0.  1.
      99926    2    1    2    0    0  0.00000000000E+00  0.35527136788E-14  0.20643518723E+04  0.21141004647E+04  0.45592995314E+03 0.  0.
      99925    2    3    3    0    0  0.10771104581E+03 -0.29734640763E+02  0.14035060381E+04  0.14323009759E+04  0.26300393214E+03 0.  0.
         25    1    3    3    0    0 -0.10771104581E+03  0.29734640763E+02  0.66084583417E+03  0.68179948877E+03  0.12509000000E+03 0.  0.
         25    1    4    4    0    0  0.67924939013E+02 -0.31775571934E+02  0.56199414624E+03  0.58061037953E+03  0.12509000000E+03 0.  0.
         25    1    4    4    0    0  0.39786106801E+02  0.20409311716E+01  0.84151189188E+03  0.85169059638E+03  0.12509000000E+03 0.  0.
<mgrwt>
<rscale>  2 0.45592995E+03</rscale>
<asrwt>0</asrwt>
<pdfrwt beam="1">  1       21 0.30723902E+00 0.45592995E+03</pdfrwt>
<pdfrwt beam="2">  1       21 0.36579862E-02 0.45592995E+03</pdfrwt>
<totfact> 0.11849076E+04</totfact>
</mgrwt>
</event>
<event>
 7    0  0.4712189E-002  0.4141571E+03  0.7546771E-02  0.1038985E+00
         21   -1    0    0  502  501  0.00000000000E+00  0.00000000000E+00  0.56439349646E+03  0.56439349646E+03  0.00000000000E+00 0. -1.
         21   -1    0    0  501  502 -0.00000000000E+00 -0.00000000000E+00 -0.75978059620E+02  0.75978059620E+02  0.00000000000E+00 0. -1.
      99926    2    1    2    0    0  0.00000000000E+00 -0.17763568394E-14  0.48841543684E+03  0.64037155608E+03  0.41415708480E+03 0.  0.
      99925    2    3    3    0    0  0.59977336594E+02  0.15887368633E+02  0.27686953846E+03  0.38689795862E+03  0.26302775457E+03 0.  0.
         25    1    3    3    0    0 -0.59977336594E+02 -0.15887368633E+02  0.21154589838E+03  0.25347359746E+03  0.12509000000E+03 0.  0.
         25    1    4    4    0    0  0.65452468509E+02  0.13068752513E+02  0.17653654764E+03  0.22642322910E+03  0.12509000000E+03 0.  0.
         25    1    4    4    0    0 -0.54751319148E+01  0.28186161202E+01  0.10033299082E+03  0.16047472952E+03  0.12509000000E+03 0.  0.
<mgrwt>
<rscale>  2 0.41415708E+03</rscale>
<asrwt>0</asrwt>
<pdfrwt beam="1">  1       21 0.82999041E-01 0.41415708E+03</pdfrwt>
<pdfrwt beam="2">  1       21 0.11173244E-01 0.41415708E+03</pdfrwt>
<totfact> 0.78708539E+04</totfact>
</mgrwt>
</event>
<event>
 7    0  0.4712189E-002  0.4510949E+03  0.7546771E-02  0.1027396E+00
         21   -1    0    0  502  501  0.00000000000E+00  0.00000000000E+00  0.93285641653E+02  0.93285641653E+02  0.00000000000E+00 0.  1.
         21   -1    0    0  501  502 -0.00000000000E+00 -0.00000000000E+00 -0.54533214246E+03  0.54533214246E+03  0.00000000000E+00 0.  1.
      99926    2    1    2    0    0  0.00000000000E+00 -0.71054273576E-14 -0.45204650081E+03  0.63861778411E+03  0.45109492936E+03 0.  0.
      99925    2    3    3    0    0 -0.96290967876E+02  0.48409900340E+02 -0.31268459459E+03  0.42255131760E+03  0.26298762589E+03 0.  0.
         25    1    3    3    0    0  0.96290967876E+02 -0.48409900340E+02 -0.13936190622E+03  0.21606646651E+03  0.12509000000E+03 0.  0.
         25    1    4    4    0    0 -0.53868915798E+02 -0.15932311696E+02 -0.14377129265E+03  0.19867911651E+03  0.12509000000E+03 0.  0.
         25    1    4    4    0    0 -0.42422052077E+02  0.64342212036E+02 -0.16891330194E+03  0.22387220110E+03  0.12509000000E+03 0.  0.
<mgrwt>
<rscale>  2 0.45109493E+03</rscale>
<asrwt>0</asrwt>
<pdfrwt beam="1">  1       21 0.13718477E-01 0.45109493E+03</pdfrwt>
<pdfrwt beam="2">  1       21 0.80195902E-01 0.45109493E+03</pdfrwt>
<totfact> 0.58132928E+04</totfact>
</mgrwt>
</event>
<event>
 7    0  0.4712189E-002  0.4605733E+03  0.7546771E-02  0.1024615E+00
         21   -1    0    0  502  501  0.00000000000E+00  0.00000000000E+00  0.18204850116E+03  0.18204850116E+03  0.00000000000E+00 0. -1.
         21   -1    0    0  501  502 -0.00000000000E+00 -0.00000000000E+00 -0.29130664913E+03  0.29130664913E+03  0.00000000000E+00 0. -1.
      99926    2    1    2    0    0 -0.17763568394E-14 -0.14210854715E-13 -0.10925814797E+03  0.47335515029E+03  0.46057328994E+03 0.  0.
      99925    2    3    3    0    0 -0.50684669026E+01 -0.10337533498E+03 -0.94479858484E+01  0.28277255454E+03  0.26298080524E+03 0.  0.
         25    1    4    4    0    0 -0.38524472307E+02 -0.54546656225E+02  0.13712407300E+02  0.14246055905E+03  0.12509000000E+03 0.  0.
         25    1    3    3    0    0  0.50684669026E+01  0.10337533498E+03 -0.99810162120E+02  0.19058259575E+03  0.12509000000E+03 0.  0.
         25    1    4    4    0    0  0.33456005404E+02 -0.48828678757E+02 -0.23160393148E+02  0.14031199549E+03  0.12509000000E+03 0.  0.
<mgrwt>
<rscale>  2 0.46057329E+03</rscale>
<asrwt>0</asrwt>
<pdfrwt beam="1">  1       21 0.26771839E-01 0.46057329E+03</pdfrwt>
<pdfrwt beam="2">  1       21 0.42839212E-01 0.46057329E+03</pdfrwt>
<totfact> 0.64297004E+04</totfact>
</mgrwt>
</event>
<event>
 7    0  0.4712189E-002  0.4576858E+03  0.7546771E-02  0.1025455E+00
         21   -1    0    0  502  501  0.00000000000E+00  0.00000000000E+00  0.13535984958E+03  0.13535984958E+03  0.00000000000E+00 0. -1.
         21   -1    0    0  501  502 -0.00000000000E+00 -0.00000000000E+00 -0.38688772848E+03  0.38688772848E+03  0.00000000000E+00 0. -1.
      99926    2    1    2    0    0  0.00000000000E+00  0.00000000000E+00 -0.25152787890E+03  0.52224757806E+03  0.45768576439E+03 0.  0.
      99925    2    3    3    0    0  0.99909717807E+02 -0.25752728369E+02 -0.21756537451E+03  0.35657888900E+03  0.26299934822E+03 0.  0.
         25    1    4    4    0    0  0.54638284117E+02 -0.84841705774E+01 -0.16031546301E+03  0.21072702489E+03  0.12509000000E+03 0.  0.
         25    1    3    3    0    0 -0.99909717807E+02  0.25752728369E+02 -0.33962504392E+02  0.16566868906E+03  0.12509000000E+03 0.  0.
         25    1    4    4    0    0  0.45271433690E+02 -0.17268557792E+02 -0.57249911507E+02  0.14585186411E+03  0.12509000000E+03 0.  0.
<mgrwt>
<rscale>  2 0.45768576E+03</rscale>
<asrwt>0</asrwt>
<pdfrwt beam="1">  1       21 0.19905860E-01 0.45768576E+03</pdfrwt>
<pdfrwt beam="2">  1       21 0.56895254E-01 0.45768576E+03</pdfrwt>
<totfact> 0.62394259E+04</totfact>
</mgrwt>
</event>
<event>
 7    0  0.4712189E-002  0.4484060E+03  0.7546771E-02  0.1028198E+00
         21   -1    0    0  502  501  0.00000000000E+00  0.00000000000E+00  0.63408167916E+03  0.63408167916E+03  0.00000000000E+00 0. -1.
         21   -1    0    0  501  502 -0.00000000000E+00 -0.00000000000E+00 -0.79275244763E+02  0.79275244763E+02  0.00000000000E+00 0. -1.
      99926    2    1    2    0    0  0.00000000000E+00  0.00000000000E+00  0.55480643440E+03  0.71335692393E+03  0.44840597817E+03 0.  0.
      99925    2    3    3    0    0  0.49348882138E+02  0.93766747615E+02  0.37245633544E+03  0.46814970173E+03  0.26308345880E+03 0.  0.
         25    1    3    3    0    0 -0.49348882138E+02 -0.93766747615E+02  0.18235009896E+03  0.24520722219E+03  0.12509000000E+03 0.  0.
         25    1    4    4    0    0  0.25657830293E+02  0.82504395490E+02  0.23986950054E+03  0.28398976200E+03  0.12509000000E+03 0.  0.
         25    1    4    4    0    0  0.23691051845E+02  0.11262352125E+02  0.13258683490E+03  0.18415993973E+03  0.12509000000E+03 0.  0.
<mgrwt>
<rscale>  2 0.44840598E+03</rscale>
<asrwt>0</asrwt>
<pdfrwt beam="1">  1       21 0.93247303E-01 0.44840598E+03</pdfrwt>
<pdfrwt beam="2">  1       21 0.11658125E-01 0.44840598E+03</pdfrwt>
<totfact> 0.54980844E+04</totfact>
</mgrwt>
</event>
<event>
 7    0  0.4712189E-002  0.4499105E+03  0.7546771E-02  0.1027749E+00
         21   -1    0    0  502  501  0.00000000000E+00  0.00000000000E+00  0.48581836103E+03  0.48581836103E+03  0.00000000000E+00 0.  1.
         21   -1    0    0  501  502 -0.00000000000E+00 -0.00000000000E+00 -0.10416418569E+03  0.10416418569E+03  0.00000000000E+00 0.  1.
      99926    2    1    2    0    0  0.00000000000E+00  0.71054273576E-14  0.38165417534E+03  0.58998254673E+03  0.44991054209E+03 0.  0.
      99925    2    3    3    0    0  0.83859948985E+02 -0.63038452235E+02  0.27703805572E+03  0.39607953466E+03  0.26291172654E+03 0.  0.
         25    1    3    3    0    0 -0.83859948985E+02  0.63038452235E+02  0.10461611962E+03  0.19390301207E+03  0.12509000000E+03 0.  0.
         25    1    4    4    0    0  0.67566584431E+02 -0.56037272955E+02  0.18396688701E+03  0.23915840547E+03  0.12509000000E+03 0.  0.
         25    1    4    4    0    0  0.16293364554E+02 -0.70011792801E+01  0.93071168710E+02  0.15692112919E+03  0.12509000000E+03 0.  0.
<mgrwt>
<rscale>  2 0.44991054E+03</rscale>
<asrwt>0</asrwt>
<pdfrwt beam="1">  1       21 0.71443876E-01 0.44991054E+03</pdfrwt>
<pdfrwt beam="2">  1       21 0.15318263E-01 0.44991054E+03</pdfrwt>
<totfact> 0.61745555E+04</totfact>
</mgrwt>
</event>
<event>
 7    0  0.4712189E-002  0.4543909E+03  0.7546771E-02  0.1026421E+00
         21   -1    0    0  502  501  0.00000000000E+00  0.00000000000E+00  0.16757746396E+02  0.16757746396E+02  0.00000000000E+00 0. -1.
         21   -1    0    0  501  502 -0.00000000000E+00 -0.00000000000E+00 -0.30802339304E+04  0.30802339304E+04  0.00000000000E+00 0. -1.
      99926    2    1    2    0    0  0.35527136788E-14  0.00000000000E+00 -0.30634761840E+04  0.30969916768E+04  0.45439092880E+03 0.  0.
      99925    2    3    3    0    0 -0.16684066453E+02  0.99325351295E+02 -0.15861931116E+04  0.16110049112E+04  0.26302918671E+03 0.  0.
         25    1    3    3    0    0  0.16684066453E+02 -0.99325351295E+02 -0.14772830724E+04  0.14859867656E+04  0.12509000000E+03 0.  0.
         25    1    4    4    0    0  0.80966713089E+01  0.71817359616E+02 -0.10064460978E+04  0.10167617937E+04  0.12509000000E+03 0.  0.
         25    1    4    4    0    0 -0.24780737761E+02  0.27507991679E+02 -0.57974701377E+03  0.59424311746E+03  0.12509000000E+03 0.  0.
<mgrwt>
<rscale>  2 0.45439093E+03</rscale>
<asrwt>0</asrwt>
<pdfrwt beam="1">  1       21 0.24643734E-02 0.45439093E+03</pdfrwt>
<pdfrwt beam="2">  1       21 0.45297578E+00 0.45439093E+03</pdfrwt>
<totfact> 0.27558536E+03</totfact>
</mgrwt>
</event>
<event>
 7    0  0.4712189E-002  0.4510075E+03  0.7546771E-02  0.1027422E+00
         21   -1    0    0  502  501  0.00000000000E+00  0.00000000000E+00  0.10953263697E+03  0.10953263697E+03  0.00000000000E+00 0. -1.
         21   -1    0    0  501  502 -0.00000000000E+00 -0.00000000000E+00 -0.46426283970E+03  0.46426283970E+03  0.00000000000E+00 0. -1.
      99926    2    1    2    0    0  0.17763568394E-14 -0.88817841970E-15 -0.35473020273E+03  0.57379547668E+03  0.45100746371E+03 0.  0.
      99925    2    3    3    0    0  0.64191915695E+01 -0.62139911432E+01 -0.36272723221E+03  0.44813211572E+03  0.26300480688E+03 0.  0.
         25    1    4    4    0    0  0.31104292659E+02 -0.96452713061E+01 -0.13359576341E+03  0.18589202345E+03  0.12509000000E+03 0.  0.
         25    1    4    4    0    0 -0.24685101089E+02  0.34312801629E+01 -0.22913146880E+03  0.26224009227E+03  0.12509000000E+03 0.  0.
         25    1    3    3    0    0 -0.64191915695E+01  0.62139911432E+01  0.79970294780E+01  0.12566336096E+03  0.12509000000E+03 0.  0.
<mgrwt>
<rscale>  2 0.45100746E+03</rscale>
<asrwt>0</asrwt>
<pdfrwt beam="1">  1       21 0.16107740E-01 0.45100746E+03</pdfrwt>
<pdfrwt beam="2">  1       21 0.68273949E-01 0.45100746E+03</pdfrwt>
<totfact> 0.62263348E+04</totfact>
</mgrwt>
</event>
<event>
 7    0  0.4712189E-002  0.4481725E+03  0.7546771E-02  0.1028268E+00
         21   -1    0    0  502  501  0.00000000000E+00  0.00000000000E+00  0.20003451393E+03  0.20003451393E+03  0.00000000000E+00 0.  1.
         21   -1    0    0  501  502 -0.00000000000E+00 -0.00000000000E+00 -0.25102991620E+03  0.25102991620E+03  0.00000000000E+00 0.  1.
      99926    2    1    2    0    0  0.00000000000E+00  0.00000000000E+00 -0.50995402271E+02  0.45106443012E+03  0.44817249923E+03 0.  0.
      99925    2    3    3    0    0 -0.39062952586E+02 -0.99206450126E+02 -0.35227217240E+02  0.28594635791E+03  0.26297628934E+03 0.  0.
         25    1    4    4    0    0  0.30559334894E+01 -0.44828687790E+02 -0.50915946272E+02  0.14233373340E+03  0.12509000000E+03 0.  0.
         25    1    3    3    0    0  0.39062952586E+02  0.99206450126E+02 -0.15768185031E+02  0.16511807221E+03  0.12509000000E+03 0.  0.
         25    1    4    4    0    0 -0.42118886075E+02 -0.54377762335E+02  0.15688729032E+02  0.14361262451E+03  0.12509000000E+03 0.  0.
<mgrwt>
<rscale>  2 0.44817250E+03</rscale>
<asrwt>0</asrwt>
<pdfrwt beam="1">  1       21 0.29416840E-01 0.44817250E+03</pdfrwt>
<pdfrwt beam="2">  1       21 0.36916164E-01 0.44817250E+03</pdfrwt>
<totfact> 0.72716048E+04</totfact>
</mgrwt>
</event>
<event>
 7    0  0.4712189E-002  0.4661976E+03  0.7546771E-02  0.1022999E+00
         21   -1    0    0  502  501  0.00000000000E+00  0.00000000000E+00  0.26408956477E+03  0.26408956477E+03  0.00000000000E+00 0. -1.
         21   -1    0    0  501  502 -0.00000000000E+00 -0.00000000000E+00 -0.20574480404E+03  0.20574480404E+03  0.00000000000E+00 0. -1.
      99926    2    1    2    0    0  0.00000000000E+00  0.00000000000E+00  0.58344760725E+02  0.46983436881E+03  0.46619762227E+03 0.  0.
      99925    2    3    3    0    0  0.34206956334E+02  0.11808936076E+03  0.45962184543E+02  0.29400476584E+03  0.26307996302E+03 0.  0.
         25    1    4    4    0    0  0.47807118581E+02  0.41520369138E+02  0.17319609119E+01  0.14021401295E+03  0.12509000000E+03 0.  0.
         25    1    4    4    0    0 -0.13600162247E+02  0.76568991627E+02  0.44230223631E+02  0.15379075289E+03  0.12509000000E+03 0.  0.
         25    1    3    3    0    0 -0.34206956334E+02 -0.11808936076E+03  0.12382576182E+02  0.17582960297E+03  0.12509000000E+03 0.  0.
<mgrwt>
<rscale>  2 0.46619762E+03</rscale>
<asrwt>0</asrwt>
<pdfrwt beam="1">  1       21 0.38836701E-01 0.46619762E+03</pdfrwt>
<pdfrwt beam="2">  1       21 0.30256589E-01 0.46619762E+03</pdfrwt>
<totfact> 0.61766864E+04</totfact>
</mgrwt>
</event>
<event>
 7    0  0.4712189E-002  0.4827802E+03  0.7546771E-02  0.1018374E+00
         21   -1    0    0  502  501  0.00000000000E+00  0.00000000000E+00  0.13221655806E+03  0.13221655806E+03  0.00000000000E+00 0. -1.
         21   -1    0    0  501  502 -0.00000000000E+00 -0.00000000000E+00 -0.44071008068E+03  0.44071008068E+03  0.00000000000E+00 0. -1.
      99926    2    1    2    0    0 -0.14210854715E-13  0.14210854715E-13 -0.30849352262E+03  0.57292663874E+03  0.48278015688E+03 0.  0.
      99925    2    3    3    0    0  0.11428774846E+03 -0.71952932747E+02 -0.22152740040E+03  0.36933506599E+03  0.26285944507E+03 0.  0.
         25    1    3    3    0    0 -0.11428774846E+03  0.71952932747E+02 -0.86966122227E+02  0.20359157275E+03  0.12509000000E+03 0.  0.
         25    1    4    4    0    0  0.27304358745E+02 -0.11342048621E+02 -0.71503836618E+02  0.14708663034E+03  0.12509000000E+03 0.  0.
         25    1    4    4    0    0  0.86983389716E+02 -0.60610884127E+02 -0.15002356378E+03  0.22224843565E+03  0.12509000000E+03 0.  0.
<mgrwt>
<rscale>  2 0.48278016E+03</rscale>
<asrwt>0</asrwt>
<pdfrwt beam="1">  1       21 0.19443612E-01 0.48278016E+03</pdfrwt>
<pdfrwt beam="2">  1       21 0.64810305E-01 0.48278016E+03</pdfrwt>
<totfact> 0.48747854E+04</totfact>
</mgrwt>
</event>
<event>
 7    0  0.4712189E-002  0.4542425E+03  0.7546771E-02  0.1026464E+00
         21   -1    0    0  502  501  0.00000000000E+00  0.00000000000E+00  0.26006831649E+04  0.26006831649E+04  0.00000000000E+00 0.  1.
         21   -1    0    0  501  502 -0.00000000000E+00 -0.00000000000E+00 -0.19834816204E+02  0.19834816204E+02  0.00000000000E+00 0.  1.
      99926    2    1    2    0    0  0.00000000000E+00  0.71054273576E-14  0.25808483487E+04  0.26205179811E+04  0.45424254570E+03 0.  0.
      99925    2    3    3    0    0  0.40432342648E+02 -0.45656224414E+02  0.21702462077E+04  0.21869734142E+04  0.26299210527E+03 0.  0.
         25    1    4    4    0    0 -0.95326772307E+00 -0.21485446319E+02  0.77657271309E+03  0.78687687725E+03  0.12509000000E+03 0.  0.
         25    1    4    4    0    0  0.41385610371E+02 -0.24170778095E+02  0.13936734946E+04  0.14000965370E+04  0.12509000000E+03 0.  0.
         25    1    3    3    0    0 -0.40432342648E+02  0.45656224414E+02  0.41060214100E+03  0.43354456686E+03  0.12509000000E+03 0.  0.
<mgrwt>
<rscale>  2 0.45424255E+03</rscale>
<asrwt>0</asrwt>
<pdfrwt beam="1">  1       21 0.38245317E+00 0.45424255E+03</pdfrwt>
<pdfrwt beam="2">  1       21 0.29168865E-02 0.45424255E+03</pdfrwt>
<totfact> 0.60110376E+03</totfact>
</mgrwt>
</event>
<event>
 7    0  0.4712189E-002  0.4548908E+03  0.7546771E-02  0.1026274E+00
         21   -1    0    0  502  501  0.00000000000E+00  0.00000000000E+00  0.20947877632E+03  0.20947877632E+03  0.00000000000E+00 0. -1.
         21   -1    0    0  501  502 -0.00000000000E+00 -0.00000000000E+00 -0.24695299352E+03  0.24695299352E+03  0.00000000000E+00 0. -1.
      99926    2    1    2    0    0 -0.14210854715E-13  0.00000000000E+00 -0.37474217199E+02  0.45643176983E+03  0.45489080399E+03 0.  0.
      99925    2    3    3    0    0 -0.72208519232E+02  0.47168018735E+02  0.49787519493E+02  0.28121473005E+03  0.26299056077E+03 0.  0.
         25    1    4    4    0    0 -0.26358475652E+02  0.56671997344E+02  0.35810315719E+01  0.13988143697E+03  0.12509000000E+03 0.  0.
         25    1    4    4    0    0 -0.45850043580E+02 -0.95039786098E+01  0.46206487921E+02  0.14133329308E+03  0.12509000000E+03 0.  0.
         25    1    3    3    0    0  0.72208519232E+02 -0.47168018735E+02 -0.87261736691E+02  0.17521703979E+03  0.12509000000E+03 0.  0.
<mgrwt>
<rscale>  2 0.45489080E+03</rscale>
<asrwt>0</asrwt>
<pdfrwt beam="1">  1       21 0.30805702E-01 0.45489080E+03</pdfrwt>
<pdfrwt beam="2">  1       21 0.36316617E-01 0.45489080E+03</pdfrwt>
<totfact> 0.68500720E+04</totfact>
</mgrwt>
</event>
<event>
 7    0  0.4712189E-002  0.4542770E+03  0.7546771E-02  0.1026454E+00
         21   -1    0    0  502  501  0.00000000000E+00  0.00000000000E+00  0.33104381607E+03  0.33104381607E+03  0.00000000000E+00 0. -1.
         21   -1    0    0  501  502 -0.00000000000E+00 -0.00000000000E+00 -0.15584611521E+03  0.15584611521E+03  0.00000000000E+00 0. -1.
      99926    2    1    2    0    0  0.00000000000E+00  0.88817841970E-15  0.17519770086E+03  0.48688993129E+03  0.45427697587E+03 0.  0.
      99925    2    3    3    0    0 -0.83139212265E+02 -0.31892908914E+01  0.19036641393E+03  0.33589357984E+03  0.26393716153E+03 0.  0.
         25    1    4    4    0    0 -0.15489631179E+02 -0.31760066628E+02  0.10860514422E+03  0.16938481619E+03  0.12509000000E+03 0.  0.
         25    1    3    3    0    0  0.83139212265E+02  0.31892908914E+01 -0.15168713073E+02  0.15099635144E+03  0.12509000000E+03 0.  0.
         25    1    4    4    0    0 -0.67649581086E+02  0.28570775736E+02  0.81761269710E+02  0.16650876365E+03  0.12509000000E+03 0.  0.
<mgrwt>
<rscale>  2 0.45427698E+03</rscale>
<asrwt>0</asrwt>
<pdfrwt beam="1">  1       21 0.48682914E-01 0.45427698E+03</pdfrwt>
<pdfrwt beam="2">  1       21 0.22918546E-01 0.45427698E+03</pdfrwt>
<totfact> 0.66583236E+04</totfact>
</mgrwt>
</event>
<event>
 7    0  0.4712189E-002  0.4558067E+03  0.7546771E-02  0.1026004E+00
         21   -1    0    0  502  501  0.00000000000E+00  0.00000000000E+00  0.17441718786E+03  0.17441718786E+03  0.00000000000E+00 0. -1.
         21   -1    0    0  501  502 -0.00000000000E+00 -0.00000000000E+00 -0.29779136113E+03  0.29779136113E+03  0.00000000000E+00 0. -1.
      99926    2    1    2    0    0  0.00000000000E+00  0.00000000000E+00 -0.12337417327E+03  0.47220854899E+03  0.45580667734E+03 0.  0.
      99925    2    3    3    0    0  0.10813689443E+03  0.31015404754E+02 -0.58724381746E+02  0.29197912045E+03  0.26295952255E+03 0.  0.
         25    1    3    3    0    0 -0.10813689443E+03 -0.31015404754E+02 -0.64649791525E+02  0.18022942854E+03  0.12509000000E+03 0.  0.
         25    1    4    4    0    0  0.70323291343E+02  0.45101194556E+02 -0.56015123131E+02  0.16051381615E+03  0.12509000000E+03 0.  0.
         25    1    4    4    0    0  0.37813603082E+02 -0.14085789802E+02 -0.27092586142E+01  0.13146530430E+03  0.12509000000E+03 0.  0.
<mgrwt>
<rscale>  2 0.45580668E+03</rscale>
<asrwt>0</asrwt>
<pdfrwt beam="1">  1       21 0.25649587E-01 0.45580668E+03</pdfrwt>
<pdfrwt beam="2">  1       21 0.43792847E-01 0.45580668E+03</pdfrwt>
<totfact> 0.66843012E+04</totfact>
</mgrwt>
</event>
<event>
 7    0  0.4712189E-002  0.4466562E+03  0.7546771E-02  0.1028724E+00
         21   -1    0    0  502  501  0.00000000000E+00  0.00000000000E+00  0.10918999452E+03  0.10918999452E+03  0.00000000000E+00 0.  1.
         21   -1    0    0  501  502 -0.00000000000E+00 -0.00000000000E+00 -0.45677671008E+03  0.45677671008E+03  0.00000000000E+00 0.  1.
      99926    2    1    2    0    0  0.00000000000E+00 -0.14210854715E-13 -0.34758671555E+03  0.56596670460E+03  0.44665622786E+03 0.  0.
      99925    2    3    3    0    0 -0.35781281127E+02 -0.95481386508E+02 -0.25316442744E+03  0.37899057821E+03  0.26295367615E+03 0.  0.
         25    1    3    3    0    0  0.35781281127E+02  0.95481386508E+02 -0.94422288115E+02  0.18697612639E+03  0.12509000000E+03 0.  0.
         25    1    4    4    0    0 -0.17939962238E+02 -0.88789848973E+02 -0.15535070131E+03  0.21905896016E+03  0.12509000000E+03 0.  0.
         25    1    4    4    0    0 -0.17841318888E+02 -0.66915375358E+01 -0.97813726121E+02  0.15993161805E+03  0.12509000000E+03 0.  0.
<mgrwt>
<rscale>  2 0.44665623E+03</rscale>
<asrwt>0</asrwt>
<pdfrwt beam="1">  1       21 0.16057352E-01 0.44665623E+03</pdfrwt>
<pdfrwt beam="2">  1       21 0.67173046E-01 0.44665623E+03</pdfrwt>
<totfact> 0.65008248E+04</totfact>
</mgrwt>
</event>
<event>
 7    0  0.4712189E-002  0.4624227E+03  0.7546771E-02  0.1024081E+00
         21   -1    0    0  502  501  0.00000000000E+00  0.00000000000E+00  0.11550473725E+04  0.11550473725E+04  0.00000000000E+00 0. -1.
         21   -1    0    0  501  502 -0.00000000000E+00 -0.00000000000E+00 -0.46282688654E+02  0.46282688654E+02  0.00000000000E+00 0. -1.
      99926    2    1    2    0    0  0.00000000000E+00  0.00000000000E+00  0.11087646838E+04  0.12013300611E+04  0.46242274131E+03 0.  0.
      99925    2    3    3    0    0 -0.85594436566E+02 -0.44098157664E+02  0.50695236533E+03  0.57915916028E+03  0.26297067733E+03 0.  0.
         25    1    4    4    0    0 -0.63220829662E+02 -0.58366350290E+02  0.28944081116E+03  0.32684399247E+03  0.12509000000E+03 0.  0.
         25    1    3    3    0    0  0.85594436566E+02  0.44098157664E+02  0.60181231849E+03  0.62217090085E+03  0.12509000000E+03 0.  0.
         25    1    4    4    0    0 -0.22373606904E+02  0.14268192626E+02  0.21751155417E+03  0.25231516780E+03  0.12509000000E+03 0.  0.
<mgrwt>
<rscale>  2 0.46242274E+03</rscale>
<asrwt>0</asrwt>
<pdfrwt beam="1">  1       21 0.16985989E+00 0.46242274E+03</pdfrwt>
<pdfrwt beam="2">  1       21 0.68062785E-02 0.46242274E+03</pdfrwt>
<totfact> 0.30322211E+04</totfact>
</mgrwt>
</event>
<event>
 7    0  0.4712189E-002  0.4563365E+03  0.7546771E-02  0.1025849E+00
         21   -1    0    0  502  501  0.00000000000E+00  0.00000000000E+00  0.13341266241E+04  0.13341266241E+04  0.00000000000E+00 0.  1.
         21   -1    0    0  501  502 -0.00000000000E+00 -0.00000000000E+00 -0.39022337840E+02  0.39022337840E+02  0.00000000000E+00 0.  1.
      99926    2    1    2    0    0  0.00000000000E+00  0.00000000000E+00  0.12951042863E+04  0.13731489620E+04  0.45633645415E+03 0.  0.
      99925    2    3    3    0    0 -0.16735945949E+02 -0.11289610503E+03  0.83807772760E+03  0.88576163564E+03  0.26300907827E+03 0.  0.
         25    1    3    3    0    0  0.16735945949E+02  0.11289610503E+03  0.45702655868E+03  0.48738732632E+03  0.12509000000E+03 0.  0.
         25    1    4    4    0    0 -0.39152894342E+02 -0.39884347846E+02  0.33996637226E+03  0.36653560906E+03  0.12509000000E+03 0.  0.
         25    1    4    4    0    0  0.22416948394E+02 -0.73011757188E+02  0.49811135534E+03  0.51922602658E+03  0.12509000000E+03 0.  0.
<mgrwt>
<rscale>  2 0.45633645E+03</rscale>
<asrwt>0</asrwt>
<pdfrwt beam="1">  1       21 0.19619506E+00 0.45633645E+03</pdfrwt>
<pdfrwt beam="2">  1       21 0.57385800E-02 0.45633645E+03</pdfrwt>
<totfact> 0.26777195E+04</totfact>
</mgrwt>
</event>
<event>
 6    0  0.4712189E-002  0.4556834E+03  0.7546771E-02  0.1026041E+00
         21   -1    0    0  502  501  0.00000000000E+00  0.00000000000E+00  0.59254777686E+02  0.59254777686E+02  0.00000000000E+00 0.  1.
         21   -1    0    0  501  502 -0.00000000000E+00 -0.00000000000E+00 -0.87607866799E+03  0.87607866799E+03  0.00000000000E+00 0.  1.
      99926    2    1    2    0    0  0.00000000000E+00  0.00000000000E+00 -0.81682389030E+03  0.93533344567E+03  0.45568342830E+03 0.  0.
         25    1    3    3    0    0  0.70654730782E+02  0.61176271173E+02 -0.42347458093E+03  0.45134560586E+03  0.12509000000E+03 0.  0.
         25    1    3    3    0    0 -0.14749158606E+02 -0.41819705558E+02 -0.25950325712E+03  0.29147190947E+03  0.12509000000E+03 0.  0.
         25    1    3    3    0    0 -0.55905572176E+02 -0.19356565615E+02 -0.13384605225E+03  0.19251593034E+03  0.12509000000E+03 0.  0.
<mgrwt>
<rscale>  2 0.45568343E+03</rscale>
<asrwt>0</asrwt>
<pdfrwt beam="1">  1       21 0.87139386E-02 0.45568343E+03</pdfrwt>
<pdfrwt beam="2">  1       21 0.12883509E+00 0.45568343E+03</pdfrwt>
<totfact> 0.41518116E+04</totfact>
</mgrwt>
</event>
<event>
 7    0  0.4712189E-002  0.4458137E+03  0.7546771E-02  0.1028978E+00
         21   -1    0    0  502  501  0.00000000000E+00  0.00000000000E+00  0.65668246821E+03  0.65668246821E+03  0.00000000000E+00 0. -1.
         21   -1    0    0  501  502 -0.00000000000E+00 -0.00000000000E+00 -0.75664367193E+02  0.75664367193E+02  0.00000000000E+00 0. -1.
      99926    2    1    2    0    0  0.00000000000E+00  0.00000000000E+00  0.58101810102E+03  0.73234683541E+03  0.44581369833E+03 0.  0.
      99925    2    3    3    0    0 -0.76936147606E+02 -0.20835104172E+02  0.47923782718E+03  0.55245796800E+03  0.26303543303E+03 0.  0.
         25    1    3    3    0    0  0.76936147606E+02  0.20835104172E+02  0.10178027384E+03  0.17988886741E+03  0.12509000000E+03 0.  0.
         25    1    4    4    0    0 -0.27965039671E+02 -0.63043990253E+01  0.31264307023E+03  0.33795707768E+03  0.12509000000E+03 0.  0.
         25    1    4    4    0    0 -0.48971107935E+02 -0.14530705146E+02  0.16659475695E+03  0.21450089032E+03  0.12509000000E+03 0.  0.
<mgrwt>
<rscale>  2 0.44581370E+03</rscale>
<asrwt>0</asrwt>
<pdfrwt beam="1">  1       21 0.96570948E-01 0.44581370E+03</pdfrwt>
<pdfrwt beam="2">  1       21 0.11127113E-01 0.44581370E+03</pdfrwt>
<totfact> 0.55051705E+04</totfact>
</mgrwt>
</event>
<event>
 7    0  0.4712189E-002  0.4609214E+03  0.7546771E-02  0.1024514E+00
         21   -1    0    0  502  501  0.00000000000E+00  0.00000000000E+00  0.75341217366E+02  0.75341217366E+02  0.00000000000E+00 0.  1.
         21   -1    0    0  501  502 -0.00000000000E+00 -0.00000000000E+00 -0.70495451583E+03  0.70495451583E+03  0.00000000000E+00 0.  1.
      99926    2    1    2    0    0 -0.14210854715E-13  0.00000000000E+00 -0.62961329847E+03  0.78029573320E+03  0.46092138770E+03 0.  0.
      99925    2    3    3    0    0 -0.83954240145E+02 -0.67329657761E+02 -0.47820665160E+03  0.55634690407E+03  0.26317043675E+03 0.  0.
         25    1    4    4    0    0 -0.49981594034E+02 -0.86364255113E+01 -0.29465761333E+03  0.32410394132E+03  0.12509000000E+03 0.  0.
         25    1    3    3    0    0  0.83954240145E+02  0.67329657761E+02 -0.15140664687E+03  0.22394882913E+03  0.12509000000E+03 0.  0.
         25    1    4    4    0    0 -0.33972646111E+02 -0.58693232250E+02 -0.18354903827E+03  0.23224296275E+03  0.12509000000E+03 0.  0.
<mgrwt>
<rscale>  2 0.46092139E+03</rscale>
<asrwt>0</asrwt>
<pdfrwt beam="1">  1       21 0.11079591E-01 0.46092139E+03</pdfrwt>
<pdfrwt beam="2">  1       21 0.10366978E+00 0.46092139E+03</pdfrwt>
<totfact> 0.46532002E+04</totfact>
</mgrwt>
</event>
<event>
 7    0  0.4712189E-002  0.4222201E+03  0.7546771E-02  0.1036346E+00
         21   -1    0    0  502  501  0.00000000000E+00  0.00000000000E+00  0.56836101713E+03  0.56836101713E+03  0.00000000000E+00 0. -1.
         21   -1    0    0  501  502 -0.00000000000E+00 -0.00000000000E+00 -0.78413972780E+02  0.78413972780E+02  0.00000000000E+00 0. -1.
      99926    2    1    2    0    0 -0.71054273576E-14  0.35527136788E-14  0.48994704435E+03  0.64677498991E+03  0.42222006265E+03 0.  0.
      99925    2    3    3    0    0  0.59823325976E+02 -0.26853661784E+02  0.38507825435E+03  0.47086330554E+03  0.26292021803E+03 0.  0.
         25    1    3    3    0    0 -0.59823325976E+02  0.26853661784E+02  0.10486879000E+03  0.17591168437E+03  0.12509000000E+03 0.  0.
         25    1    4    4    0    0  0.62735761080E+02 -0.38486205396E+02  0.19793699969E+03  0.24544556967E+03  0.12509000000E+03 0.  0.
         25    1    4    4    0    0 -0.29124351041E+01  0.11632543612E+02  0.18714125466E+03  0.22541773587E+03  0.12509000000E+03 0.  0.
<mgrwt>
<rscale>  2 0.42222006E+03</rscale>
<asrwt>0</asrwt>
<pdfrwt beam="1">  1       21 0.83582501E-01 0.42222006E+03</pdfrwt>
<pdfrwt beam="2">  1       21 0.11531467E-01 0.42222006E+03</pdfrwt>
<totfact> 0.73003188E+04</totfact>
</mgrwt>
</event>
<event>
 7    0  0.4712189E-002  0.4542640E+03  0.7546771E-02  0.1026458E+00
         21   -1    0    0  502  501  0.00000000000E+00  0.00000000000E+00  0.10893361224E+03  0.10893361224E+03  0.00000000000E+00 0. -1.
         21   -1    0    0  501  502 -0.00000000000E+00 -0.00000000000E+00 -0.47358144049E+03  0.47358144049E+03  0.00000000000E+00 0. -1.
      99926    2    1    2    0    0 -0.35527136788E-14  0.14210854715E-13 -0.36464782825E+03  0.58251505273E+03  0.45426396292E+03 0.  0.
      99925    2    3    3    0    0  0.17068496654E+02 -0.94266443892E+02 -0.15410705709E+03  0.31954657468E+03  0.26302762655E+03 0.  0.
         25    1    3    3    0    0 -0.17068496654E+02  0.94266443892E+02 -0.21054077117E+03  0.26296847804E+03  0.12509000000E+03 0.  0.
         25    1    4    4    0    0  0.40132779177E+02 -0.51058607216E+02 -0.49849697475E+02  0.14949957115E+03  0.12509000000E+03 0.  0.
         25    1    4    4    0    0 -0.23064282522E+02 -0.43207836676E+02 -0.10425735961E+03  0.17004700354E+03  0.12509000000E+03 0.  0.
<mgrwt>
<rscale>  2 0.45426396E+03</rscale>
<asrwt>0</asrwt>
<pdfrwt beam="1">  1       21 0.16019649E-01 0.45426396E+03</pdfrwt>
<pdfrwt beam="2">  1       21 0.69644330E-01 0.45426396E+03</pdfrwt>
<totfact> 0.60116652E+04</totfact>
</mgrwt>
</event>
<event>
 7    0  0.4712189E-002  0.4564206E+03  0.7546771E-02  0.1025824E+00
         21   -1    0    0  502  501  0.00000000000E+00  0.00000000000E+00  0.41220190497E+03  0.41220190497E+03  0.00000000000E+00 0. -1.
         21   -1    0    0  501  502 -0.00000000000E+00 -0.00000000000E+00 -0.12634569462E+03  0.12634569462E+03  0.00000000000E+00 0. -1.
      99926    2    1    2    0    0  0.35527136788E-14  0.35527136788E-14  0.28585621036E+03  0.53854759959E+03  0.45642057800E+03 0.  0.
      99925    2    3    3    0    0  0.20651584438E+02  0.22883316610E+02  0.49576613940E+02  0.26942738500E+03  0.26302688269E+03 0.  0.
         25    1    4    4    0    0  0.46430895379E+02  0.30049634776E+02  0.29933751137E+02  0.14000837887E+03  0.12509000000E+03 0.  0.
         25    1    4    4    0    0 -0.25779310941E+02 -0.71663181657E+01  0.19642862802E+02  0.12941900613E+03  0.12509000000E+03 0.  0.
         25    1    3    3    0    0 -0.20651584438E+02 -0.22883316610E+02  0.23627959642E+03  0.26912021459E+03  0.12509000000E+03 0.  0.
<mgrwt>
<rscale>  2 0.45642058E+03</rscale>
<asrwt>0</asrwt>
<pdfrwt beam="1">  1       21 0.60617927E-01 0.45642058E+03</pdfrwt>
<pdfrwt beam="2">  1       21 0.18580249E-01 0.45642058E+03</pdfrwt>
<totfact> 0.61930484E+04</totfact>
</mgrwt>
</event>
<event>
 7    0  0.4712189E-002  0.4454415E+03  0.7546771E-02  0.1029090E+00
         21   -1    0    0  502  501  0.00000000000E+00  0.00000000000E+00  0.18305653584E+04  0.18305653584E+04  0.00000000000E+00 0.  1.
         21   -1    0    0  501  502 -0.00000000000E+00 -0.00000000000E+00 -0.27097928239E+02  0.27097928239E+02  0.00000000000E+00 0.  1.
      99926    2    1    2    0    0  0.00000000000E+00  0.00000000000E+00  0.18034674302E+04  0.18576632866E+04  0.44544148311E+03 0.  0.
      99925    2    3    3    0    0 -0.44952696355E+02 -0.84275828855E+02  0.13167342106E+04  0.13461167146E+04  0.26290315276E+03 0.  0.
         25    1    4    4    0    0 -0.25697185718E+02 -0.33685382647E+01  0.68086490901E+03  0.69274542570E+03  0.12509000000E+03 0.  0.
         25    1    4    4    0    0 -0.19255510637E+02 -0.80907290591E+02  0.63586930158E+03  0.65337128890E+03  0.12509000000E+03 0.  0.
         25    1    3    3    0    0  0.44952696355E+02  0.84275828855E+02  0.48673321956E+03  0.51154657204E+03  0.12509000000E+03 0.  0.
<mgrwt>
<rscale>  2 0.44544148E+03</rscale>
<asrwt>0</asrwt>
<pdfrwt beam="1">  1       21 0.26920071E+00 0.44544148E+03</pdfrwt>
<pdfrwt beam="2">  1       21 0.39849907E-02 0.44544148E+03</pdfrwt>
<totfact> 0.17433938E+04</totfact>
</mgrwt>
</event>
<event>
 7    0  0.4712189E-002  0.4577087E+03  0.7546771E-02  0.1025448E+00
         21   -1    0    0  502  501  0.00000000000E+00  0.00000000000E+00  0.64505604778E+03  0.64505604778E+03  0.00000000000E+00 0. -1.
         21   -1    0    0  501  502 -0.00000000000E+00 -0.00000000000E+00 -0.81193441587E+02  0.81193441587E+02  0.00000000000E+00 0. -1.
      99926    2    1    2    0    0  0.00000000000E+00  0.00000000000E+00  0.56386260620E+03  0.72624948937E+03  0.45770873068E+03 0.  0.
      99925    2    3    3    0    0 -0.32285274537E+02 -0.96555829811E+02  0.44093893870E+03  0.52346116783E+03  0.26309519065E+03 0.  0.
         25    1    4    4    0    0 -0.52341038245E+02 -0.65784001762E+02  0.25851280157E+03  0.29923819250E+03  0.12509000000E+03 0.  0.
         25    1    4    4    0    0  0.20055763708E+02 -0.30771828049E+02  0.18242613712E+03  0.22422297533E+03  0.12509000000E+03 0.  0.
         25    1    3    3    0    0  0.32285274537E+02  0.96555829811E+02  0.12292366750E+03  0.20278832154E+03  0.12509000000E+03 0.  0.
<mgrwt>
<rscale>  2 0.45770873E+03</rscale>
<asrwt>0</asrwt>
<pdfrwt beam="1">  1       21 0.94861181E-01 0.45770873E+03</pdfrwt>
<pdfrwt beam="2">  1       21 0.11940212E-01 0.45770873E+03</pdfrwt>
<totfact> 0.50418245E+04</totfact>
</mgrwt>
</event>
<event>
 7    0  0.4712189E-002  0.4555818E+03  0.7546771E-02  0.1026070E+00
         21   -1    0    0  502  501  0.00000000000E+00  0.00000000000E+00  0.29022276107E+03  0.29022276107E+03  0.00000000000E+00 0.  1.
         21   -1    0    0  501  502 -0.00000000000E+00 -0.00000000000E+00 -0.17878922005E+03  0.17878922005E+03  0.00000000000E+00 0.  1.
      99926    2    1    2    0    0  0.00000000000E+00  0.00000000000E+00  0.11143354101E+03  0.46901198112E+03  0.45558183060E+03 0.  0.
      99925    2    3    3    0    0 -0.62606407168E+02 -0.51722840231E+02 -0.12853796530E+02  0.27487371907E+03  0.26228901412E+03 0.  0.
         25    1    4    4    0    0 -0.28571919367E+02 -0.25459183926E+02  0.32945657332E+02  0.13489792089E+03  0.12509000000E+03 0.  0.
         25    1    3    3    0    0  0.62606407168E+02  0.51722840231E+02  0.12428733754E+03  0.19413826205E+03  0.12509000000E+03 0.  0.
         25    1    4    4    0    0 -0.34034487801E+02 -0.26263656305E+02 -0.45799453862E+02  0.13997579818E+03  0.12509000000E+03 0.  0.
<mgrwt>
<rscale>  2 0.45558183E+03</rscale>
<asrwt>0</asrwt>
<pdfrwt beam="1">  1       21 0.42679818E-01 0.45558183E+03</pdfrwt>
<pdfrwt beam="2">  1       21 0.26292532E-01 0.45558183E+03</pdfrwt>
<totfact> 0.67198656E+04</totfact>
</mgrwt>
</event>
<event>
 7    0  0.4712189E-002  0.4533494E+03  0.7546771E-02  0.1026728E+00
         21   -1    0    0  502  501  0.00000000000E+00  0.00000000000E+00  0.31291768948E+02  0.31291768948E+02  0.00000000000E+00 0.  1.
         21   -1    0    0  501  502 -0.00000000000E+00 -0.00000000000E+00 -0.16420107749E+04  0.16420107749E+04  0.00000000000E+00 0.  1.
      99926    2    1    2    0    0  0.88817841970E-15  0.00000000000E+00 -0.16107190059E+04  0.16733025438E+04  0.45334940952E+03 0.  0.
      99925    2    3    3    0    0 -0.64488049386E+01 -0.10582064421E+03 -0.11439069221E+04  0.11785292366E+04  0.26299908610E+03 0.  0.
         25    1    4    4    0    0 -0.22434237617E+02 -0.79685288474E+02 -0.50664834376E+03  0.52838725623E+03  0.12509000000E+03 0.  0.
         25    1    4    4    0    0  0.15985432679E+02 -0.26135355732E+02 -0.63725857835E+03  0.65014198038E+03  0.12509000000E+03 0.  0.
         25    1    3    3    0    0  0.64488049386E+01  0.10582064421E+03 -0.46681208383E+03  0.49477330722E+03  0.12509000000E+03 0.  0.
<mgrwt>
<rscale>  2 0.45334941E+03</rscale>
<asrwt>0</asrwt>
<pdfrwt beam="1">  1       21 0.46017310E-02 0.45334941E+03</pdfrwt>
<pdfrwt beam="2">  1       21 0.24147216E+00 0.45334941E+03</pdfrwt>
<totfact> 0.20079031E+04</totfact>
</mgrwt>
</event>
<event>
 7    0  0.4712189E-002  0.4555302E+03  0.7546771E-02  0.1026086E+00
         21   -1    0    0  502  501  0.00000000000E+00  0.00000000000E+00  0.23953828257E+03  0.23953828257E+03  0.00000000000E+00 0. -1.
         21   -1    0    0  501  502 -0.00000000000E+00 -0.00000000000E+00 -0.21657057021E+03  0.21657057021E+03  0.00000000000E+00 0. -1.
      99926    2    1    2    0    0  0.00000000000E+00  0.35527136788E-14  0.22967712356E+02  0.45610885278E+03  0.45553020731E+03 0.  0.
      99925    2    3    3    0    0 -0.62709297032E+02 -0.20522972515E+02  0.10706235619E+03  0.29156990433E+03  0.26305325062E+03 0.  0.
         25    1    4    4    0    0 -0.71306317306E+02 -0.21903177465E+02  0.52429323930E+02  0.15479238411E+03  0.12509000000E+03 0.  0.
         25    1    4    4    0    0  0.85970202743E+01  0.13802049501E+01  0.54633032257E+02  0.13677752022E+03  0.12509000000E+03 0.  0.
         25    1    3    3    0    0  0.62709297032E+02  0.20522972515E+02 -0.84094643831E+02  0.16453894845E+03  0.12509000000E+03 0.  0.
<mgrwt>
<rscale>  2 0.45553021E+03</rscale>
<asrwt>0</asrwt>
<pdfrwt beam="1">  1       21 0.35226218E-01 0.45553021E+03</pdfrwt>
<pdfrwt beam="2">  1       21 0.31848613E-01 0.45553021E+03</pdfrwt>
<totfact> 0.68175792E+04</totfact>
</mgrwt>
</event>
<event>
 7    0  0.4712189E-002  0.4557411E+03  0.7546771E-02  0.1026024E+00
         21   -1    0    0  502  501  0.00000000000E+00  0.00000000000E+00  0.13655541729E+03  0.13655541729E+03  0.00000000000E+00 0. -1.
         21   -1    0    0  501  502 -0.00000000000E+00 -0.00000000000E+00 -0.38024849538E+03  0.38024849538E+03  0.00000000000E+00 0. -1.
      99926    2    1    2    0    0  0.00000000000E+00  0.00000000000E+00 -0.24369307809E+03  0.51680391267E+03  0.45574111932E+03 0.  0.
      99925    2    3    3    0    0  0.79999848654E+02 -0.35479358069E+02 -0.23587851133E+03  0.36394012955E+03  0.26297335447E+03 0.  0.
         25    1    4    4    0    0  0.58943035477E+02 -0.40830115254E+02 -0.16271544426E+03  0.21740562008E+03  0.12509000000E+03 0.  0.
         25    1    4    4    0    0  0.21056813176E+02  0.53507571853E+01 -0.73163067069E+02  0.14653450947E+03  0.12509000000E+03 0.  0.
         25    1    3    3    0    0 -0.79999848654E+02  0.35479358069E+02 -0.78145667619E+01  0.15286378311E+03  0.12509000000E+03 0.  0.
<mgrwt>
<rscale>  2 0.45574112E+03</rscale>
<asrwt>0</asrwt>
<pdfrwt beam="1">  1       21 0.20081679E-01 0.45574112E+03</pdfrwt>
<pdfrwt beam="2">  1       21 0.55918896E-01 0.45574112E+03</pdfrwt>
<totfact> 0.63729954E+04</totfact>
</mgrwt>
</event>
<event>
 7    0  0.4712189E-002  0.4483886E+03  0.7546771E-02  0.1028204E+00
         21   -1    0    0  502  501  0.00000000000E+00  0.00000000000E+00  0.60012451715E+03  0.60012451715E+03  0.00000000000E+00 0.  1.
         21   -1    0    0  501  502 -0.00000000000E+00 -0.00000000000E+00 -0.83754424028E+02  0.83754424028E+02  0.00000000000E+00 0.  1.
      99926    2    1    2    0    0  0.00000000000E+00  0.00000000000E+00  0.51637009312E+03  0.68387894118E+03  0.44838859611E+03 0.  0.
      99925    2    3    3    0    0  0.28339688181E+02  0.10043751535E+03  0.36216017266E+03  0.45955988250E+03  0.26295334668E+03 0.  0.
         25    1    4    4    0    0 -0.28605493624E+01  0.64534496018E+02  0.24060993314E+03  0.27877146903E+03  0.12509000000E+03 0.  0.
         25    1    4    4    0    0  0.31200237544E+02  0.35903019329E+02  0.12155023952E+03  0.18078841347E+03  0.12509000000E+03 0.  0.
         25    1    3    3    0    0 -0.28339688181E+02 -0.10043751535E+03  0.15420992047E+03  0.22431905868E+03  0.12509000000E+03 0.  0.
<mgrwt>
<rscale>  2 0.44838860E+03</rscale>
<asrwt>0</asrwt>
<pdfrwt beam="1">  1       21 0.88253604E-01 0.44838860E+03</pdfrwt>
<pdfrwt beam="2">  1       21 0.12316827E-01 0.44838860E+03</pdfrwt>
<totfact> 0.56680513E+04</totfact>
</mgrwt>
</event>
<event>
 7    0  0.4712189E-002  0.4553284E+03  0.7546771E-02  0.1026145E+00
         21   -1    0    0  502  501  0.00000000000E+00  0.00000000000E+00  0.12832607789E+03  0.12832607789E+03  0.00000000000E+00 0.  1.
         21   -1    0    0  501  502 -0.00000000000E+00 -0.00000000000E+00 -0.40390059283E+03  0.40390059283E+03  0.00000000000E+00 0.  1.
      99926    2    1    2    0    0  0.00000000000E+00 -0.14210854715E-13 -0.27557451493E+03  0.53222667072E+03  0.45532836035E+03 0.  0.
      99925    2    3    3    0    0  0.65188948547E+02  0.82330326474E+02 -0.12302494603E+03  0.30873895128E+03  0.26297665489E+03 0.  0.
         25    1    4    4    0    0  0.17215282100E+02  0.11160167212E+01 -0.48767873885E+02  0.13536404639E+03  0.12509000000E+03 0.  0.
         25    1    4    4    0    0  0.47973666447E+02  0.81214309753E+02 -0.74257072148E+02  0.17337490489E+03  0.12509000000E+03 0.  0.
         25    1    3    3    0    0 -0.65188948547E+02 -0.82330326474E+02 -0.15254956890E+03  0.22348771944E+03  0.12509000000E+03 0.  0.
<mgrwt>
<rscale>  2 0.45532836E+03</rscale>
<asrwt>0</asrwt>
<pdfrwt beam="1">  1       21 0.18871482E-01 0.45532836E+03</pdfrwt>
<pdfrwt beam="2">  1       21 0.59397146E-01 0.45532836E+03</pdfrwt>
<totfact> 0.62892185E+04</totfact>
</mgrwt>
</event>
<event>
 7    0  0.4712189E-002  0.4587220E+03  0.7546771E-02  0.1025153E+00
         21   -1    0    0  502  501  0.00000000000E+00  0.00000000000E+00  0.57725326659E+02  0.57725326659E+02  0.00000000000E+00 0. -1.
         21   -1    0    0  501  502 -0.00000000000E+00 -0.00000000000E+00 -0.91132399127E+03  0.91132399127E+03  0.00000000000E+00 0. -1.
      99926    2    1    2    0    0  0.00000000000E+00  0.71054273576E-14 -0.85359866461E+03  0.96904931793E+03  0.45872202950E+03 0.  0.
      99925    2    3    3    0    0  0.59209907825E+02 -0.59355494924E+02 -0.36443138426E+03  0.45722803640E+03  0.26309381496E+03 0.  0.
         25    1    4    4    0    0 -0.89281443050E+00 -0.20882251155E+02 -0.12663767345E+03  0.17922464665E+03  0.12509000000E+03 0.  0.
         25    1    4    4    0    0  0.60102722255E+02 -0.38473243769E+02 -0.23779371081E+03  0.27800338975E+03  0.12509000000E+03 0.  0.
         25    1    3    3    0    0 -0.59209907825E+02  0.59355494924E+02 -0.48916728035E+03  0.51182128153E+03  0.12509000000E+03 0.  0.
<mgrwt>
<rscale>  2 0.45872203E+03</rscale>
<asrwt>0</asrwt>
<pdfrwt beam="1">  1       21 0.84890186E-02 0.45872203E+03</pdfrwt>
<pdfrwt beam="2">  1       21 0.13401823E+00 0.45872203E+03</pdfrwt>
<totfact> 0.39225020E+04</totfact>
</mgrwt>
</event>
<event>
 7    0  0.4712189E-002  0.4690292E+03  0.7546771E-02  0.1022195E+00
         21   -1    0    0  502  501  0.00000000000E+00  0.00000000000E+00  0.53953990247E+03  0.53953990247E+03  0.00000000000E+00 0.  1.
         21   -1    0    0  501  502 -0.00000000000E+00 -0.00000000000E+00 -0.10193331289E+03  0.10193331289E+03  0.00000000000E+00 0.  1.
      99926    2    1    2    0    0  0.17763568394E-14 -0.14210854715E-13  0.43760658958E+03  0.64147321537E+03  0.46902916624E+03 0.  0.
      99925    2    3    3    0    0 -0.13512386003E+02  0.11698601016E+03  0.21135213391E+03  0.35738362042E+03  0.26303044783E+03 0.  0.
         25    1    4    4    0    0 -0.25513650482E+02  0.97621713385E+02  0.10948156978E+03  0.19445993805E+03  0.12509000000E+03 0.  0.
         25    1    3    3    0    0  0.13512386003E+02 -0.11698601016E+03  0.22625445567E+03  0.28408959495E+03  0.12509000000E+03 0.  0.
         25    1    4    4    0    0  0.12001264479E+02  0.19364296774E+02  0.10187056413E+03  0.16292368236E+03  0.12509000000E+03 0.  0.
<mgrwt>
<rscale>  2 0.46902917E+03</rscale>
<asrwt>0</asrwt>
<pdfrwt beam="1">  1       21 0.79344102E-01 0.46902917E+03</pdfrwt>
<pdfrwt beam="2">  1       21 0.14990193E-01 0.46902917E+03</pdfrwt>
<totfact> 0.50381214E+04</totfact>
</mgrwt>
</event>
<event>
 7    0  0.4712189E-002  0.4569971E+03  0.7546771E-02  0.1025656E+00
         21   -1    0    0  502  501  0.00000000000E+00  0.00000000000E+00  0.40114415985E+03  0.40114415985E+03  0.00000000000E+00 0.  1.
         21   -1    0    0  501  502 -0.00000000000E+00 -0.00000000000E+00 -0.13015669587E+03  0.13015669587E+03  0.00000000000E+00 0.  1.
      99926    2    1    2    0    0  0.00000000000E+00  0.17763568394E-14  0.27098746398E+03  0.53130085571E+03  0.45699714840E+03 0.  0.
      99925    2    3    3    0    0 -0.97918134858E+02  0.12691524272E+02  0.23888346691E+03  0.36873637420E+03  0.26296799610E+03 0.  0.
         25    1    4    4    0    0 -0.71207814002E+02 -0.13103904663E+02  0.16275541900E+03  0.21766740593E+03  0.12509000000E+03 0.  0.
         25    1    4    4    0    0 -0.26710320857E+02  0.25795428935E+02  0.76128047907E+02  0.15106896826E+03  0.12509000000E+03 0.  0.
         25    1    3    3    0    0  0.97918134858E+02 -0.12691524272E+02  0.32103997076E+02  0.16256448152E+03  0.12509000000E+03 0.  0.
<mgrwt>
<rscale>  2 0.45699715E+03</rscale>
<asrwt>0</asrwt>
<pdfrwt beam="1">  1       21 0.58991788E-01 0.45699715E+03</pdfrwt>
<pdfrwt beam="2">  1       21 0.19140691E-01 0.45699715E+03</pdfrwt>
<totfact> 0.62129248E+04</totfact>
</mgrwt>
</event>
<event>
 7    0  0.4712189E-002  0.4610452E+03  0.7546771E-02  0.1024479E+00
         21   -1    0    0  502  501  0.00000000000E+00  0.00000000000E+00  0.11868153155E+03  0.11868153155E+03  0.00000000000E+00 0. -1.
         21   -1    0    0  501  502 -0.00000000000E+00 -0.00000000000E+00 -0.44775849272E+03  0.44775849272E+03  0.00000000000E+00 0. -1.
      99926    2    1    2    0    0  0.00000000000E+00  0.00000000000E+00 -0.32907696117E+03  0.56644002427E+03  0.46104517645E+03 0.  0.
      99925    2    3    3    0    0  0.28547486254E+02 -0.33173274901E+02 -0.70189750332E+02  0.27560412351E+03  0.26289847223E+03 0.  0.
         25    1    4    4    0    0  0.26911332998E+02  0.82306670885E+01 -0.43333550175E+01  0.12828971038E+03  0.12509000000E+03 0.  0.
         25    1    3    3    0    0 -0.28547486254E+02  0.33173274901E+02 -0.25888721084E+03  0.29083590077E+03  0.12509000000E+03 0.  0.
         25    1    4    4    0    0  0.16361532564E+01 -0.41403941990E+02 -0.65856395315E+02  0.14731441312E+03  0.12509000000E+03 0.  0.
<mgrwt>
<rscale>  2 0.46104518E+03</rscale>
<asrwt>0</asrwt>
<pdfrwt beam="1">  1       21 0.17453166E-01 0.46104518E+03</pdfrwt>
<pdfrwt beam="2">  1       21 0.65846837E-01 0.46104518E+03</pdfrwt>
<totfact> 0.57971345E+04</totfact>
</mgrwt>
</event>
<event>
 7    0  0.4712189E-002  0.4557866E+03  0.7546771E-02  0.1026010E+00
         21   -1    0    0  502  501  0.00000000000E+00  0.00000000000E+00  0.11038832940E+03  0.11038832940E+03  0.00000000000E+00 0.  1.
         21   -1    0    0  501  502 -0.00000000000E+00 -0.00000000000E+00 -0.47047869934E+03  0.47047869934E+03  0.00000000000E+00 0.  1.
      99926    2    1    2    0    0  0.35527136788E-14  0.14210854715E-13 -0.36009036994E+03  0.58086702874E+03  0.45578660637E+03 0.  0.
      99925    2    3    3    0    0 -0.22978789650E+02  0.73601911563E+02 -0.11945284278E+03  0.29891101490E+03  0.26293259026E+03 0.  0.
         25    1    3    3    0    0  0.22978789650E+02 -0.73601911563E+02 -0.24063752716E+03  0.28195601384E+03  0.12509000000E+03 0.  0.
         25    1    4    4    0    0  0.18036655397E+02  0.64247785870E+02 -0.55431408526E+02  0.15222761930E+03  0.12509000000E+03 0.  0.
         25    1    4    4    0    0 -0.41015445046E+02  0.93541256935E+01 -0.64021434256E+02  0.14668339560E+03  0.12509000000E+03 0.  0.
<mgrwt>
<rscale>  2 0.45578661E+03</rscale>
<asrwt>0</asrwt>
<pdfrwt beam="1">  1       21 0.16233578E-01 0.45578661E+03</pdfrwt>
<pdfrwt beam="2">  1       21 0.69188043E-01 0.45578661E+03</pdfrwt>
<totfact> 0.59500809E+04</totfact>
</mgrwt>
</event>
<event>
 7    0  0.4712189E-002  0.4460106E+03  0.7546771E-02  0.1028918E+00
         21   -1    0    0  502  501  0.00000000000E+00  0.00000000000E+00  0.34468240196E+03  0.34468240196E+03  0.00000000000E+00 0. -1.
         21   -1    0    0  501  502 -0.00000000000E+00 -0.00000000000E+00 -0.14428168660E+03  0.14428168660E+03  0.00000000000E+00 0. -1.
      99926    2    1    2    0    0  0.00000000000E+00  0.17763568394E-14  0.20040071537E+03  0.48896408856E+03  0.44601057519E+03 0.  0.
      99925    2    3    3    0    0 -0.95372929603E+02  0.12220741637E+02  0.17210341008E+03  0.32867189345E+03  0.26298343589E+03 0.  0.
         25    1    4    4    0    0 -0.56334251994E+02  0.35329447955E+02  0.56892011534E+02  0.15266278825E+03  0.12509000000E+03 0.  0.
         25    1    4    4    0    0 -0.39038677609E+02 -0.23108706317E+02  0.11521139855E+03  0.17600910520E+03  0.12509000000E+03 0.  0.
         25    1    3    3    0    0  0.95372929603E+02 -0.12220741637E+02  0.28297305286E+02  0.16029219511E+03  0.12509000000E+03 0.  0.
<mgrwt>
<rscale>  2 0.44601058E+03</rscale>
<asrwt>0</asrwt>
<pdfrwt beam="1">  1       21 0.50688589E-01 0.44601058E+03</pdfrwt>
<pdfrwt beam="2">  1       21 0.21217895E-01 0.44601058E+03</pdfrwt>
<totfact> 0.70985219E+04</totfact>
</mgrwt>
</event>
<event>
 7    0  0.4712189E-002  0.4571465E+03  0.7546771E-02  0.1025612E+00
         21   -1    0    0  502  501  0.00000000000E+00  0.00000000000E+00  0.45620893742E+03  0.45620893742E+03  0.00000000000E+00 0.  1.
         21   -1    0    0  501  502 -0.00000000000E+00 -0.00000000000E+00 -0.11452147679E+03  0.11452147679E+03  0.00000000000E+00 0.  1.
      99926    2    1    2    0    0 -0.71054273576E-14  0.14210854715E-13  0.34168746062E+03  0.57073041421E+03  0.45714645898E+03 0.  0.
      99925    2    3    3    0    0  0.31269740984E+02 -0.10794791554E+03  0.24591343930E+03  0.37720852802E+03  0.26302529311E+03 0.  0.
         25    1    4    4    0    0 -0.98137322789E+01 -0.86032882841E+02  0.14113672633E+03  0.20752120347E+03  0.12509000000E+03 0.  0.
         25    1    4    4    0    0  0.41083473263E+02 -0.21915032702E+02  0.10477671296E+03  0.16968732455E+03  0.12509000000E+03 0.  0.
         25    1    3    3    0    0 -0.31269740984E+02  0.10794791554E+03  0.95774021329E+02  0.19352188619E+03  0.12509000000E+03 0.  0.
<mgrwt>
<rscale>  2 0.45714646E+03</rscale>
<asrwt>0</asrwt>
<pdfrwt beam="1">  1       21 0.67089549E-01 0.45714646E+03</pdfrwt>
<pdfrwt beam="2">  1       21 0.16841394E-01 0.45714646E+03</pdfrwt>
<totfact> 0.59500667E+04</totfact>
</mgrwt>
</event>
<event>
 7    0  0.4712189E-002  0.4414704E+03  0.7546771E-02  0.1030297E+00
         21   -1    0    0  502  501  0.00000000000E+00  0.00000000000E+00  0.85040014355E+03  0.85040014355E+03  0.00000000000E+00 0. -1.
         21   -1    0    0  501  502 -0.00000000000E+00 -0.00000000000E+00 -0.57295422033E+02  0.57295422033E+02  0.00000000000E+00 0. -1.
      99926    2    1    2    0    0  0.35527136788E-14  0.00000000000E+00  0.79310472151E+03  0.90769556558E+03  0.44147042991E+03 0.  0.
      99925    2    3    3    0    0 -0.20357978907E+02  0.78219944146E+02  0.38470684021E+03  0.47298975181E+03  0.26303449479E+03 0.  0.
         25    1    4    4    0    0  0.46929072881E+01  0.66441428257E+02  0.15537635676E+03  0.21029932740E+03  0.12509000000E+03 0.  0.
         25    1    4    4    0    0 -0.25050886195E+02  0.11778515889E+02  0.22933048345E+03  0.26269042441E+03  0.12509000000E+03 0.  0.
         25    1    3    3    0    0  0.20357978907E+02 -0.78219944146E+02  0.40839788131E+03  0.43470581377E+03  0.12509000000E+03 0.  0.
<mgrwt>
<rscale>  2 0.44147043E+03</rscale>
<asrwt>0</asrwt>
<pdfrwt beam="1">  1       21 0.12505884E+00 0.44147043E+03</pdfrwt>
<pdfrwt beam="2">  1       21 0.84257979E-02 0.44147043E+03</pdfrwt>
<totfact> 0.47761655E+04</totfact>
</mgrwt>
</event>
<event>
 7    0  0.4712189E-002  0.4604217E+03  0.7546771E-02  0.1024659E+00
         21   -1    0    0  502  501  0.00000000000E+00  0.00000000000E+00  0.63018112443E+02  0.63018112443E+02  0.00000000000E+00 0.  1.
         21   -1    0    0  501  502 -0.00000000000E+00 -0.00000000000E+00 -0.84098095098E+03  0.84098095098E+03  0.00000000000E+00 0.  1.
      99926    2    1    2    0    0  0.00000000000E+00  0.00000000000E+00 -0.77796283854E+03  0.90399906342E+03  0.46042168555E+03 0.  0.
      99925    2    3    3    0    0  0.24872339291E+02 -0.11528120309E+03 -0.47150546548E+03  0.55261320905E+03  0.26297445845E+03 0.  0.
         25    1    4    4    0    0  0.34868552878E+02 -0.72632813079E+02 -0.30864253500E+03  0.34263546814E+03  0.12509000000E+03 0.  0.
         25    1    3    3    0    0 -0.24872339291E+02  0.11528120309E+03 -0.30645737306E+03  0.35138585437E+03  0.12509000000E+03 0.  0.
         25    1    4    4    0    0 -0.99962135870E+01 -0.42648390010E+02 -0.16286293048E+03  0.20997774092E+03  0.12509000000E+03 0.  0.
<mgrwt>
<rscale>  2 0.46042169E+03</rscale>
<asrwt>0</asrwt>
<pdfrwt beam="1">  1       21 0.92673692E-02 0.46042169E+03</pdfrwt>
<pdfrwt beam="2">  1       21 0.12367367E+00 0.46042169E+03</pdfrwt>
<totfact> 0.41280905E+04</totfact>
</mgrwt>
</event>
<event>
 7    0  0.4712189E-002  0.4462461E+03  0.7546771E-02  0.1028847E+00
         21   -1    0    0  502  501  0.00000000000E+00  0.00000000000E+00  0.86775880880E+02  0.86775880880E+02  0.00000000000E+00 0. -1.
         21   -1    0    0  501  502 -0.00000000000E+00 -0.00000000000E+00 -0.57370667473E+03  0.57370667473E+03  0.00000000000E+00 0. -1.
      99926    2    1    2    0    0  0.71054273576E-14  0.35527136788E-14 -0.48693079385E+03  0.66048255561E+03  0.44624612969E+03 0.  0.
      99925    2    3    3    0    0 -0.40724696887E+02 -0.18899443883E+02 -0.44901406249E+03  0.52227663485E+03  0.26295164021E+03 0.  0.
         25    1    4    4    0    0 -0.54253712259E+02 -0.24216663731E+02 -0.26947071464E+03  0.30297175817E+03  0.12509000000E+03 0.  0.
         25    1    4    4    0    0  0.13529015372E+02  0.53172198480E+01 -0.17954334784E+03  0.21930487669E+03  0.12509000000E+03 0.  0.
         25    1    3    3    0    0  0.40724696887E+02  0.18899443883E+02 -0.37916731367E+02  0.13820592076E+03  0.12509000000E+03 0.  0.
<mgrwt>
<rscale>  2 0.44624613E+03</rscale>
<asrwt>0</asrwt>
<pdfrwt beam="1">  1       21 0.12761159E-01 0.44624613E+03</pdfrwt>
<pdfrwt beam="2">  1       21 0.84368631E-01 0.44624613E+03</pdfrwt>
<totfact> 0.59073341E+04</totfact>
</mgrwt>
</event>
<event>
 7    0  0.4712189E-002  0.4585707E+03  0.7546771E-02  0.1025197E+00
         21   -1    0    0  502  501  0.00000000000E+00  0.00000000000E+00  0.93454490743E+03  0.93454490743E+03  0.00000000000E+00 0.  1.
         21   -1    0    0  501  502 -0.00000000000E+00 -0.00000000000E+00 -0.56253884178E+02  0.56253884178E+02  0.00000000000E+00 0.  1.
      99926    2    1    2    0    0  0.00000000000E+00  0.35527136788E-14  0.87829102326E+03  0.99079879161E+03  0.45857074037E+03 0.  0.
      99925    2    3    3    0    0  0.42636286538E+02  0.21695994806E+02  0.32337886612E+03  0.41995417234E+03  0.26362671846E+03 0.  0.
         25    1    4    4    0    0  0.23073799350E+02 -0.16054608187E+02  0.20906229704E+03  0.24524416977E+03  0.12509000000E+03 0.  0.
         25    1    4    4    0    0  0.19562487188E+02  0.37750602993E+02  0.11431656908E+03  0.17471000257E+03  0.12509000000E+03 0.  0.
         25    1    3    3    0    0 -0.42636286538E+02 -0.21695994806E+02  0.55491215714E+03  0.57084461928E+03  0.12509000000E+03 0.  0.
<mgrwt>
<rscale>  2 0.45857074E+03</rscale>
<asrwt>0</asrwt>
<pdfrwt beam="1">  1       21 0.13743307E+00 0.45857074E+03</pdfrwt>
<pdfrwt beam="2">  1       21 0.82726306E-02 0.45857074E+03</pdfrwt>
<totfact> 0.38443110E+04</totfact>
</mgrwt>
</event>
<event>
 7    0  0.4712189E-002  0.5358135E+03  0.7546771E-02  0.1004832E+00
         21   -1    0    0  502  501  0.00000000000E+00  0.00000000000E+00  0.13549680495E+03  0.13549680495E+03  0.00000000000E+00 0. -1.
         21   -1    0    0  501  502 -0.00000000000E+00 -0.00000000000E+00 -0.52971005941E+03  0.52971005941E+03  0.00000000000E+00 0. -1.
      99926    2    1    2    0    0  0.00000000000E+00  0.71054273576E-14 -0.39421325446E+03  0.66520686435E+03  0.53581347724E+03 0.  0.
      99925    2    3    3    0    0  0.65030189179E+02  0.46606260662E+02 -0.43115014691E+03  0.51219408331E+03  0.26467198711E+03 0.  0.
         25    1    3    3    0    0 -0.65030189179E+02 -0.46606260662E+02  0.36936892452E+02  0.15301278104E+03  0.12509000000E+03 0.  0.
         25    1    4    4    0    0  0.40818495313E+02 -0.15903200309E+02 -0.23936209314E+03  0.27360698286E+03  0.12509000000E+03 0.  0.
         25    1    4    4    0    0  0.24211693866E+02  0.62509460971E+02 -0.19178805378E+03  0.23858710045E+03  0.12509000000E+03 0.  0.
<mgrwt>
<rscale>  2 0.53581348E+03</rscale>
<asrwt>0</asrwt>
<pdfrwt beam="1">  1       21 0.19926000E-01 0.53581348E+03</pdfrwt>
<pdfrwt beam="2">  1       21 0.77898539E-01 0.53581348E+03</pdfrwt>
<totfact> 0.30341469E+04</totfact>
</mgrwt>
</event>
<event>
 7    0  0.4712189E-002  0.4592163E+03  0.7546771E-02  0.1025009E+00
         21   -1    0    0  502  501  0.00000000000E+00  0.00000000000E+00  0.14422307489E+03  0.14422307489E+03  0.00000000000E+00 0.  1.
         21   -1    0    0  501  502 -0.00000000000E+00 -0.00000000000E+00 -0.36554418492E+03  0.36554418492E+03  0.00000000000E+00 0.  1.
      99926    2    1    2    0    0  0.00000000000E+00 -0.53290705182E-14 -0.22132111002E+03  0.50976725981E+03  0.45921631660E+03 0.  0.
      99925    2    3    3    0    0 -0.59768734043E+02 -0.15617677326E+02 -0.28302171059E+02  0.27160758162E+03  0.26297043958E+03 0.  0.
         25    1    3    3    0    0  0.59768734043E+02  0.15617677326E+02 -0.19301893897E+03  0.23815967819E+03  0.12509000000E+03 0.  0.
         25    1    4    4    0    0 -0.29283269385E+02 -0.48010742239E+02 -0.19804861990E+02  0.13857229844E+03  0.12509000000E+03 0.  0.
         25    1    4    4    0    0 -0.30485464658E+02  0.32393064913E+02 -0.84973090697E+01  0.13303528318E+03  0.12509000000E+03 0.  0.
<mgrwt>
<rscale>  2 0.45921632E+03</rscale>
<asrwt>0</asrwt>
<pdfrwt beam="1">  1       21 0.21209276E-01 0.45921632E+03</pdfrwt>
<pdfrwt beam="2">  1       21 0.53756497E-01 0.45921632E+03</pdfrwt>
<totfact> 0.62472857E+04</totfact>
</mgrwt>
</event>
<event>
 7    0  0.4712189E-002  0.4503102E+03  0.7546771E-02  0.1027630E+00
         21   -1    0    0  502  501  0.00000000000E+00  0.00000000000E+00  0.48823186340E+02  0.48823186340E+02  0.00000000000E+00 0. -1.
         21   -1    0    0  501  502 -0.00000000000E+00 -0.00000000000E+00 -0.10383349689E+04  0.10383349689E+04  0.00000000000E+00 0. -1.
      99926    2    1    2    0    0  0.00000000000E+00  0.00000000000E+00 -0.98951178261E+03  0.10871581553E+04  0.45031021162E+03 0.  0.
      99925    2    3    3    0    0  0.36202263567E+02 -0.20013624801E+02 -0.86796705112E+03  0.90790476225E+03  0.26308383913E+03 0.  0.
         25    1    4    4    0    0 -0.40810277623E+01  0.17313944622E+02 -0.48921704851E+03  0.50526948861E+03  0.12509000000E+03 0.  0.
         25    1    3    3    0    0 -0.36202263567E+02  0.20013624801E+02 -0.12154473149E+03  0.17925339304E+03  0.12509000000E+03 0.  0.
         25    1    4    4    0    0  0.40283291330E+02 -0.37327569422E+02 -0.37875000261E+03  0.40263527363E+03  0.12509000000E+03 0.  0.
<mgrwt>
<rscale>  2 0.45031021E+03</rscale>
<asrwt>0</asrwt>
<pdfrwt beam="1">  1       21 0.71798808E-02 0.45031021E+03</pdfrwt>
<pdfrwt beam="2">  1       21 0.15269631E+00 0.45031021E+03</pdfrwt>
<totfact> 0.37288561E+04</totfact>
</mgrwt>
</event>
<event>
 7    0  0.4712189E-002  0.4634068E+03  0.7546771E-02  0.1023798E+00
         21   -1    0    0  502  501  0.00000000000E+00  0.00000000000E+00  0.17410954981E+04  0.17410954981E+04  0.00000000000E+00 0. -1.
         21   -1    0    0  501  502 -0.00000000000E+00 -0.00000000000E+00 -0.30834872641E+02  0.30834872641E+02  0.00000000000E+00 0. -1.
      99926    2    1    2    0    0  0.00000000000E+00  0.00000000000E+00  0.17102606255E+04  0.17719303708E+04  0.46340676707E+03 0.  0.
      99925    2    3    3    0    0 -0.89791998579E+02  0.99449936874E+01  0.13756770133E+04  0.14034806353E+04  0.26288617860E+03 0.  0.
         25    1    4    4    0    0 -0.38643639311E+02 -0.79163415588E+00  0.47725197423E+03  0.49488474673E+03  0.12509000000E+03 0.  0.
         25    1    4    4    0    0 -0.51148359269E+02  0.10736627843E+02  0.89842503903E+03  0.90859588855E+03  0.12509000000E+03 0.  0.
         25    1    3    3    0    0  0.89791998579E+02 -0.99449936874E+01  0.33458361223E+03  0.36844973548E+03  0.12509000000E+03 0.  0.
<mgrwt>
<rscale>  2 0.46340677E+03</rscale>
<asrwt>0</asrwt>
<pdfrwt beam="1">  1       21 0.25604339E+00 0.46340677E+03</pdfrwt>
<pdfrwt beam="2">  1       21 0.45345413E-02 0.46340677E+03</pdfrwt>
<totfact> 0.16689020E+04</totfact>
</mgrwt>
</event>
<event>
 7    0  0.4712189E-002  0.4393074E+03  0.7546771E-02  0.1030960E+00
         21   -1    0    0  502  501  0.00000000000E+00  0.00000000000E+00  0.21323732279E+03  0.21323732279E+03  0.00000000000E+00 0.  1.
         21   -1    0    0  501  502 -0.00000000000E+00 -0.00000000000E+00 -0.22626312450E+03  0.22626312450E+03  0.00000000000E+00 0.  1.
      99926    2    1    2    0    0 -0.35527136788E-14  0.00000000000E+00 -0.13025801715E+02  0.43950044728E+03  0.43930737719E+03 0.  0.
      99925    2    3    3    0    0  0.24076284082E+02  0.79136398719E+02  0.43480195295E+02  0.27924230286E+03  0.26314159547E+03 0.  0.
         25    1    4    4    0    0  0.42863015919E+02  0.15750614932E+02  0.34014969922E+02  0.13744033718E+03  0.12509000000E+03 0.  0.
         25    1    4    4    0    0 -0.18786731837E+02  0.63385783788E+02  0.94652253731E+01  0.14180196568E+03  0.12509000000E+03 0.  0.
         25    1    3    3    0    0 -0.24076284082E+02 -0.79136398719E+02 -0.56505997010E+02  0.16025814443E+03  0.12509000000E+03 0.  0.
<mgrwt>
<rscale>  2 0.43930738E+03</rscale>
<asrwt>0</asrwt>
<pdfrwt beam="1">  1       21 0.31358430E-01 0.43930738E+03</pdfrwt>
<pdfrwt beam="2">  1       21 0.33273989E-01 0.43930738E+03</pdfrwt>
<totfact> 0.79152609E+04</totfact>
</mgrwt>
</event>
<event>
 7    0  0.4712189E-002  0.4538570E+03  0.7546771E-02  0.1026578E+00
         21   -1    0    0  502  501  0.00000000000E+00  0.00000000000E+00  0.20761377125E+03  0.20761377125E+03  0.00000000000E+00 0.  1.
         21   -1    0    0  501  502 -0.00000000000E+00 -0.00000000000E+00 -0.24804011554E+03  0.24804011554E+03  0.00000000000E+00 0.  1.
      99926    2    1    2    0    0  0.00000000000E+00  0.00000000000E+00 -0.40426344286E+02  0.45565388679E+03  0.45385699866E+03 0.  0.
      99925    2    3    3    0    0  0.77476492604E+02  0.73966320415E+02 -0.58364460783E+02  0.28999487682E+03  0.26309122911E+03 0.  0.
         25    1    3    3    0    0 -0.77476492604E+02 -0.73966320415E+02  0.17938116497E+02  0.16565900997E+03  0.12509000000E+03 0.  0.
         25    1    4    4    0    0  0.29799642819E+02  0.74169739327E+02 -0.14642841557E+02  0.14916799205E+03  0.12509000000E+03 0.  0.
         25    1    4    4    0    0  0.47676849785E+02 -0.20341891153E+00 -0.43721619225E+02  0.14082688476E+03  0.12509000000E+03 0.  0.
<mgrwt>
<rscale>  2 0.45385700E+03</rscale>
<asrwt>0</asrwt>
<pdfrwt beam="1">  1       21 0.30531437E-01 0.45385700E+03</pdfrwt>
<pdfrwt beam="2">  1       21 0.36476487E-01 0.45385700E+03</pdfrwt>
<totfact> 0.69126191E+04</totfact>
</mgrwt>
</event>
<event>
 7    0  0.4712189E-002  0.4237602E+03  0.7546771E-02  0.1035849E+00
         21   -1    0    0  502  501  0.00000000000E+00  0.00000000000E+00  0.46985134613E+02  0.46985134613E+02  0.00000000000E+00 0. -1.
         21   -1    0    0  501  502 -0.00000000000E+00 -0.00000000000E+00 -0.95547609969E+03  0.95547609969E+03  0.00000000000E+00 0. -1.
      99926    2    1    2    0    0  0.00000000000E+00  0.00000000000E+00 -0.90849096508E+03  0.10024612343E+04  0.42376018295E+03 0.  0.
      99925    2    3    3    0    0 -0.48477039813E+02 -0.63323858719E+02 -0.56481831349E+03  0.62813739854E+03  0.26301507508E+03 0.  0.
         25    1    4    4    0    0 -0.26602099722E+02 -0.22411118315E+02 -0.36911102747E+03  0.39128044755E+03  0.12509000000E+03 0.  0.
         25    1    4    4    0    0 -0.21874940091E+02 -0.40912740403E+02 -0.19570728601E+03  0.23685695098E+03  0.12509000000E+03 0.  0.
         25    1    3    3    0    0  0.48477039813E+02  0.63323858719E+02 -0.34367265160E+03  0.37432383577E+03  0.12509000000E+03 0.  0.
<mgrwt>
<rscale>  2 0.42376018E+03</rscale>
<asrwt>0</asrwt>
<pdfrwt beam="1">  1       21 0.69095787E-02 0.42376018E+03</pdfrwt>
<pdfrwt beam="2">  1       21 0.14051119E+00 0.42376018E+03</pdfrwt>
<totfact> 0.50257844E+04</totfact>
</mgrwt>
</event>
<event>
 7    0  0.4712189E-002  0.4544090E+03  0.7546771E-02  0.1026415E+00
         21   -1    0    0  502  501  0.00000000000E+00  0.00000000000E+00  0.41928246050E+03  0.41928246050E+03  0.00000000000E+00 0. -1.
         21   -1    0    0  501  502 -0.00000000000E+00 -0.00000000000E+00 -0.12311961596E+03  0.12311961596E+03  0.00000000000E+00 0. -1.
      99926    2    1    2    0    0  0.00000000000E+00 -0.71054273576E-14  0.29616284453E+03  0.54240207646E+03  0.45440904708E+03 0.  0.
      99925    2    3    3    0    0  0.12548506562E+02 -0.62117549585E+02  0.75395935695E+02  0.28086509796E+03  0.26302965831E+03 0.  0.
         25    1    3    3    0    0 -0.12548506562E+02  0.62117549585E+02  0.22076690884E+03  0.26153697850E+03  0.12509000000E+03 0.  0.
         25    1    4    4    0    0  0.12635911168E+02 -0.62728050923E+02  0.66525680172E+02  0.15545947654E+03  0.12509000000E+03 0.  0.
         25    1    4    4    0    0 -0.87404605927E-01  0.61050133787E+00  0.88702555231E+01  0.12540562142E+03  0.12509000000E+03 0.  0.
<mgrwt>
<rscale>  2 0.45440905E+03</rscale>
<asrwt>0</asrwt>
<pdfrwt beam="1">  1       21 0.61659185E-01 0.45440905E+03</pdfrwt>
<pdfrwt beam="2">  1       21 0.18105826E-01 0.45440905E+03</pdfrwt>
<totfact> 0.62663931E+04</totfact>
</mgrwt>
</event>
<event>
 7    0  0.4712189E-002  0.4543238E+03  0.7546771E-02  0.1026440E+00
         21   -1    0    0  502  501  0.00000000000E+00  0.00000000000E+00  0.10602595664E+04  0.10602595664E+04  0.00000000000E+00 0. -1.
         21   -1    0    0  501  502 -0.00000000000E+00 -0.00000000000E+00 -0.48669704924E+02  0.48669704924E+02  0.00000000000E+00 0. -1.
      99926    2    1    2    0    0 -0.14210854715E-13  0.00000000000E+00  0.10115898615E+04  0.11089292714E+04  0.45432376227E+03 0.  0.
      99925    2    3    3    0    0 -0.10357461074E+03 -0.31475986210E+02  0.71217293476E+03  0.76685261062E+03  0.26297186107E+03 0.  0.
         25    1    4    4    0    0 -0.43447773404E+02  0.72490348966E+01  0.25372672891E+03  0.28629533455E+03  0.12509000000E+03 0.  0.
         25    1    3    3    0    0  0.10357461074E+03  0.31475986210E+02  0.29941692676E+03  0.34207666074E+03  0.12509000000E+03 0.  0.
         25    1    4    4    0    0 -0.60126837337E+02 -0.38725021107E+02  0.45844620584E+03  0.48055727607E+03  0.12509000000E+03 0.  0.
<mgrwt>
<rscale>  2 0.45432376E+03</rscale>
<asrwt>0</asrwt>
<pdfrwt beam="1">  1       21 0.15592051E+00 0.45432376E+03</pdfrwt>
<pdfrwt beam="2">  1       21 0.71573102E-02 0.45432376E+03</pdfrwt>
<totfact> 0.35369619E+04</totfact>
</mgrwt>
</event>
<event>
 7    0  0.4712189E-002  0.4458150E+03  0.7546771E-02  0.1028977E+00
         21   -1    0    0  502  501  0.00000000000E+00  0.00000000000E+00  0.78162350935E+02  0.78162350935E+02  0.00000000000E+00 0.  1.
         21   -1    0    0  501  502 -0.00000000000E+00 -0.00000000000E+00 -0.63569941889E+03  0.63569941889E+03  0.00000000000E+00 0.  1.
      99926    2    1    2    0    0  0.00000000000E+00 -0.14210854715E-13 -0.55753706796E+03  0.71386176983E+03  0.44581503370E+03 0.  0.
      99925    2    3    3    0    0 -0.58754233407E+02 -0.75074157054E+02 -0.28588494658E+03  0.39996597159E+03  0.26297221669E+03 0.  0.
         25    1    4    4    0    0 -0.19948092252E+02 -0.18018545538E+01 -0.10219542002E+03  0.16276542949E+03  0.12509000000E+03 0.  0.
         25    1    3    3    0    0  0.58754233407E+02  0.75074157054E+02 -0.27165212138E+03  0.31389579824E+03  0.12509000000E+03 0.  0.
         25    1    4    4    0    0 -0.38806141155E+02 -0.73272302500E+02 -0.18368952656E+03  0.23720054210E+03  0.12509000000E+03 0.  0.
<mgrwt>
<rscale>  2 0.44581503E+03</rscale>
<asrwt>0</asrwt>
<pdfrwt beam="1">  1       21 0.11494464E-01 0.44581503E+03</pdfrwt>
<pdfrwt beam="2">  1       21 0.93485205E-01 0.44581503E+03</pdfrwt>
<totfact> 0.56101953E+04</totfact>
</mgrwt>
</event>
<event>
 7    0  0.4712189E-002  0.4712217E+03  0.7546771E-02  0.1021576E+00
         21   -1    0    0  502  501  0.00000000000E+00  0.00000000000E+00  0.10721510982E+04  0.10721510982E+04  0.00000000000E+00 0.  1.
         21   -1    0    0  501  502 -0.00000000000E+00 -0.00000000000E+00 -0.51776721533E+02  0.51776721533E+02  0.00000000000E+00 0.  1.
      99926    2    1    2    0    0  0.17763568394E-14  0.00000000000E+00  0.10203743767E+04  0.11239278198E+04  0.47122168394E+03 0.  0.
      99925    2    3    3    0    0  0.15588830938E+02 -0.12696772589E+03  0.62662192815E+03  0.69143237018E+03  0.26279244022E+03 0.  0.
         25    1    3    3    0    0 -0.15588830938E+02  0.12696772589E+03  0.39375244854E+03  0.43249544957E+03  0.12509000000E+03 0.  0.
         25    1    4    4    0    0  0.18951855205E+02 -0.94549010063E+02  0.27975713497E+03  0.32126352234E+03  0.12509000000E+03 0.  0.
         25    1    4    4    0    0 -0.33630242677E+01 -0.32418715823E+02  0.34686479318E+03  0.37016884785E+03  0.12509000000E+03 0.  0.
<mgrwt>
<rscale>  2 0.47122168E+03</rscale>
<asrwt>0</asrwt>
<pdfrwt beam="1">  1       21 0.15766927E+00 0.47122168E+03</pdfrwt>
<pdfrwt beam="2">  1       21 0.76142244E-02 0.47122168E+03</pdfrwt>
<totfact> 0.30607106E+04</totfact>
</mgrwt>
</event>
<event>
 7    0  0.4712189E-002  0.4524425E+03  0.7546771E-02  0.1026996E+00
         21   -1    0    0  502  501  0.00000000000E+00  0.00000000000E+00  0.98146779418E+02  0.98146779418E+02  0.00000000000E+00 0.  1.
         21   -1    0    0  501  502 -0.00000000000E+00 -0.00000000000E+00 -0.52142373354E+03  0.52142373354E+03  0.00000000000E+00 0.  1.
      99926    2    1    2    0    0 -0.35527136788E-14  0.17763568394E-14 -0.42327695412E+03  0.61957051296E+03  0.45244252744E+03 0.  0.
      99925    2    3    3    0    0  0.24295862588E+02 -0.96313193141E+01 -0.41435374342E+03  0.49146827629E+03  0.26299998225E+03 0.  0.
         25    1    4    4    0    0 -0.10564287915E+02  0.23885666794E+02 -0.23526475348E+03  0.26772960537E+03  0.12509000000E+03 0.  0.
         25    1    4    4    0    0  0.34860150504E+02 -0.33516986108E+02 -0.17908898994E+03  0.22373867093E+03  0.12509000000E+03 0.  0.
         25    1    3    3    0    0 -0.24295862588E+02  0.96313193141E+01 -0.89232107038E+01  0.12810223667E+03  0.12509000000E+03 0.  0.
<mgrwt>
<rscale>  2 0.45244253E+03</rscale>
<asrwt>0</asrwt>
<pdfrwt beam="1">  1       21 0.14433350E-01 0.45244253E+03</pdfrwt>
<pdfrwt beam="2">  1       21 0.76679961E-01 0.45244253E+03</pdfrwt>
<totfact> 0.58665344E+04</totfact>
</mgrwt>
</event>
<event>
 7    0  0.4712189E-002  0.4604544E+03  0.7546771E-02  0.1024650E+00
         21   -1    0    0  502  501  0.00000000000E+00  0.00000000000E+00  0.49879530323E+03  0.49879530323E+03  0.00000000000E+00 0.  1.
         21   -1    0    0  501  502 -0.00000000000E+00 -0.00000000000E+00 -0.10626516694E+03  0.10626516694E+03  0.00000000000E+00 0.  1.
      99926    2    1    2    0    0 -0.71054273576E-14  0.00000000000E+00  0.39253013630E+03  0.60506047017E+03  0.46045441105E+03 0.  0.
      99925    2    3    3    0    0  0.34105810425E+02 -0.67274396086E+02  0.36539223660E+03  0.45649053925E+03  0.26302675754E+03 0.  0.
         25    1    3    3    0    0 -0.34105810425E+02  0.67274396086E+02  0.27137899700E+02  0.14856993092E+03  0.12509000000E+03 0.  0.
         25    1    4    4    0    0  0.47397376686E+02 -0.22656562294E+02  0.22528021859E+03  0.26298006791E+03  0.12509000000E+03 0.  0.
         25    1    4    4    0    0 -0.13291566260E+02 -0.44617833792E+02  0.14011201801E+03  0.19351047133E+03  0.12509000000E+03 0.  0.
<mgrwt>
<rscale>  2 0.46045441E+03</rscale>
<asrwt>0</asrwt>
<pdfrwt beam="1">  1       21 0.73352250E-01 0.46045441E+03</pdfrwt>
<pdfrwt beam="2">  1       21 0.15627231E-01 0.46045441E+03</pdfrwt>
<totfact> 0.55918985E+04</totfact>
</mgrwt>
</event>
<event>
 7    0  0.4712189E-002  0.4536994E+03  0.7546771E-02  0.1026625E+00
         21   -1    0    0  502  501  0.00000000000E+00  0.00000000000E+00  0.63385686572E+03  0.63385686572E+03  0.00000000000E+00 0. -1.
         21   -1    0    0  501  502 -0.00000000000E+00 -0.00000000000E+00 -0.81186753184E+02  0.81186753184E+02  0.00000000000E+00 0. -1.
      99926    2    1    2    0    0  0.00000000000E+00  0.00000000000E+00  0.55267011253E+03  0.71504361890E+03  0.45369937585E+03 0.  0.
      99925    2    3    3    0    0  0.18745222878E+02 -0.78997269344E+02  0.46960287048E+03  0.54434028927E+03  0.26303524976E+03 0.  0.
         25    1    4    4    0    0 -0.12484574773E+02 -0.53041429416E+02  0.17654969291E+03  0.22312902099E+03  0.12509000000E+03 0.  0.
         25    1    4    4    0    0  0.31229797651E+02 -0.25955839929E+02  0.29305317757E+03  0.32121126828E+03  0.12509000000E+03 0.  0.
         25    1    3    3    0    0 -0.18745222878E+02  0.78997269344E+02  0.83067242057E+02  0.17070332963E+03  0.12509000000E+03 0.  0.
<mgrwt>
<rscale>  2 0.45369938E+03</rscale>
<asrwt>0</asrwt>
<pdfrwt beam="1">  1       21 0.93214243E-01 0.45369938E+03</pdfrwt>
<pdfrwt beam="2">  1       21 0.11939229E-01 0.45369938E+03</pdfrwt>
<totfact> 0.52630235E+04</totfact>
</mgrwt>
</event>
<event>
 7    0  0.4712189E-002  0.4596753E+03  0.7546771E-02  0.1024875E+00
         21   -1    0    0  502  501  0.00000000000E+00  0.00000000000E+00  0.13316575205E+03  0.13316575205E+03  0.00000000000E+00 0.  1.
         21   -1    0    0  501  502 -0.00000000000E+00 -0.00000000000E+00 -0.39668874088E+03  0.39668874088E+03  0.00000000000E+00 0.  1.
      99926    2    1    2    0    0  0.00000000000E+00 -0.71054273576E-14 -0.26352298883E+03  0.52985449293E+03  0.45967533982E+03 0.  0.
      99925    2    3    3    0    0 -0.10332572068E+03 -0.47505725317E+02 -0.19927313429E+03  0.34899943936E+03  0.26297875985E+03 0.  0.
         25    1    4    4    0    0 -0.47669718456E+02 -0.58858428077E+02 -0.77935136964E+02  0.16570488915E+03  0.12509000000E+03 0.  0.
         25    1    4    4    0    0 -0.55656002228E+02  0.11352702760E+02 -0.12133799733E+03  0.18329455022E+03  0.12509000000E+03 0.  0.
         25    1    3    3    0    0  0.10332572068E+03  0.47505725317E+02 -0.64249854543E+02  0.18085505357E+03  0.12509000000E+03 0.  0.
<mgrwt>
<rscale>  2 0.45967534E+03</rscale>
<asrwt>0</asrwt>
<pdfrwt beam="1">  1       21 0.19583199E-01 0.45967534E+03</pdfrwt>
<pdfrwt beam="2">  1       21 0.58336580E-01 0.45967534E+03</pdfrwt>
<totfact> 0.60926926E+04</totfact>
</mgrwt>
</event>
<event>
 7    0  0.4712189E-002  0.4573815E+03  0.7546771E-02  0.1025543E+00
         21   -1    0    0  502  501  0.00000000000E+00  0.00000000000E+00  0.32419360047E+03  0.32419360047E+03  0.00000000000E+00 0.  1.
         21   -1    0    0  501  502 -0.00000000000E+00 -0.00000000000E+00 -0.16132170336E+03  0.16132170336E+03  0.00000000000E+00 0.  1.
      99926    2    1    2    0    0 -0.62172489379E-14  0.00000000000E+00  0.16287189711E+03  0.48551530383E+03  0.45738152059E+03 0.  0.
      99925    2    3    3    0    0  0.40776049446E+01  0.95335212968E+02  0.33445181347E+02  0.28178947692E+03  0.26302338196E+03 0.  0.
         25    1    3    3    0    0 -0.40776049446E+01 -0.95335212968E+02  0.12942671577E+03  0.20372582690E+03  0.12509000000E+03 0.  0.
         25    1    4    4    0    0 -0.34809364722E+02  0.36523140940E+02  0.25204333690E+01  0.13490549426E+03  0.12509000000E+03 0.  0.
         25    1    4    4    0    0  0.38886969667E+02  0.58812072028E+02  0.30924747978E+02  0.14688398267E+03  0.12509000000E+03 0.  0.
<mgrwt>
<rscale>  2 0.45738152E+03</rscale>
<asrwt>0</asrwt>
<pdfrwt beam="1">  1       21 0.47675530E-01 0.45738152E+03</pdfrwt>
<pdfrwt beam="2">  1       21 0.23723780E-01 0.45738152E+03</pdfrwt>
<totfact> 0.65062038E+04</totfact>
</mgrwt>
</event>
<event>
 7    0  0.4712189E-002  0.4158474E+03  0.7546771E-02  0.1038426E+00
         21   -1    0    0  502  501  0.00000000000E+00  0.00000000000E+00  0.58579660854E+02  0.58579660854E+02  0.00000000000E+00 0. -1.
         21   -1    0    0  501  502 -0.00000000000E+00 -0.00000000000E+00 -0.73800793837E+03  0.73800793837E+03  0.00000000000E+00 0. -1.
      99926    2    1    2    0    0 -0.17763568394E-14  0.00000000000E+00 -0.67942827752E+03  0.79658759922E+03  0.41584735054E+03 0.  0.
      99925    2    3    3    0    0 -0.11992403267E+02  0.68226535145E+02 -0.42232341460E+03  0.50239532117E+03  0.26314504437E+03 0.  0.
         25    1    4    4    0    0  0.24625379165E+02  0.61416007749E+02 -0.22578927829E+03  0.26647071434E+03  0.12509000000E+03 0.  0.
         25    1    3    3    0    0  0.11992403267E+02 -0.68226535145E+02 -0.25710486291E+03  0.29419227805E+03  0.12509000000E+03 0.  0.
         25    1    4    4    0    0 -0.36617782432E+02  0.68105273957E+01 -0.19653413631E+03  0.23592460683E+03  0.12509000000E+03 0.  0.
<mgrwt>
<rscale>  2 0.41584735E+03</rscale>
<asrwt>0</asrwt>
<pdfrwt beam="1">  1       21 0.86146568E-02 0.41584735E+03</pdfrwt>
<pdfrwt beam="2">  1       21 0.10853057E+00 0.41584735E+03</pdfrwt>
<totfact> 0.65987279E+04</totfact>
</mgrwt>
</event>
<event>
 7    0  0.4712189E-002  0.4548760E+03  0.7546771E-02  0.1026278E+00
         21   -1    0    0  502  501  0.00000000000E+00  0.00000000000E+00  0.79866593895E+02  0.79866593895E+02  0.00000000000E+00 0. -1.
         21   -1    0    0  501  502 -0.00000000000E+00 -0.00000000000E+00 -0.64768061193E+03  0.64768061193E+03  0.00000000000E+00 0. -1.
      99926    2    1    2    0    0 -0.35527136788E-14  0.00000000000E+00 -0.56781401803E+03  0.72754720582E+03  0.45487600247E+03 0.  0.
      99925    2    3    3    0    0  0.31782547308E+02 -0.98292444362E+02 -0.43008052137E+03  0.51473376843E+03  0.26326804320E+03 0.  0.
         25    1    3    3    0    0 -0.31782547308E+02  0.98292444362E+02 -0.13773349666E+03  0.21281343739E+03  0.12509000000E+03 0.  0.
         25    1    4    4    0    0 -0.14602456996E+02 -0.72533071304E+02 -0.24950882102E+03  0.28874978450E+03  0.12509000000E+03 0.  0.
         25    1    4    4    0    0  0.46385004304E+02 -0.25759373058E+02 -0.18057170035E+03  0.22598398393E+03  0.12509000000E+03 0.  0.
<mgrwt>
<rscale>  2 0.45487600E+03</rscale>
<asrwt>0</asrwt>
<pdfrwt beam="1">  1       21 0.11745087E-01 0.45487600E+03</pdfrwt>
<pdfrwt beam="2">  1       21 0.95247149E-01 0.45487600E+03</pdfrwt>
<totfact> 0.51482936E+04</totfact>
</mgrwt>
</event>
<event>
 7    0  0.4712189E-002  0.4552017E+03  0.7546771E-02  0.1026182E+00
         21   -1    0    0  502  501  0.00000000000E+00  0.00000000000E+00  0.17437563230E+03  0.17437563230E+03  0.00000000000E+00 0. -1.
         21   -1    0    0  501  502 -0.00000000000E+00 -0.00000000000E+00 -0.29707215513E+03  0.29707215513E+03  0.00000000000E+00 0. -1.
      99926    2    1    2    0    0  0.00000000000E+00  0.00000000000E+00 -0.12269652283E+03  0.47144778743E+03  0.45520169108E+03 0.  0.
      99925    2    3    3    0    0  0.41971036815E+02 -0.99206804410E+02 -0.40642349409E+02  0.28710041574E+03  0.26300435392E+03 0.  0.
         25    1    3    3    0    0 -0.41971036815E+02  0.99206804410E+02 -0.82054173421E+02  0.18434737169E+03  0.12509000000E+03 0.  0.
         25    1    4    4    0    0 -0.56601109478E+01 -0.75664678083E+02 -0.38046550118E+02  0.15116953543E+03  0.12509000000E+03 0.  0.
         25    1    4    4    0    0  0.47631147763E+02 -0.23542126327E+02 -0.25957992918E+01  0.13593088032E+03  0.12509000000E+03 0.  0.
<mgrwt>
<rscale>  2 0.45520169E+03</rscale>
<asrwt>0</asrwt>
<pdfrwt beam="1">  1       21 0.25643475E-01 0.45520169E+03</pdfrwt>
<pdfrwt beam="2">  1       21 0.43687082E-01 0.45520169E+03</pdfrwt>
<totfact> 0.67220567E+04</totfact>
</mgrwt>
</event>
<event>
 7    0  0.4712189E-002  0.4361936E+03  0.7546771E-02  0.1031921E+00
         21   -1    0    0  502  501  0.00000000000E+00  0.00000000000E+00  0.46011769715E+03  0.46011769715E+03  0.00000000000E+00 0.  1.
         21   -1    0    0  501  502 -0.00000000000E+00 -0.00000000000E+00 -0.10337834972E+03  0.10337834972E+03  0.00000000000E+00 0.  1.
      99926    2    1    2    0    0  0.00000000000E+00  0.00000000000E+00  0.35673934743E+03  0.56349604687E+03  0.43619357267E+03 0.  0.
      99925    2    3    3    0    0  0.43188937753E+02  0.16128037913E+02  0.12174647199E+03  0.29332099702E+03  0.26284901731E+03 0.  0.
         25    1    4    4    0    0  0.11502348981E+02 -0.50681150929E+01  0.19283820026E+02  0.12719026550E+03  0.12509000000E+03 0.  0.
         25    1    3    3    0    0 -0.43188937753E+02 -0.16128037913E+02  0.23499287545E+03  0.27017504985E+03  0.12509000000E+03 0.  0.
         25    1    4    4    0    0  0.31686588771E+02  0.21196153005E+02  0.10246265196E+03  0.16613073152E+03  0.12509000000E+03 0.  0.
<mgrwt>
<rscale>  2 0.43619357E+03</rscale>
<asrwt>0</asrwt>
<pdfrwt beam="1">  1       21 0.67664366E-01 0.43619357E+03</pdfrwt>
<pdfrwt beam="2">  1       21 0.15202699E-01 0.43619357E+03</pdfrwt>
<totfact> 0.70963985E+04</totfact>
</mgrwt>
</event>
<event>
 7    0  0.4712189E-002  0.4552448E+03  0.7546771E-02  0.1026169E+00
         21   -1    0    0  502  501  0.00000000000E+00  0.00000000000E+00  0.18599016260E+03  0.18599016260E+03  0.00000000000E+00 0.  1.
         21   -1    0    0  501  502 -0.00000000000E+00 -0.00000000000E+00 -0.27857361573E+03  0.27857361573E+03  0.00000000000E+00 0.  1.
      99926    2    1    2    0    0  0.00000000000E+00 -0.14210854715E-13 -0.92583453130E+02  0.46456377834E+03  0.45524477850E+03 0.  0.
      99925    2    3    3    0    0 -0.29518641982E+02  0.10319416127E+03 -0.21283411693E+02  0.28497650386E+03  0.26313160014E+03 0.  0.
         25    1    4    4    0    0 -0.17748036292E+02  0.86673726842E+02  0.12800737511E+02  0.15374880389E+03  0.12509000000E+03 0.  0.
         25    1    4    4    0    0 -0.11770605689E+02  0.16520434432E+02 -0.34084149204E+02  0.13122769997E+03  0.12509000000E+03 0.  0.
         25    1    3    3    0    0  0.29518641982E+02 -0.10319416127E+03 -0.71300041437E+02  0.17958727448E+03  0.12509000000E+03 0.  0.
<mgrwt>
<rscale>  2 0.45524478E+03</rscale>
<asrwt>0</asrwt>
<pdfrwt beam="1">  1       21 0.27351495E-01 0.45524478E+03</pdfrwt>
<pdfrwt beam="2">  1       21 0.40966708E-01 0.45524478E+03</pdfrwt>
<totfact> 0.67710806E+04</totfact>
</mgrwt>
</event>
<event>
 7    0  0.4712189E-002  0.4578268E+03  0.7546771E-02  0.1025413E+00
         21   -1    0    0  502  501  0.00000000000E+00  0.00000000000E+00  0.39534335635E+02  0.39534335635E+02  0.00000000000E+00 0.  1.
         21   -1    0    0  501  502 -0.00000000000E+00 -0.00000000000E+00 -0.13254643314E+04  0.13254643314E+04  0.00000000000E+00 0.  1.
      99926    2    1    2    0    0 -0.17763568394E-14  0.71054273576E-14 -0.12859299958E+04  0.13649986670E+04  0.45782683080E+03 0.  0.
      99925    2    3    3    0    0 -0.10350223999E+02 -0.61103920063E+02 -0.10990433420E+04  0.11317285540E+04  0.26281635438E+03 0.  0.
         25    1    4    4    0    0  0.13511504419E+02 -0.66785495583E+02 -0.56399832509E+03  0.58170824472E+03  0.12509000000E+03 0.  0.
         25    1    4    4    0    0 -0.23861728418E+02  0.56815755196E+01 -0.53504501695E+03  0.55002030930E+03  0.12509000000E+03 0.  0.
         25    1    3    3    0    0  0.10350223999E+02  0.61103920063E+02 -0.18688665373E+03  0.23327011301E+03  0.12509000000E+03 0.  0.
<mgrwt>
<rscale>  2 0.45782683E+03</rscale>
<asrwt>0</asrwt>
<pdfrwt beam="1">  1       21 0.58138729E-02 0.45782683E+03</pdfrwt>
<pdfrwt beam="2">  1       21 0.19492123E+00 0.45782683E+03</pdfrwt>
<totfact> 0.26688619E+04</totfact>
</mgrwt>
</event>
<event>
 7    0  0.4712189E-002  0.4707250E+03  0.7546771E-02  0.1021716E+00
         21   -1    0    0  502  501  0.00000000000E+00  0.00000000000E+00  0.28524341871E+03  0.28524341871E+03  0.00000000000E+00 0.  1.
         21   -1    0    0  501  502 -0.00000000000E+00 -0.00000000000E+00 -0.19420431811E+03  0.19420431811E+03  0.00000000000E+00 0.  1.
      99926    2    1    2    0    0  0.00000000000E+00  0.00000000000E+00  0.91039100594E+02  0.47944773682E+03  0.47072498818E+03 0.  0.
      99925    2    3    3    0    0  0.33094117676E+02 -0.59646556619E+02 -0.53085615775E+02  0.27678453268E+03  0.26294231799E+03 0.  0.
         25    1    3    3    0    0 -0.33094117676E+02  0.59646556619E+02  0.14412471637E+03  0.20266320413E+03  0.12509000000E+03 0.  0.
         25    1    4    4    0    0  0.21247735394E+01 -0.17819753056E+02  0.11114807435E+02  0.12685860359E+03  0.12509000000E+03 0.  0.
         25    1    4    4    0    0  0.30969344137E+02 -0.41826803563E+02 -0.64200423210E+02  0.14992592909E+03  0.12509000000E+03 0.  0.
<mgrwt>
<rscale>  2 0.47072499E+03</rscale>
<asrwt>0</asrwt>
<pdfrwt beam="1">  1       21 0.41947562E-01 0.47072499E+03</pdfrwt>
<pdfrwt beam="2">  1       21 0.28559458E-01 0.47072499E+03</pdfrwt>
<totfact> 0.59021008E+04</totfact>
</mgrwt>
</event>
<event>
 7    0  0.4712189E-002  0.4665163E+03  0.7546771E-02  0.1022908E+00
         21   -1    0    0  502  501  0.00000000000E+00  0.00000000000E+00  0.73041938025E+02  0.73041938025E+02  0.00000000000E+00 0. -1.
         21   -1    0    0  501  502 -0.00000000000E+00 -0.00000000000E+00 -0.74490586829E+03  0.74490586829E+03  0.00000000000E+00 0. -1.
      99926    2    1    2    0    0  0.00000000000E+00  0.00000000000E+00 -0.67186393027E+03  0.81794780632E+03  0.46651631597E+03 0.  0.
      99925    2    3    3    0    0 -0.76366016737E+02 -0.93202815334E+02 -0.46569804162E+03  0.54837329891E+03  0.26328705950E+03 0.  0.
         25    1    3    3    0    0  0.76366016737E+02  0.93202815334E+02 -0.20616588865E+03  0.26957450740E+03  0.12509000000E+03 0.  0.
         25    1    4    4    0    0 -0.80387657284E+02 -0.44954733246E+02 -0.24363246067E+03  0.28894184099E+03  0.12509000000E+03 0.  0.
         25    1    4    4    0    0  0.40216405476E+01 -0.48248082088E+02 -0.22206558095E+03  0.25943145792E+03  0.12509000000E+03 0.  0.
<mgrwt>
<rscale>  2 0.46651632E+03</rscale>
<asrwt>0</asrwt>
<pdfrwt beam="1">  1       21 0.10741461E-01 0.46651632E+03</pdfrwt>
<pdfrwt beam="2">  1       21 0.10954499E+00 0.46651632E+03</pdfrwt>
<totfact> 0.42898919E+04</totfact>
</mgrwt>
</event>
<event>
 7    0  0.4712189E-002  0.4220637E+03  0.7546771E-02  0.1036397E+00
         21   -1    0    0  502  501  0.00000000000E+00  0.00000000000E+00  0.44206239576E+03  0.44206239576E+03  0.00000000000E+00 0.  1.
         21   -1    0    0  501  502 -0.00000000000E+00 -0.00000000000E+00 -0.10074241746E+03  0.10074241746E+03  0.00000000000E+00 0.  1.
      99926    2    1    2    0    0  0.00000000000E+00  0.71054273576E-14  0.34131997830E+03  0.54280481322E+03  0.42206366542E+03 0.  0.
      99925    2    3    3    0    0 -0.45962289722E+02 -0.61077933919E+02  0.24251532424E+03  0.36601987649E+03  0.26327518191E+03 0.  0.
         25    1    4    4    0    0  0.31984671407E+01 -0.62203990510E+02  0.12372505275E+03  0.18664126930E+03  0.12509000000E+03 0.  0.
         25    1    3    3    0    0  0.45962289722E+02  0.61077933919E+02  0.98804654068E+02  0.17678493673E+03  0.12509000000E+03 0.  0.
         25    1    4    4    0    0 -0.49160756863E+02  0.11260565915E+01  0.11879027149E+03  0.17937860719E+03  0.12509000000E+03 0.  0.
<mgrwt>
<rscale>  2 0.42206367E+03</rscale>
<asrwt>0</asrwt>
<pdfrwt beam="1">  1       21 0.65009175E-01 0.42206367E+03</pdfrwt>
<pdfrwt beam="2">  1       21 0.14815062E-01 0.42206367E+03</pdfrwt>
<totfact> 0.81628692E+04</totfact>
</mgrwt>
</event>
<event>
 7    0  0.4712189E-002  0.4610265E+03  0.7546771E-02  0.1024484E+00
         21   -1    0    0  502  501  0.00000000000E+00  0.00000000000E+00  0.43742835346E+03  0.43742835346E+03  0.00000000000E+00 0.  1.
         21   -1    0    0  501  502 -0.00000000000E+00 -0.00000000000E+00 -0.12147440270E+03  0.12147440270E+03  0.00000000000E+00 0.  1.
      99926    2    1    2    0    0  0.00000000000E+00  0.00000000000E+00  0.31595395076E+03  0.55890275616E+03  0.46102645461E+03 0.  0.
      99925    2    3    3    0    0  0.36933484776E+02 -0.11034734249E+02  0.61597994820E+02  0.27284278329E+03  0.26298863810E+03 0.  0.
         25    1    3    3    0    0 -0.36933484776E+02  0.11034734249E+02  0.25435595594E+03  0.28605997287E+03  0.12509000000E+03 0.  0.
         25    1    4    4    0    0 -0.21658943151E+02 -0.31510143366E+01  0.21548121693E+02  0.12880554475E+03  0.12509000000E+03 0.  0.
         25    1    4    4    0    0  0.58592427927E+02 -0.78837199129E+01  0.40049873128E+02  0.14403723854E+03  0.12509000000E+03 0.  0.
<mgrwt>
<rscale>  2 0.46102645E+03</rscale>
<asrwt>0</asrwt>
<pdfrwt beam="1">  1       21 0.64327699E-01 0.46102645E+03</pdfrwt>
<pdfrwt beam="2">  1       21 0.17863883E-01 0.46102645E+03</pdfrwt>
<totfact> 0.58445646E+04</totfact>
</mgrwt>
</event>
<event>
 7    0  0.4712189E-002  0.4609724E+03  0.7546771E-02  0.1024500E+00
         21   -1    0    0  502  501  0.00000000000E+00  0.00000000000E+00  0.10548065884E+04  0.10548065884E+04  0.00000000000E+00 0. -1.
         21   -1    0    0  501  502 -0.00000000000E+00 -0.00000000000E+00 -0.50363631876E+02  0.50363631876E+02  0.00000000000E+00 0. -1.
      99926    2    1    2    0    0 -0.71054273576E-14  0.00000000000E+00  0.10044429566E+04  0.11051702203E+04  0.46097241011E+03 0.  0.
      99925    2    3    3    0    0  0.60260032595E+02  0.87687373414E+02  0.50358505987E+03  0.57807773530E+03  0.26316460350E+03 0.  0.
         25    1    4    4    0    0  0.68507110506E+02  0.37528352012E+02  0.29101085617E+03  0.32624596228E+03  0.12509000000E+03 0.  0.
         25    1    4    4    0    0 -0.82470779111E+01  0.50159021402E+02  0.21257420370E+03  0.25183177301E+03  0.12509000000E+03 0.  0.
         25    1    3    3    0    0 -0.60260032595E+02 -0.87687373414E+02  0.50085789670E+03  0.52709248502E+03  0.12509000000E+03 0.  0.
<mgrwt>
<rscale>  2 0.46097241E+03</rscale>
<asrwt>0</asrwt>
<pdfrwt beam="1">  1       21 0.15511860E+00 0.46097241E+03</pdfrwt>
<pdfrwt beam="2">  1       21 0.74064171E-02 0.46097241E+03</pdfrwt>
<totfact> 0.33716926E+04</totfact>
</mgrwt>
</event>
<event>
 7    0  0.4712189E-002  0.4503529E+03  0.7546771E-02  0.1027617E+00
         21   -1    0    0  502  501  0.00000000000E+00  0.00000000000E+00  0.34688516155E+03  0.34688516155E+03  0.00000000000E+00 0.  1.
         21   -1    0    0  501  502 -0.00000000000E+00 -0.00000000000E+00 -0.14617065003E+03  0.14617065003E+03  0.00000000000E+00 0.  1.
      99926    2    1    2    0    0  0.00000000000E+00  0.00000000000E+00  0.20071451152E+03  0.49305581158E+03  0.45035288186E+03 0.  0.
      99925    2    3    3    0    0  0.75578024498E+02 -0.17357102368E+02  0.21036250127E+03  0.34556378266E+03  0.26296128832E+03 0.  0.
         25    1    4    4    0    0  0.23802828440E+02 -0.41873553466E+02  0.80416342351E+02  0.15631463572E+03  0.12509000000E+03 0.  0.
         25    1    4    4    0    0  0.51775196059E+02  0.24516451098E+02  0.12994615892E+03  0.18924914694E+03  0.12509000000E+03 0.  0.
         25    1    3    3    0    0 -0.75578024498E+02  0.17357102368E+02 -0.96479897469E+01  0.14749202892E+03  0.12509000000E+03 0.  0.
<mgrwt>
<rscale>  2 0.45035288E+03</rscale>
<asrwt>0</asrwt>
<pdfrwt beam="1">  1       21 0.51012524E-01 0.45035288E+03</pdfrwt>
<pdfrwt beam="2">  1       21 0.21495684E-01 0.45035288E+03</pdfrwt>
<totfact> 0.68244385E+04</totfact>
</mgrwt>
</event>
<event>
 7    0  0.4712189E-002  0.4589550E+03  0.7546771E-02  0.1025085E+00
         21   -1    0    0  502  501  0.00000000000E+00  0.00000000000E+00  0.43835546490E+02  0.43835546490E+02  0.00000000000E+00 0.  1.
         21   -1    0    0  501  502 -0.00000000000E+00 -0.00000000000E+00 -0.12013062307E+04  0.12013062307E+04  0.00000000000E+00 0.  1.
      99926    2    1    2    0    0  0.00000000000E+00  0.71054273576E-14 -0.11574706842E+04  0.12451417771E+04  0.45895496564E+03 0.  0.
      99925    2    3    3    0    0  0.40628546492E+02 -0.53415127289E+02 -0.98528023368E+03  0.10219805934E+04  0.26298923875E+03 0.  0.
         25    1    4    4    0    0  0.16330114894E+02  0.10559798687E+02 -0.39847102026E+03  0.41809669227E+03  0.12509000000E+03 0.  0.
         25    1    4    4    0    0  0.24298431598E+02 -0.63974925976E+02 -0.58680921342E+03  0.60388390108E+03  0.12509000000E+03 0.  0.
         25    1    3    3    0    0 -0.40628546492E+02  0.53415127289E+02 -0.17219045049E+03  0.22316118380E+03  0.12509000000E+03 0.  0.
<mgrwt>
<rscale>  2 0.45895497E+03</rscale>
<asrwt>0</asrwt>
<pdfrwt beam="1">  1       21 0.64464041E-02 0.45895497E+03</pdfrwt>
<pdfrwt beam="2">  1       21 0.17666268E+00 0.45895497E+03</pdfrwt>
<totfact> 0.29821635E+04</totfact>
</mgrwt>
</event>
<event>
 7    0  0.4712189E-002  0.4537011E+03  0.7546771E-02  0.1026624E+00
         21   -1    0    0  502  501  0.00000000000E+00  0.00000000000E+00  0.11496945344E+03  0.11496945344E+03  0.00000000000E+00 0. -1.
         21   -1    0    0  501  502 -0.00000000000E+00 -0.00000000000E+00 -0.44760743544E+03  0.44760743544E+03  0.00000000000E+00 0. -1.
      99926    2    1    2    0    0  0.00000000000E+00  0.00000000000E+00 -0.33263798200E+03  0.56257688887E+03  0.45370114484E+03 0.  0.
      99925    2    3    3    0    0  0.40662234159E+02  0.32014495977E+02 -0.33264747180E+03  0.42720387299E+03  0.26300278205E+03 0.  0.
         25    1    4    4    0    0 -0.43194268683E+01  0.34496497469E+02 -0.20652894491E+03  0.24394749225E+03  0.12509000000E+03 0.  0.
         25    1    3    3    0    0 -0.40662234159E+02 -0.32014495977E+02  0.94898015878E-02  0.13537301588E+03  0.12509000000E+03 0.  0.
         25    1    4    4    0    0  0.44981661027E+02 -0.24820014921E+01 -0.12611852689E+03  0.18325638075E+03  0.12509000000E+03 0.  0.
<mgrwt>
<rscale>  2 0.45370114E+03</rscale>
<asrwt>0</asrwt>
<pdfrwt beam="1">  1       21 0.16907273E-01 0.45370114E+03</pdfrwt>
<pdfrwt beam="2">  1       21 0.65824622E-01 0.45370114E+03</pdfrwt>
<totfact> 0.61674138E+04</totfact>
</mgrwt>
</event>
<event>
 7    0  0.4712189E-002  0.4486738E+03  0.7546771E-02  0.1028118E+00
         21   -1    0    0  502  501  0.00000000000E+00  0.00000000000E+00  0.11086494460E+03  0.11086494460E+03  0.00000000000E+00 0. -1.
         21   -1    0    0  501  502 -0.00000000000E+00 -0.00000000000E+00 -0.45394919616E+03  0.45394919616E+03  0.00000000000E+00 0. -1.
      99926    2    1    2    0    0  0.00000000000E+00  0.00000000000E+00 -0.34308425156E+03  0.56481414076E+03  0.44867383468E+03 0.  0.
      99925    2    3    3    0    0  0.10377614992E+03  0.26194902259E+02 -0.21981710268E+03  0.35914946151E+03  0.26308385522E+03 0.  0.
         25    1    3    3    0    0 -0.10377614992E+03 -0.26194902259E+02 -0.12326714888E+03  0.20566467925E+03  0.12509000000E+03 0.  0.
         25    1    4    4    0    0  0.49700957645E+02 -0.27612107430E+02 -0.11119191220E+03  0.17675905382E+03  0.12509000000E+03 0.  0.
         25    1    4    4    0    0  0.54075192274E+02  0.53807009690E+02 -0.10862519048E+03  0.18239040769E+03  0.12509000000E+03 0.  0.
<mgrwt>
<rscale>  2 0.44867383E+03</rscale>
<asrwt>0</asrwt>
<pdfrwt beam="1">  1       21 0.16303668E-01 0.44867383E+03</pdfrwt>
<pdfrwt beam="2">  1       21 0.66757234E-01 0.44867383E+03</pdfrwt>
<totfact> 0.64042624E+04</totfact>
</mgrwt>
</event>
<event>
 7    0  0.4712189E-002  0.4465470E+03  0.7546771E-02  0.1028757E+00
         21   -1    0    0  502  501  0.00000000000E+00  0.00000000000E+00  0.28664271654E+04  0.28664271654E+04  0.00000000000E+00 0.  1.
         21   -1    0    0  501  502 -0.00000000000E+00 -0.00000000000E+00 -0.17391359203E+02  0.17391359203E+02  0.00000000000E+00 0.  1.
      99926    2    1    2    0    0  0.00000000000E+00 -0.71054273576E-14  0.28490358062E+04  0.28838185246E+04  0.44654703878E+03 0.  0.
      99925    2    3    3    0    0  0.46329972332E+02 -0.55322926792E+02  0.13147759898E+04  0.13427773880E+04  0.26307435765E+03 0.  0.
         25    1    4    4    0    0  0.53065938865E+02 -0.20291574495E+01  0.60674310859E+03  0.62177553768E+03  0.12509000000E+03 0.  0.
         25    1    3    3    0    0 -0.46329972332E+02  0.55322926792E+02  0.15342598163E+04  0.15410411366E+04  0.12509000000E+03 0.  0.
         25    1    4    4    0    0 -0.67359665320E+01 -0.53293769342E+02  0.70803288126E+03  0.72100185031E+03  0.12509000000E+03 0.  0.
<mgrwt>
<rscale>  2 0.44654704E+03</rscale>
<asrwt>0</asrwt>
<pdfrwt beam="1">  1       21 0.42153308E+00 0.44654704E+03</pdfrwt>
<pdfrwt beam="2">  1       21 0.25575548E-02 0.44654704E+03</pdfrwt>
<totfact> 0.42183568E+03</totfact>
</mgrwt>
</event>
<event>
 7    0  0.4712189E-002  0.4506824E+03  0.7546771E-02  0.1027519E+00
         21   -1    0    0  502  501  0.00000000000E+00  0.00000000000E+00  0.28898124715E+03  0.28898124715E+03  0.00000000000E+00 0. -1.
         21   -1    0    0  501  502 -0.00000000000E+00 -0.00000000000E+00 -0.17571609591E+03  0.17571609591E+03  0.00000000000E+00 0. -1.
      99926    2    1    2    0    0 -0.14210854715E-13  0.00000000000E+00  0.11326515124E+03  0.46469734307E+03  0.45068240055E+03 0.  0.
      99925    2    3    3    0    0  0.62870110833E+02  0.76639965631E+02  0.24775662912E+02  0.28220286969E+03  0.26305568046E+03 0.  0.
         25    1    3    3    0    0 -0.62870110833E+02 -0.76639965631E+02  0.88489488323E+02  0.18249447337E+03  0.12509000000E+03 0.  0.
         25    1    4    4    0    0 -0.48183942884E+01  0.16163063430E+02  0.42581550623E+01  0.12629371135E+03  0.12509000000E+03 0.  0.
         25    1    4    4    0    0  0.67688505122E+02  0.60476902201E+02  0.20517507850E+02  0.15590915834E+03  0.12509000000E+03 0.  0.
<mgrwt>
<rscale>  2 0.45068240E+03</rscale>
<asrwt>0</asrwt>
<pdfrwt beam="1">  1       21 0.42497242E-01 0.45068240E+03</pdfrwt>
<pdfrwt beam="2">  1       21 0.25840602E-01 0.45068240E+03</pdfrwt>
<totfact> 0.70206083E+04</totfact>
</mgrwt>
</event>
<event>
 7    0  0.4712189E-002  0.4475875E+03  0.7546771E-02  0.1028444E+00
         21   -1    0    0  502  501  0.00000000000E+00  0.00000000000E+00  0.18583691947E+03  0.18583691947E+03  0.00000000000E+00 0. -1.
         21   -1    0    0  501  502 -0.00000000000E+00 -0.00000000000E+00 -0.26950319409E+03  0.26950319409E+03  0.00000000000E+00 0. -1.
      99926    2    1    2    0    0  0.00000000000E+00 -0.71054273576E-14 -0.83666274626E+02  0.45534011356E+03  0.44758750374E+03 0.  0.
      99925    2    3    3    0    0  0.22681324436E+02  0.45476045665E+02 -0.14779333522E+03  0.30586670051E+03  0.26292404861E+03 0.  0.
         25    1    4    4    0    0 -0.16372493021E+02  0.48083569422E+02 -0.92229764440E+02  0.16350512446E+03  0.12509000000E+03 0.  0.
         25    1    4    4    0    0  0.39053817456E+02 -0.26075237568E+01 -0.55563570783E+02  0.14236157605E+03  0.12509000000E+03 0.  0.
         25    1    3    3    0    0 -0.22681324436E+02 -0.45476045665E+02  0.64127060597E+02  0.14947341305E+03  0.12509000000E+03 0.  0.
<mgrwt>
<rscale>  2 0.44758750E+03</rscale>
<asrwt>0</asrwt>
<pdfrwt beam="1">  1       21 0.27328959E-01 0.44758750E+03</pdfrwt>
<pdfrwt beam="2">  1       21 0.39632822E-01 0.44758750E+03</pdfrwt>
<totfact> 0.72725042E+04</totfact>
</mgrwt>
</event>
<event>
 7    0  0.4712189E-002  0.4139877E+03  0.7546771E-02  0.1039041E+00
         21   -1    0    0  502  501  0.00000000000E+00  0.00000000000E+00  0.66794137567E+03  0.66794137567E+03  0.00000000000E+00 0. -1.
         21   -1    0    0  501  502 -0.00000000000E+00 -0.00000000000E+00 -0.64147018640E+02  0.64147018640E+02  0.00000000000E+00 0. -1.
      99926    2    1    2    0    0  0.00000000000E+00  0.00000000000E+00  0.60379435703E+03  0.73208839431E+03  0.41398767071E+03 0.  0.
      99925    2    3    3    0    0 -0.13391278232E+02 -0.38826831925E+02  0.30047455754E+03  0.40142654578E+03  0.26300468193E+03 0.  0.
         25    1    4    4    0    0 -0.18218515527E+02 -0.35780220694E+02  0.10019449575E+03  0.16522283008E+03  0.12509000000E+03 0.  0.
         25    1    4    4    0    0  0.48272372951E+01 -0.30466112307E+01  0.20028006179E+03  0.23620371570E+03  0.12509000000E+03 0.  0.
         25    1    3    3    0    0  0.13391278232E+02  0.38826831925E+02  0.30331979950E+03  0.33066184854E+03  0.12509000000E+03 0.  0.
<mgrwt>
<rscale>  2 0.41398767E+03</rscale>
<asrwt>0</asrwt>
<pdfrwt beam="1">  1       21 0.98226669E-01 0.41398767E+03</pdfrwt>
<pdfrwt beam="2">  1       21 0.94333855E-02 0.41398767E+03</pdfrwt>
<totfact> 0.71655542E+04</totfact>
</mgrwt>
</event>
<event>
 7    0  0.4712189E-002  0.4525163E+03  0.7546771E-02  0.1026974E+00
         21   -1    0    0  502  501  0.00000000000E+00  0.00000000000E+00  0.47428514832E+02  0.47428514832E+02  0.00000000000E+00 0.  1.
         21   -1    0    0  501  502 -0.00000000000E+00 -0.00000000000E+00 -0.10793665671E+04  0.10793665671E+04  0.00000000000E+00 0.  1.
      99926    2    1    2    0    0  0.00000000000E+00  0.00000000000E+00 -0.10319380523E+04  0.11267950820E+04  0.45251631236E+03 0.  0.
      99925    2    3    3    0    0  0.36483532344E+02 -0.56251367600E+02 -0.87051510022E+03  0.91185289894E+03  0.26302833515E+03 0.  0.
         25    1    4    4    0    0  0.46231434034E+02 -0.32705070897E+01 -0.48383372702E+03  0.50188706420E+03  0.12509000000E+03 0.  0.
         25    1    4    4    0    0 -0.97479016903E+01 -0.52980860510E+02 -0.38668137321E+03  0.40996583474E+03  0.12509000000E+03 0.  0.
         25    1    3    3    0    0 -0.36483532344E+02  0.56251367600E+02 -0.16142295209E+03  0.21494218304E+03  0.12509000000E+03 0.  0.
<mgrwt>
<rscale>  2 0.45251631E+03</rscale>
<asrwt>0</asrwt>
<pdfrwt beam="1">  1       21 0.69747814E-02 0.45251631E+03</pdfrwt>
<pdfrwt beam="2">  1       21 0.15873038E+00 0.45251631E+03</pdfrwt>
<totfact> 0.35244099E+04</totfact>
</mgrwt>
</event>
<event>
 7    0  0.4712189E-002  0.4616222E+03  0.7546771E-02  0.1024312E+00
         21   -1    0    0  502  501  0.00000000000E+00  0.00000000000E+00  0.27115782682E+03  0.27115782682E+03  0.00000000000E+00 0. -1.
         21   -1    0    0  501  502 -0.00000000000E+00 -0.00000000000E+00 -0.19646777439E+03  0.19646777439E+03  0.00000000000E+00 0. -1.
      99926    2    1    2    0    0  0.00000000000E+00  0.14210854715E-13  0.74690052437E+02  0.46762560121E+03  0.46162224705E+03 0.  0.
      99925    2    3    3    0    0 -0.41952200971E+02 -0.78937583535E+02 -0.33294528238E+02  0.27974450311E+03  0.26297781684E+03 0.  0.
         25    1    4    4    0    0 -0.31463786796E+02 -0.79418675342E+02 -0.28430785369E+02  0.15412045137E+03  0.12509000000E+03 0.  0.
         25    1    3    3    0    0  0.41952200971E+02  0.78937583535E+02  0.10798458067E+03  0.18788109810E+03  0.12509000000E+03 0.  0.
         25    1    4    4    0    0 -0.10488414175E+02  0.48109180759E+00 -0.48637428691E+01  0.12562405174E+03  0.12509000000E+03 0.  0.
<mgrwt>
<rscale>  2 0.46162225E+03</rscale>
<asrwt>0</asrwt>
<pdfrwt beam="1">  1       21 0.39876151E-01 0.46162225E+03</pdfrwt>
<pdfrwt beam="2">  1       21 0.28892320E-01 0.46162225E+03</pdfrwt>
<totfact> 0.64170419E+04</totfact>
</mgrwt>
</event>
<event>
 7    0  0.4712189E-002  0.4646550E+03  0.7546771E-02  0.1023440E+00
         21   -1    0    0  502  501  0.00000000000E+00  0.00000000000E+00  0.85051296830E+02  0.85051296830E+02  0.00000000000E+00 0.  1.
         21   -1    0    0  501  502 -0.00000000000E+00 -0.00000000000E+00 -0.63462958407E+03  0.63462958407E+03  0.00000000000E+00 0.  1.
      99926    2    1    2    0    0  0.00000000000E+00  0.00000000000E+00 -0.54957828724E+03  0.71968088090E+03  0.46465500807E+03 0.  0.
      99925    2    3    3    0    0  0.68979431316E+02  0.82160114202E+02 -0.25008812770E+03  0.37784713465E+03  0.26213725267E+03 0.  0.
         25    1    4    4    0    0  0.74736700401E+02  0.39934592837E+02 -0.13356447669E+03  0.20166140837E+03  0.12509000000E+03 0.  0.
         25    1    4    4    0    0 -0.57572690844E+01  0.42225521364E+02 -0.11652365101E+03  0.17618572628E+03  0.12509000000E+03 0.  0.
         25    1    3    3    0    0 -0.68979431316E+02 -0.82160114202E+02 -0.29949015954E+03  0.34183374625E+03  0.12509000000E+03 0.  0.
<mgrwt>
<rscale>  2 0.46465501E+03</rscale>
<asrwt>0</asrwt>
<pdfrwt beam="1">  1       21 0.12507544E-01 0.46465501E+03</pdfrwt>
<pdfrwt beam="2">  1       21 0.93327877E-01 0.46465501E+03</pdfrwt>
<totfact> 0.48089865E+04</totfact>
</mgrwt>
</event>
<event>
 7    0  0.4712189E-002  0.4560230E+03  0.7546771E-02  0.1025941E+00
         21   -1    0    0  502  501  0.00000000000E+00  0.00000000000E+00  0.46647898183E+02  0.46647898183E+02  0.00000000000E+00 0. -1.
         21   -1    0    0  501  502 -0.00000000000E+00 -0.00000000000E+00 -0.11145033816E+04  0.11145033816E+04  0.00000000000E+00 0. -1.
      99926    2    1    2    0    0  0.00000000000E+00  0.00000000000E+00 -0.10678554834E+04  0.11611512797E+04  0.45602298305E+03 0.  0.
      99925    2    3    3    0    0  0.46928822114E+02  0.88138211352E+02 -0.81185855444E+03  0.85923640040E+03  0.26306314965E+03 0.  0.
         25    1    4    4    0    0  0.60086091967E+02  0.58840692893E+02 -0.39276270379E+03  0.42069301774E+03  0.12509000000E+03 0.  0.
         25    1    3    3    0    0 -0.46928822114E+02 -0.88138211352E+02 -0.25599692893E+03  0.30191487934E+03  0.12509000000E+03 0.  0.
         25    1    4    4    0    0 -0.13157269853E+02  0.29297518458E+02 -0.41909585065E+03  0.43854338266E+03  0.12509000000E+03 0.  0.
<mgrwt>
<rscale>  2 0.45602298E+03</rscale>
<asrwt>0</asrwt>
<pdfrwt beam="1">  1       21 0.68599842E-02 0.45602298E+03</pdfrwt>
<pdfrwt beam="2">  1       21 0.16389757E+00 0.45602298E+03</pdfrwt>
<totfact> 0.33147182E+04</totfact>
</mgrwt>
</event>
<event>
 7    0  0.4712189E-002  0.4258944E+03  0.7546771E-02  0.1035165E+00
         21   -1    0    0  502  501  0.00000000000E+00  0.00000000000E+00  0.34553008141E+03  0.34553008141E+03  0.00000000000E+00 0. -1.
         21   -1    0    0  501  502 -0.00000000000E+00 -0.00000000000E+00 -0.13123749452E+03  0.13123749452E+03  0.00000000000E+00 0. -1.
      99926    2    1    2    0    0  0.14210854715E-13 -0.13322676296E-14  0.21429258689E+03  0.47676757594E+03  0.42589436327E+03 0.  0.
      99925    2    3    3    0    0  0.79639071348E+02 -0.32523665943E+01  0.16425715577E+03  0.32023000204E+03  0.26308531204E+03 0.  0.
         25    1    4    4    0    0  0.53413494159E+01  0.12423143607E+02  0.53563809905E+02  0.13674594817E+03  0.12509000000E+03 0.  0.
         25    1    4    4    0    0  0.74297721933E+02 -0.15675510202E+02  0.11069334587E+03  0.18348405387E+03  0.12509000000E+03 0.  0.
         25    1    3    3    0    0 -0.79639071348E+02  0.32523665943E+01  0.50035431121E+02  0.15653757390E+03  0.12509000000E+03 0.  0.
<mgrwt>
<rscale>  2 0.42589436E+03</rscale>
<asrwt>0</asrwt>
<pdfrwt beam="1">  1       21 0.50813247E-01 0.42589436E+03</pdfrwt>
<pdfrwt beam="2">  1       21 0.19299632E-01 0.42589436E+03</pdfrwt>
<totfact> 0.84926128E+04</totfact>
</mgrwt>
</event>
<event>
 7    0  0.4712189E-002  0.4575888E+03  0.7546771E-02  0.1025483E+00
         21   -1    0    0  502  501  0.00000000000E+00  0.00000000000E+00  0.28907006810E+03  0.28907006810E+03  0.00000000000E+00 0. -1.
         21   -1    0    0  501  502 -0.00000000000E+00 -0.00000000000E+00 -0.18108715154E+03  0.18108715154E+03  0.00000000000E+00 0. -1.
      99926    2    1    2    0    0 -0.71054273576E-14  0.00000000000E+00  0.10798291656E+03  0.47015721964E+03  0.45758879019E+03 0.  0.
      99925    2    3    3    0    0  0.52915889973E+02  0.52890747335E+02  0.15824094831E+03  0.31597907456E+03  0.26306853721E+03 0.  0.
         25    1    4    4    0    0  0.64984850023E+02  0.17230762320E+02  0.69921779282E+02  0.15829242945E+03  0.12509000000E+03 0.  0.
         25    1    4    4    0    0 -0.12068960050E+02  0.35659985016E+02  0.88319169029E+02  0.15768664511E+03  0.12509000000E+03 0.  0.
         25    1    3    3    0    0 -0.52915889973E+02 -0.52890747335E+02 -0.50258031750E+02  0.15417814508E+03  0.12509000000E+03 0.  0.
<mgrwt>
<rscale>  2 0.45758879E+03</rscale>
<asrwt>0</asrwt>
<pdfrwt beam="1">  1       21 0.42510304E-01 0.45758879E+03</pdfrwt>
<pdfrwt beam="2">  1       21 0.26630463E-01 0.45758879E+03</pdfrwt>
<totfact> 0.66057174E+04</totfact>
</mgrwt>
</event>
<event>
 7    0  0.4712189E-002  0.4336274E+03  0.7546771E-02  0.1032720E+00
         21   -1    0    0  502  501  0.00000000000E+00  0.00000000000E+00  0.53038579561E+03  0.53038579561E+03  0.00000000000E+00 0. -1.
         21   -1    0    0  501  502 -0.00000000000E+00 -0.00000000000E+00 -0.88630172215E+02  0.88630172215E+02  0.00000000000E+00 0. -1.
      99926    2    1    2    0    0 -0.88817841970E-15  0.00000000000E+00  0.44175562340E+03  0.61901596783E+03  0.43362741798E+03 0.  0.
      99925    2    3    3    0    0  0.65975999717E+01 -0.63617962633E+02  0.18995461583E+03  0.33067237243E+03  0.26300320971E+03 0.  0.
         25    1    4    4    0    0 -0.14263160319E+02 -0.68642101404E+02  0.10919741190E+03  0.18024083526E+03  0.12509000000E+03 0.  0.
         25    1    4    4    0    0  0.20860760291E+02  0.50241387713E+01  0.80757203930E+02  0.15043153718E+03  0.12509000000E+03 0.  0.
         25    1    3    3    0    0 -0.65975999717E+01  0.63617962633E+02  0.25180100756E+03  0.28834359539E+03  0.12509000000E+03 0.  0.
<mgrwt>
<rscale>  2 0.43362742E+03</rscale>
<asrwt>0</asrwt>
<pdfrwt beam="1">  1       21 0.77997910E-01 0.43362742E+03</pdfrwt>
<pdfrwt beam="2">  1       21 0.13033849E-01 0.43362742E+03</pdfrwt>
<totfact> 0.68346541E+04</totfact>
</mgrwt>
</event>
<event>
 7    0  0.4712189E-002  0.4556408E+03  0.7546771E-02  0.1026053E+00
         21   -1    0    0  502  501  0.00000000000E+00  0.00000000000E+00  0.38028749120E+03  0.38028749120E+03  0.00000000000E+00 0.  1.
         21   -1    0    0  501  502 -0.00000000000E+00 -0.00000000000E+00 -0.13648133148E+03  0.13648133148E+03  0.00000000000E+00 0.  1.
      99926    2    1    2    0    0  0.00000000000E+00 -0.28421709430E-13  0.24380615973E+03  0.51676882268E+03  0.45564083725E+03 0.  0.
      99925    2    3    3    0    0  0.40642955945E+02 -0.93142168342E+02  0.95311219420E+02  0.29762145494E+03  0.26299617583E+03 0.  0.
         25    1    4    4    0    0  0.76481321549E+01 -0.54028684735E+01  0.47904572701E+02  0.13427598854E+03  0.12509000000E+03 0.  0.
         25    1    3    3    0    0 -0.40642955945E+02  0.93142168342E+02  0.14849494031E+03  0.21914736774E+03  0.12509000000E+03 0.  0.
         25    1    4    4    0    0  0.32994823790E+02 -0.87739299869E+02  0.47406646719E+02  0.16334546639E+03  0.12509000000E+03 0.  0.
<mgrwt>
<rscale>  2 0.45564084E+03</rscale>
<asrwt>0</asrwt>
<pdfrwt beam="1">  1       21 0.55924631E-01 0.45564084E+03</pdfrwt>
<pdfrwt beam="2">  1       21 0.20070784E-01 0.45564084E+03</pdfrwt>
<totfact> 0.63783005E+04</totfact>
</mgrwt>
</event>
<event>
 7    0  0.4712189E-002  0.4418441E+03  0.7546771E-02  0.1030183E+00
         21   -1    0    0  502  501  0.00000000000E+00  0.00000000000E+00  0.14388340676E+04  0.14388340676E+04  0.00000000000E+00 0.  1.
         21   -1    0    0  501  502 -0.00000000000E+00 -0.00000000000E+00 -0.33920897914E+02  0.33920897914E+02  0.00000000000E+00 0.  1.
      99926    2    1    2    0    0  0.00000000000E+00  0.35527136788E-14  0.14049131697E+04  0.14727549656E+04  0.44184406083E+03 0.  0.
      99925    2    3    3    0    0  0.49453207581E+02 -0.13736248224E+02  0.60762326221E+03  0.66408135464E+03  0.26298994762E+03 0.  0.
         25    1    4    4    0    0  0.44820115356E+02 -0.41963530484E+02  0.30095976115E+03  0.33165353392E+03  0.12509000000E+03 0.  0.
         25    1    4    4    0    0  0.46330922256E+01  0.28227282260E+02  0.30666350106E+03  0.33242782072E+03  0.12509000000E+03 0.  0.
         25    1    3    3    0    0 -0.49453207581E+02  0.13736248224E+02  0.79728990752E+03  0.80867361091E+03  0.12509000000E+03 0.  0.
<mgrwt>
<rscale>  2 0.44184406E+03</rscale>
<asrwt>0</asrwt>
<pdfrwt beam="1">  1       21 0.21159320E+00 0.44184406E+03</pdfrwt>
<pdfrwt beam="2">  1       21 0.49883683E-02 0.44184406E+03</pdfrwt>
<totfact> 0.27122627E+04</totfact>
</mgrwt>
</event>
<event>
 7    0  0.4712189E-002  0.4550952E+03  0.7546771E-02  0.1026213E+00
         21   -1    0    0  502  501  0.00000000000E+00  0.00000000000E+00  0.73521537146E+03  0.73521537146E+03  0.00000000000E+00 0.  1.
         21   -1    0    0  501  502 -0.00000000000E+00 -0.00000000000E+00 -0.70425494275E+02  0.70425494275E+02  0.00000000000E+00 0.  1.
      99926    2    1    2    0    0 -0.88817841970E-15  0.00000000000E+00  0.66478987719E+03  0.80564086574E+03  0.45509518096E+03 0.  0.
      99925    2    3    3    0    0 -0.42486307189E+01 -0.87339735727E+02  0.29085505556E+03  0.40175840854E+03  0.26299596041E+03 0.  0.
         25    1    4    4    0    0  0.10370914939E+02 -0.60587873997E+02  0.10001778871E+03  0.17155032064E+03  0.12509000000E+03 0.  0.
         25    1    3    3    0    0  0.42486307189E+01  0.87339735727E+02  0.37393482163E+03  0.40388245719E+03  0.12509000000E+03 0.  0.
         25    1    4    4    0    0 -0.14619545658E+02 -0.26751861730E+02  0.19083726684E+03  0.23020808791E+03  0.12509000000E+03 0.  0.
<mgrwt>
<rscale>  2 0.45509518E+03</rscale>
<asrwt>0</asrwt>
<pdfrwt beam="1">  1       21 0.10811990E+00 0.45509518E+03</pdfrwt>
<pdfrwt beam="2">  1       21 0.10356691E-01 0.45509518E+03</pdfrwt>
<totfact> 0.47457718E+04</totfact>
</mgrwt>
</event>
<event>
 7    0  0.4712189E-002  0.4508155E+03  0.7546771E-02  0.1027479E+00
         21   -1    0    0  502  501  0.00000000000E+00  0.00000000000E+00  0.15248037362E+03  0.15248037362E+03  0.00000000000E+00 0. -1.
         21   -1    0    0  501  502 -0.00000000000E+00 -0.00000000000E+00 -0.33321438227E+03  0.33321438227E+03  0.00000000000E+00 0. -1.
      99926    2    1    2    0    0  0.00000000000E+00  0.00000000000E+00 -0.18073400865E+03  0.48569475588E+03  0.45081549886E+03 0.  0.
      99925    2    3    3    0    0 -0.99768469754E+02  0.41878022159E+02 -0.13013316585E+03  0.31273386525E+03  0.26298348489E+03 0.  0.
         25    1    4    4    0    0 -0.41429498801E+02  0.60676684096E+02 -0.65753113885E+02  0.15927662556E+03  0.12509000000E+03 0.  0.
         25    1    3    3    0    0  0.99768469754E+02 -0.41878022159E+02 -0.50600842799E+02  0.17296089063E+03  0.12509000000E+03 0.  0.
         25    1    4    4    0    0 -0.58338970952E+02 -0.18798661937E+02 -0.64380051964E+02  0.15345723969E+03  0.12509000000E+03 0.  0.
<mgrwt>
<rscale>  2 0.45081550E+03</rscale>
<asrwt>0</asrwt>
<pdfrwt beam="1">  1       21 0.22423585E-01 0.45081550E+03</pdfrwt>
<pdfrwt beam="2">  1       21 0.49002114E-01 0.45081550E+03</pdfrwt>
<totfact> 0.68536427E+04</totfact>
</mgrwt>
</event>
<event>
 7    0  0.4712189E-002  0.4650218E+03  0.7546771E-02  0.1023335E+00
         21   -1    0    0  502  501  0.00000000000E+00  0.00000000000E+00  0.13248595447E+03  0.13248595447E+03  0.00000000000E+00 0. -1.
         21   -1    0    0  501  502 -0.00000000000E+00 -0.00000000000E+00 -0.40805320486E+03  0.40805320486E+03  0.00000000000E+00 0. -1.
      99926    2    1    2    0    0 -0.71054273576E-14 -0.14210854715E-13 -0.27556725039E+03  0.54053915934E+03  0.46502179872E+03 0.  0.
      99925    2    3    3    0    0 -0.41151765397E+02 -0.11502743104E+03 -0.18201609599E+03  0.34223609764E+03  0.26281345028E+03 0.  0.
         25    1    3    3    0    0  0.41151765397E+02  0.11502743104E+03 -0.93551154403E+02  0.19830306169E+03  0.12509000000E+03 0.  0.
         25    1    4    4    0    0  0.23177168540E+01 -0.32840349726E+02 -0.11309466790E+03  0.17181901056E+03  0.12509000000E+03 0.  0.
         25    1    4    4    0    0 -0.43469482251E+02 -0.82187081312E+02 -0.68921428086E+02  0.17041708709E+03  0.12509000000E+03 0.  0.
<mgrwt>
<rscale>  2 0.46502180E+03</rscale>
<asrwt>0</asrwt>
<pdfrwt beam="1">  1       21 0.19483229E-01 0.46502180E+03</pdfrwt>
<pdfrwt beam="2">  1       21 0.60007825E-01 0.46502180E+03</pdfrwt>
<totfact> 0.57772021E+04</totfact>
</mgrwt>
</event>
<event>
 7    0  0.4712189E-002  0.4588597E+03  0.7546771E-02  0.1025112E+00
         21   -1    0    0  502  501  0.00000000000E+00  0.00000000000E+00  0.15956820698E+03  0.15956820698E+03  0.00000000000E+00 0.  1.
         21   -1    0    0  501  502 -0.00000000000E+00 -0.00000000000E+00 -0.32987816553E+03  0.32987816553E+03  0.00000000000E+00 0.  1.
      99926    2    1    2    0    0  0.00000000000E+00 -0.71054273576E-14 -0.17030995855E+03  0.48944637251E+03  0.45885974935E+03 0.  0.
      99925    2    3    3    0    0  0.74680402006E+02 -0.62093756277E+02 -0.37626593688E+02  0.28284245090E+03  0.26296633713E+03 0.  0.
         25    1    4    4    0    0  0.12157922140E+02 -0.54544309828E+02  0.29413151705E+01  0.13703669669E+03  0.12509000000E+03 0.  0.
         25    1    3    3    0    0 -0.74680402006E+02  0.62093756277E+02 -0.13268336486E+03  0.20660392161E+03  0.12509000000E+03 0.  0.
         25    1    4    4    0    0  0.62522479866E+02 -0.75494464484E+01 -0.40567908859E+02  0.14580575421E+03  0.12509000000E+03 0.  0.
<mgrwt>
<rscale>  2 0.45885975E+03</rscale>
<asrwt>0</asrwt>
<pdfrwt beam="1">  1       21 0.23465913E-01 0.45885975E+03</pdfrwt>
<pdfrwt beam="2">  1       21 0.48511495E-01 0.45885975E+03</pdfrwt>
<totfact> 0.64033977E+04</totfact>
</mgrwt>
</event>
<event>
 7    0  0.4712189E-002  0.4491006E+03  0.7546771E-02  0.1027991E+00
         21   -1    0    0  502  501  0.00000000000E+00  0.00000000000E+00  0.53815961744E+02  0.53815961744E+02  0.00000000000E+00 0. -1.
         21   -1    0    0  501  502 -0.00000000000E+00 -0.00000000000E+00 -0.93694944836E+03  0.93694944836E+03  0.00000000000E+00 0. -1.
      99926    2    1    2    0    0  0.71054273576E-14 -0.71054273576E-14 -0.88313348661E+03  0.99076541010E+03  0.44910059305E+03 0.  0.
      99925    2    3    3    0    0 -0.40556251629E+02  0.44054484103E+02 -0.36174646503E+03  0.45124938486E+03  0.26302071260E+03 0.  0.
         25    1    4    4    0    0  0.15688765552E+02  0.30607989424E+01 -0.18310492573E+03  0.22232954770E+03  0.12509000000E+03 0.  0.
         25    1    3    3    0    0  0.40556251629E+02 -0.44054484103E+02 -0.52138702159E+03  0.53951602524E+03  0.12509000000E+03 0.  0.
         25    1    4    4    0    0 -0.56245017181E+02  0.40993685160E+02 -0.17864153929E+03  0.22891983715E+03  0.12509000000E+03 0.  0.
<mgrwt>
<rscale>  2 0.44910059E+03</rscale>
<asrwt>0</asrwt>
<pdfrwt beam="1">  1       21 0.79141113E-02 0.44910059E+03</pdfrwt>
<pdfrwt beam="2">  1       21 0.13778670E+00 0.44910059E+03</pdfrwt>
<totfact> 0.41403002E+04</totfact>
</mgrwt>
</event>
<event>
 7    0  0.4712189E-002  0.4672581E+03  0.7546771E-02  0.1022697E+00
         21   -1    0    0  502  501  0.00000000000E+00  0.00000000000E+00  0.10511257930E+03  0.10511257930E+03  0.00000000000E+00 0. -1.
         21   -1    0    0  501  502 -0.00000000000E+00 -0.00000000000E+00 -0.51927696656E+03  0.51927696656E+03  0.00000000000E+00 0. -1.
      99926    2    1    2    0    0  0.71054273576E-14  0.00000000000E+00 -0.41416438726E+03  0.62438954586E+03  0.46725813562E+03 0.  0.
      99925    2    3    3    0    0 -0.58203898046E+02  0.18198455423E+02 -0.11339671702E+03  0.29298710608E+03  0.26318007404E+03 0.  0.
         25    1    3    3    0    0  0.58203898046E+02 -0.18198455423E+02 -0.30076767024E+03  0.33140243978E+03  0.12509000000E+03 0.  0.
         25    1    4    4    0    0 -0.18178868295E+02  0.13184889243E+02 -0.98340775382E+02  0.16069452000E+03  0.12509000000E+03 0.  0.
         25    1    4    4    0    0 -0.40025029751E+02  0.50135661797E+01 -0.15055941636E+02  0.13229258608E+03  0.12509000000E+03 0.  0.
<mgrwt>
<rscale>  2 0.46725814E+03</rscale>
<asrwt>0</asrwt>
<pdfrwt beam="1">  1       21 0.15457732E-01 0.46725814E+03</pdfrwt>
<pdfrwt beam="2">  1       21 0.76364259E-01 0.46725814E+03</pdfrwt>
<totfact> 0.51984252E+04</totfact>
</mgrwt>
</event>
<event>
 6    0  0.4712189E-002  0.4607070E+03  0.7546771E-02  0.1024576E+00
         21   -1    0    0  502  501  0.00000000000E+00  0.00000000000E+00  0.50392626743E+02  0.50392626743E+02  0.00000000000E+00 0.  1.
         21   -1    0    0  501  502 -0.00000000000E+00 -0.00000000000E+00 -0.10529861941E+04  0.10529861941E+04  0.00000000000E+00 0.  1.
      99926    2    1    2    0    0  0.00000000000E+00  0.00000000000E+00 -0.10025935674E+04  0.11033788209E+04  0.46070702293E+03 0.  0.
         25    1    3    3    0    0 -0.38017206840E+02  0.28717900703E+02 -0.14644392812E+03  0.19840201113E+03  0.12509000000E+03 0.  0.
         25    1    3    3    0    0 -0.47556982523E+02 -0.43356033455E+02 -0.39060436522E+03  0.41516345028E+03  0.12509000000E+03 0.  0.
         25    1    3    3    0    0  0.85574189362E+02  0.14638132752E+02 -0.46554527404E+03  0.48981335945E+03  0.12509000000E+03 0.  0.
<mgrwt>
<rscale>  2 0.46070702E+03</rscale>
<asrwt>0</asrwt>
<pdfrwt beam="1">  1       21 0.74106811E-02 0.46070702E+03</pdfrwt>
<pdfrwt beam="2">  1       21 0.15485090E+00 0.46070702E+03</pdfrwt>
<totfact> 0.33845202E+04</totfact>
</mgrwt>
</event>
<event>
 7    0  0.4712189E-002  0.4542561E+03  0.7546771E-02  0.1026460E+00
         21   -1    0    0  502  501  0.00000000000E+00  0.00000000000E+00  0.14019523829E+03  0.14019523829E+03  0.00000000000E+00 0. -1.
         21   -1    0    0  501  502 -0.00000000000E+00 -0.00000000000E+00 -0.36796652603E+03  0.36796652603E+03  0.00000000000E+00 0. -1.
      99926    2    1    2    0    0  0.00000000000E+00 -0.14210854715E-13 -0.22777128775E+03  0.50816176432E+03  0.45425611630E+03 0.  0.
      99925    2    3    3    0    0  0.69264624526E+02  0.87475687518E+02 -0.12885044029E+03  0.31352768129E+03  0.26314936225E+03 0.  0.
         25    1    3    3    0    0 -0.69264624526E+02 -0.87475687518E+02 -0.98920847455E+02  0.19463408303E+03  0.12509000000E+03 0.  0.
         25    1    4    4    0    0  0.45146813925E+02  0.11611870887E+02 -0.87440377377E+02  0.15958194775E+03  0.12509000000E+03 0.  0.
         25    1    4    4    0    0  0.24117810600E+02  0.75863816631E+02 -0.41410062915E+02  0.15394573353E+03  0.12509000000E+03 0.  0.
<mgrwt>
<rscale>  2 0.45425612E+03</rscale>
<asrwt>0</asrwt>
<pdfrwt beam="1">  1       21 0.20616947E-01 0.45425612E+03</pdfrwt>
<pdfrwt beam="2">  1       21 0.54112723E-01 0.45425612E+03</pdfrwt>
<totfact> 0.65084397E+04</totfact>
</mgrwt>
</event>
<event>
 7    0  0.4712189E-002  0.4585997E+03  0.7546771E-02  0.1025188E+00
         21   -1    0    0  502  501  0.00000000000E+00  0.00000000000E+00  0.11086177111E+03  0.11086177111E+03  0.00000000000E+00 0. -1.
         21   -1    0    0  501  502 -0.00000000000E+00 -0.00000000000E+00 -0.47427015692E+03  0.47427015692E+03  0.00000000000E+00 0. -1.
      99926    2    1    2    0    0 -0.35527136788E-14 -0.14210854715E-13 -0.36340838581E+03  0.58513192804E+03  0.45859973651E+03 0.  0.
      99925    2    3    3    0    0 -0.30975162538E+02 -0.11090889025E+03 -0.20523449015E+03  0.35291062841E+03  0.26299139352E+03 0.  0.
         25    1    4    4    0    0 -0.32811560475E+02 -0.53887190662E+02 -0.58478934217E+02  0.15181476103E+03  0.12509000000E+03 0.  0.
         25    1    3    3    0    0  0.30975162538E+02  0.11090889025E+03 -0.15817389566E+03  0.23222129963E+03  0.12509000000E+03 0.  0.
         25    1    4    4    0    0  0.18363979371E+01 -0.57021699589E+02 -0.14675555593E+03  0.20109586738E+03  0.12509000000E+03 0.  0.
<mgrwt>
<rscale>  2 0.45859974E+03</rscale>
<asrwt>0</asrwt>
<pdfrwt beam="1">  1       21 0.16303202E-01 0.45859974E+03</pdfrwt>
<pdfrwt beam="2">  1       21 0.69745612E-01 0.45859974E+03</pdfrwt>
<totfact> 0.57936635E+04</totfact>
</mgrwt>
</event>
<event>
 7    0  0.4712189E-002  0.4595177E+03  0.7546771E-02  0.1024921E+00
         21   -1    0    0  502  501  0.00000000000E+00  0.00000000000E+00  0.63064973175E+03  0.63064973175E+03  0.00000000000E+00 0. -1.
         21   -1    0    0  501  502 -0.00000000000E+00 -0.00000000000E+00 -0.83705935212E+02  0.83705935212E+02  0.00000000000E+00 0. -1.
      99926    2    1    2    0    0  0.00000000000E+00  0.00000000000E+00  0.54694379654E+03  0.71435566696E+03  0.45951768448E+03 0.  0.
      99925    2    3    3    0    0 -0.91232525308E+02 -0.63311213936E+02  0.28382589545E+03  0.40257012936E+03  0.26300929003E+03 0.  0.
         25    1    4    4    0    0 -0.46904866673E+02 -0.38160693989E+02  0.20025578787E+03  0.24373385845E+03  0.12509000000E+03 0.  0.
         25    1    4    4    0    0 -0.44327658635E+02 -0.25150519947E+02  0.83570107583E+02  0.15883627091E+03  0.12509000000E+03 0.  0.
         25    1    3    3    0    0  0.91232525308E+02  0.63311213936E+02  0.26311790109E+03  0.31178553760E+03  0.12509000000E+03 0.  0.
<mgrwt>
<rscale>  2 0.45951768E+03</rscale>
<asrwt>0</asrwt>
<pdfrwt beam="1">  1       21 0.92742605E-01 0.45951768E+03</pdfrwt>
<pdfrwt beam="2">  1       21 0.12309697E-01 0.45951768E+03</pdfrwt>
<totfact> 0.50318192E+04</totfact>
</mgrwt>
</event>
<event>
 7    0  0.4712189E-002  0.4584536E+03  0.7546771E-02  0.1025231E+00
         21   -1    0    0  502  501  0.00000000000E+00  0.00000000000E+00  0.68566114739E+02  0.68566114739E+02  0.00000000000E+00 0.  1.
         21   -1    0    0  501  502 -0.00000000000E+00 -0.00000000000E+00 -0.76633967278E+03  0.76633967278E+03  0.00000000000E+00 0.  1.
      99926    2    1    2    0    0  0.00000000000E+00 -0.14210854715E-13 -0.69777355804E+03  0.83490578752E+03  0.45845363531E+03 0.  0.
      99925    2    3    3    0    0 -0.12131884027E+02  0.65202844457E+02 -0.61196052688E+03  0.66934619718E+03  0.26292594335E+03 0.  0.
         25    1    4    4    0    0 -0.26076672315E+02  0.58392256790E+02 -0.26054413715E+03  0.29600743908E+03  0.12509000000E+03 0.  0.
         25    1    4    4    0    0  0.13944788288E+02  0.68105876669E+01 -0.35141638973E+03  0.37333875810E+03  0.12509000000E+03 0.  0.
         25    1    3    3    0    0  0.12131884027E+02 -0.65202844457E+02 -0.85813031160E+02  0.16555959034E+03  0.12509000000E+03 0.  0.
<mgrwt>
<rscale>  2 0.45845364E+03</rscale>
<asrwt>0</asrwt>
<pdfrwt beam="1">  1       21 0.10083253E-01 0.45845364E+03</pdfrwt>
<pdfrwt beam="2">  1       21 0.11269700E+00 0.45845364E+03</pdfrwt>
<totfact> 0.44893459E+04</totfact>
</mgrwt>
</event>
<event>
 7    0  0.4712189E-002  0.4548205E+03  0.7546771E-02  0.1026294E+00
         21   -1    0    0  502  501  0.00000000000E+00  0.00000000000E+00  0.36278959625E+02  0.36278959625E+02  0.00000000000E+00 0. -1.
         21   -1    0    0  501  502 -0.00000000000E+00 -0.00000000000E+00 -0.14254935670E+04  0.14254935670E+04  0.00000000000E+00 0. -1.
      99926    2    1    2    0    0  0.00000000000E+00  0.00000000000E+00 -0.13892146074E+04  0.14617725266E+04  0.45482050773E+03 0.  0.
      99925    2    3    3    0    0  0.99839614198E+02  0.28689874373E+02 -0.74067727682E+03  0.79316259947E+03  0.26403223924E+03 0.  0.
         25    1    3    3    0    0 -0.99839614198E+02 -0.28689874373E+02 -0.64853733058E+03  0.66860992717E+03  0.12509000000E+03 0.  0.
         25    1    4    4    0    0  0.48247791309E+02  0.55580628350E+02 -0.35310916667E+03  0.38177303114E+03  0.12509000000E+03 0.  0.
         25    1    4    4    0    0  0.51591822889E+02 -0.26890753977E+02 -0.38756811014E+03  0.41138956834E+03  0.12509000000E+03 0.  0.
<mgrwt>
<rscale>  2 0.45482051E+03</rscale>
<asrwt>0</asrwt>
<pdfrwt beam="1">  1       21 0.53351424E-02 0.45482051E+03</pdfrwt>
<pdfrwt beam="2">  1       21 0.20963136E+00 0.45482051E+03</pdfrwt>
<totfact> 0.24765751E+04</totfact>
</mgrwt>
</event>
<event>
 7    0  0.4712189E-002  0.4553332E+03  0.7546771E-02  0.1026143E+00
         21   -1    0    0  502  501  0.00000000000E+00  0.00000000000E+00  0.65826634843E+02  0.65826634843E+02  0.00000000000E+00 0. -1.
         21   -1    0    0  501  502 -0.00000000000E+00 -0.00000000000E+00 -0.78740274905E+03  0.78740274905E+03  0.00000000000E+00 0. -1.
      99926    2    1    2    0    0  0.00000000000E+00  0.00000000000E+00 -0.72157611421E+03  0.85322938389E+03  0.45533316697E+03 0.  0.
      99925    2    3    3    0    0 -0.76203868224E+02  0.25688119911E+02 -0.60401213636E+03  0.66366222950E+03  0.26296384725E+03 0.  0.
         25    1    3    3    0    0  0.76203868224E+02 -0.25688119911E+02 -0.11756397785E+03  0.18956715439E+03  0.12509000000E+03 0.  0.
         25    1    4    4    0    0 -0.23598468588E+02 -0.14156189841E+02 -0.22183342508E+03  0.25615398106E+03  0.12509000000E+03 0.  0.
         25    1    4    4    0    0 -0.52605399636E+02  0.39844309753E+02 -0.38217871128E+03  0.40750824844E+03  0.12509000000E+03 0.  0.
<mgrwt>
<rscale>  2 0.45533317E+03</rscale>
<asrwt>0</asrwt>
<pdfrwt beam="1">  1       21 0.96803880E-02 0.45533317E+03</pdfrwt>
<pdfrwt beam="2">  1       21 0.11579452E+00 0.45533317E+03</pdfrwt>
<totfact> 0.45177074E+04</totfact>
</mgrwt>
</event>
<event>
 7    0  0.4712189E-002  0.4532731E+03  0.7546771E-02  0.1026750E+00
         21   -1    0    0  502  501  0.00000000000E+00  0.00000000000E+00  0.38214123523E+02  0.38214123523E+02  0.00000000000E+00 0. -1.
         21   -1    0    0  501  502 -0.00000000000E+00 -0.00000000000E+00 -0.13441134174E+04  0.13441134174E+04  0.00000000000E+00 0. -1.
      99926    2    1    2    0    0  0.14210854715E-13  0.00000000000E+00 -0.13058992939E+04  0.13823275410E+04  0.45327305750E+03 0.  0.
      99925    2    3    3    0    0  0.68534089954E+02  0.80826320557E+02 -0.71735505129E+03  0.77137611146E+03  0.26304566171E+03 0.  0.
         25    1    3    3    0    0 -0.68534089954E+02 -0.80826320557E+02 -0.58854424262E+03  0.61095142949E+03  0.12509000000E+03 0.  0.
         25    1    4    4    0    0  0.46995934693E+02  0.14048115241E+01 -0.35365985108E+03  0.37806532469E+03  0.12509000000E+03 0.  0.
         25    1    4    4    0    0  0.21538155261E+02  0.79421509033E+02 -0.36369520022E+03  0.39331078677E+03  0.12509000000E+03 0.  0.
<mgrwt>
<rscale>  2 0.45327306E+03</rscale>
<asrwt>0</asrwt>
<pdfrwt beam="1">  1       21 0.56197252E-02 0.45327306E+03</pdfrwt>
<pdfrwt beam="2">  1       21 0.19766370E+00 0.45327306E+03</pdfrwt>
<totfact> 0.27169614E+04</totfact>
</mgrwt>
</event>
<event>
 7    0  0.4712189E-002  0.4515575E+03  0.7546771E-02  0.1027259E+00
         21   -1    0    0  502  501  0.00000000000E+00  0.00000000000E+00  0.10258977993E+04  0.10258977993E+04  0.00000000000E+00 0.  1.
         21   -1    0    0  501  502 -0.00000000000E+00 -0.00000000000E+00 -0.49689213320E+02  0.49689213320E+02  0.00000000000E+00 0.  1.
      99926    2    1    2    0    0 -0.71054273576E-14  0.14210854715E-13  0.97620858601E+03  0.10755870126E+04  0.45155754714E+03 0.  0.
      99925    2    3    3    0    0  0.44227327791E+02 -0.94926645271E+02  0.53644422704E+03  0.60653762930E+03  0.26296076232E+03 0.  0.
         25    1    3    3    0    0 -0.44227327791E+02  0.94926645271E+02  0.43976435897E+03  0.46904938335E+03  0.12509000000E+03 0.  0.
         25    1    4    4    0    0  0.87453378599E+01 -0.26900306492E+02  0.17951773869E+03  0.22062237881E+03  0.12509000000E+03 0.  0.
         25    1    4    4    0    0  0.35481989931E+02 -0.68026338779E+02  0.35692648835E+03  0.38591525049E+03  0.12509000000E+03 0.  0.
<mgrwt>
<rscale>  2 0.45155755E+03</rscale>
<asrwt>0</asrwt>
<pdfrwt beam="1">  1       21 0.15086731E+00 0.45155755E+03</pdfrwt>
<pdfrwt beam="2">  1       21 0.73072379E-02 0.45155755E+03</pdfrwt>
<totfact> 0.37345438E+04</totfact>
</mgrwt>
</event>
<event>
 7    0  0.4712189E-002  0.4586256E+03  0.7546771E-02  0.1025181E+00
         21   -1    0    0  502  501  0.00000000000E+00  0.00000000000E+00  0.52845147490E+03  0.52845147490E+03  0.00000000000E+00 0. -1.
         21   -1    0    0  501  502 -0.00000000000E+00 -0.00000000000E+00 -0.99506522119E+02  0.99506522119E+02  0.00000000000E+00 0. -1.
      99926    2    1    2    0    0  0.26645352591E-14  0.00000000000E+00  0.42894495278E+03  0.62795799702E+03  0.45862563546E+03 0.  0.
      99925    2    3    3    0    0 -0.77087187773E+01 -0.21600552637E+02  0.42603322856E+03  0.50074952852E+03  0.26214455984E+03 0.  0.
         25    1    4    4    0    0  0.90671259867E+01  0.25169876193E+02  0.22493017064E+03  0.25876016928E+03  0.12509000000E+03 0.  0.
         25    1    4    4    0    0 -0.16775844764E+02 -0.46770428830E+02  0.20110305793E+03  0.24198935924E+03  0.12509000000E+03 0.  0.
         25    1    3    3    0    0  0.77087187773E+01  0.21600552637E+02  0.29117242167E+01  0.12720846850E+03  0.12509000000E+03 0.  0.
<mgrwt>
<rscale>  2 0.45862564E+03</rscale>
<asrwt>0</asrwt>
<pdfrwt beam="1">  1       21 0.77713451E-01 0.45862564E+03</pdfrwt>
<pdfrwt beam="2">  1       21 0.14633312E-01 0.45862564E+03</pdfrwt>
<totfact> 0.55387069E+04</totfact>
</mgrwt>
</event>
<event>
 6    0  0.4712189E-002  0.5909544E+03  0.7546771E-02  0.9924353E-01
         21   -1    0    0  502  501  0.00000000000E+00  0.00000000000E+00  0.59634008451E+03  0.59634008451E+03  0.00000000000E+00 0. -1.
         21   -1    0    0  501  502 -0.00000000000E+00 -0.00000000000E+00 -0.14640433564E+03  0.14640433564E+03  0.00000000000E+00 0. -1.
      99925    2    1    2    0    0 -0.21296248957E+03  0.46015260282E+00  0.30965407769E+03  0.45870271710E+03  0.26300057251E+03 0.  0.
         25    1    1    2    0    0  0.21296248957E+03 -0.46015260282E+00  0.14028167118E+03  0.28404170305E+03  0.12509000000E+03 0.  0.
         25    1    3    3    0    0 -0.55852533266E+02 -0.27785851409E+01  0.13837531101E+03  0.19473690150E+03  0.12509000000E+03 0.  0.
         25    1    3    3    0    0 -0.15710995630E+03  0.32387377437E+01  0.17127876668E+03  0.26396581560E+03  0.12509000000E+03 0.  0.
<mgrwt>
<rscale>  2 0.59095439E+03</rscale>
<asrwt>0</asrwt>
<pdfrwt beam="1">  1       21 0.87697070E-01 0.59095439E+03</pdfrwt>
<pdfrwt beam="2">  1       21 0.21530050E-01 0.59095439E+03</pdfrwt>
<totfact> 0.19603143E+04</totfact>
</mgrwt>
</event>
<event>
 7    0  0.4712189E-002  0.4538797E+03  0.7546771E-02  0.1026571E+00
         21   -1    0    0  502  501  0.00000000000E+00  0.00000000000E+00  0.32316949131E+03  0.32316949131E+03  0.00000000000E+00 0. -1.
         21   -1    0    0  501  502 -0.00000000000E+00 -0.00000000000E+00 -0.15936436090E+03  0.15936436090E+03  0.00000000000E+00 0. -1.
      99926    2    1    2    0    0 -0.14210854715E-13 -0.17763568394E-14  0.16380513042E+03  0.48253385221E+03  0.45387971730E+03 0.  0.
      99925    2    3    3    0    0  0.10831755362E+03  0.14764852742E+02  0.80321881029E+02  0.29661006587E+03  0.26377117604E+03 0.  0.
         25    1    4    4    0    0  0.14937643390E+02  0.10325516977E+01  0.15134155008E+02  0.12688873118E+03  0.12509000000E+03 0.  0.
         25    1    3    3    0    0 -0.10831755362E+03 -0.14764852742E+02  0.83483249388E+02  0.18592378634E+03  0.12509000000E+03 0.  0.
         25    1    4    4    0    0  0.93379910226E+02  0.13732301044E+02  0.65187726022E+02  0.16972133469E+03  0.12509000000E+03 0.  0.
<mgrwt>
<rscale>  2 0.45387972E+03</rscale>
<asrwt>0</asrwt>
<pdfrwt beam="1">  1       21 0.47524925E-01 0.45387972E+03</pdfrwt>
<pdfrwt beam="2">  1       21 0.23435935E-01 0.45387972E+03</pdfrwt>
<totfact> 0.67110944E+04</totfact>
</mgrwt>
</event>
<event>
 7    0  0.4712189E-002  0.4843370E+03  0.7546771E-02  0.1017950E+00
         21   -1    0    0  502  501  0.00000000000E+00  0.00000000000E+00  0.26163516378E+03  0.26163516378E+03  0.00000000000E+00 0. -1.
         21   -1    0    0  501  502 -0.00000000000E+00 -0.00000000000E+00 -0.22415023330E+03  0.22415023330E+03  0.00000000000E+00 0. -1.
      99926    2    1    2    0    0  0.00000000000E+00 -0.14210854715E-13  0.37484930472E+02  0.48578539708E+03  0.48433700251E+03 0.  0.
      99925    2    3    3    0    0  0.16704971308E+02 -0.10290365122E+03 -0.68913398372E+02  0.29126976793E+03  0.26309846776E+03 0.  0.
         25    1    3    3    0    0 -0.16704971308E+02  0.10290365122E+03  0.10639832884E+03  0.19451562915E+03  0.12509000000E+03 0.  0.
         25    1    4    4    0    0 -0.26940705361E+02 -0.45391138132E+02 -0.12990278339E+02  0.13639066118E+03  0.12509000000E+03 0.  0.
         25    1    4    4    0    0  0.43645676670E+02 -0.57512513090E+02 -0.55923120033E+02  0.15487910675E+03  0.12509000000E+03 0.  0.
<mgrwt>
<rscale>  2 0.48433700E+03</rscale>
<asrwt>0</asrwt>
<pdfrwt beam="1">  1       21 0.38475760E-01 0.48433700E+03</pdfrwt>
<pdfrwt beam="2">  1       21 0.32963269E-01 0.48433700E+03</pdfrwt>
<totfact> 0.52849900E+04</totfact>
</mgrwt>
</event>
<event>
 7    0  0.4712189E-002  0.4484351E+03  0.7546771E-02  0.1028190E+00
         21   -1    0    0  502  501  0.00000000000E+00  0.00000000000E+00  0.82097854361E+02  0.82097854361E+02  0.00000000000E+00 0. -1.
         21   -1    0    0  501  502 -0.00000000000E+00 -0.00000000000E+00 -0.61236092280E+03  0.61236092280E+03  0.00000000000E+00 0. -1.
      99926    2    1    2    0    0  0.35527136788E-14  0.00000000000E+00 -0.53026306843E+03  0.69445877716E+03  0.44843513625E+03 0.  0.
      99925    2    3    3    0    0 -0.28470821602E+02 -0.46806529122E+02 -0.47782139578E+03  0.54817454704E+03  0.26302206923E+03 0.  0.
         25    1    3    3    0    0  0.28470821602E+02  0.46806529122E+02 -0.52441672655E+02  0.14628423012E+03  0.12509000000E+03 0.  0.
         25    1    4    4    0    0 -0.80320584735E+01  0.81219312781E+01 -0.17582921973E+03  0.21608771909E+03  0.12509000000E+03 0.  0.
         25    1    4    4    0    0 -0.20438763128E+02 -0.54928460400E+02 -0.30199217605E+03  0.33208682794E+03  0.12509000000E+03 0.  0.
<mgrwt>
<rscale>  2 0.44843514E+03</rscale>
<asrwt>0</asrwt>
<pdfrwt beam="1">  1       21 0.12073214E-01 0.44843514E+03</pdfrwt>
<pdfrwt beam="2">  1       21 0.90053076E-01 0.44843514E+03</pdfrwt>
<totfact> 0.56045136E+04</totfact>
</mgrwt>
</event>
<event>
 7    0  0.4712189E-002  0.4435669E+03  0.7546771E-02  0.1029658E+00
         21   -1    0    0  502  501  0.00000000000E+00  0.00000000000E+00  0.16314504027E+03  0.16314504027E+03  0.00000000000E+00 0. -1.
         21   -1    0    0  501  502 -0.00000000000E+00 -0.00000000000E+00 -0.30149802806E+03  0.30149802806E+03  0.00000000000E+00 0. -1.
      99926    2    1    2    0    0  0.00000000000E+00  0.00000000000E+00 -0.13835298780E+03  0.46464306833E+03  0.44356694164E+03 0.  0.
      99925    2    3    3    0    0 -0.51128092353E+02 -0.26417635988E+01  0.44032269976E+01  0.26805236228E+03  0.26308101371E+03 0.  0.
         25    1    4    4    0    0 -0.31997004798E+02 -0.22703682619E+02 -0.31821351142E+02  0.13490504812E+03  0.12509000000E+03 0.  0.
         25    1    3    3    0    0  0.51128092353E+02  0.26417635988E+01 -0.14275621480E+03  0.19659070605E+03  0.12509000000E+03 0.  0.
         25    1    4    4    0    0 -0.19131087555E+02  0.20061919020E+02  0.36224578140E+02  0.13314731416E+03  0.12509000000E+03 0.  0.
<mgrwt>
<rscale>  2 0.44356694E+03</rscale>
<asrwt>0</asrwt>
<pdfrwt beam="1">  1       21 0.23991918E-01 0.44356694E+03</pdfrwt>
<pdfrwt beam="2">  1       21 0.44337945E-01 0.44356694E+03</pdfrwt>
<totfact> 0.74355650E+04</totfact>
</mgrwt>
</event>
<event>
 7    0  0.4712189E-002  0.4595090E+03  0.7546771E-02  0.1024924E+00
         21   -1    0    0  502  501  0.00000000000E+00  0.00000000000E+00  0.15386906239E+04  0.15386906239E+04  0.00000000000E+00 0.  1.
         21   -1    0    0  501  502 -0.00000000000E+00 -0.00000000000E+00 -0.34306530698E+02  0.34306530698E+02  0.00000000000E+00 0.  1.
      99926    2    1    2    0    0  0.00000000000E+00  0.14210854715E-13  0.15043840932E+04  0.15729971546E+04  0.45950902982E+03 0.  0.
      99925    2    3    3    0    0  0.57035005728E+02  0.99515262731E+02  0.10295966814E+04  0.10687879977E+04  0.26283488786E+03 0.  0.
         25    1    4    4    0    0  0.62420031938E+02  0.37137241622E+02  0.45661682017E+03  0.47898002428E+03  0.12509000000E+03 0.  0.
         25    1    4    4    0    0 -0.53850262105E+01  0.62378021109E+02  0.57297986124E+03  0.58980797342E+03  0.12509000000E+03 0.  0.
         25    1    3    3    0    0 -0.57035005728E+02 -0.99515262731E+02  0.47478741175E+03  0.50420915685E+03  0.12509000000E+03 0.  0.
<mgrwt>
<rscale>  2 0.45950903E+03</rscale>
<asrwt>0</asrwt>
<pdfrwt beam="1">  1       21 0.22627799E+00 0.45950903E+03</pdfrwt>
<pdfrwt beam="2">  1       21 0.50450791E-02 0.45950903E+03</pdfrwt>
<totfact> 0.21290128E+04</totfact>
</mgrwt>
</event>
<event>
 7    0  0.4712189E-002  0.4516274E+03  0.7546771E-02  0.1027238E+00
         21   -1    0    0  502  501  0.00000000000E+00  0.00000000000E+00  0.10760671394E+03  0.10760671394E+03  0.00000000000E+00 0.  1.
         21   -1    0    0  501  502 -0.00000000000E+00 -0.00000000000E+00 -0.47387210966E+03  0.47387210966E+03  0.00000000000E+00 0.  1.
      99926    2    1    2    0    0 -0.44408920985E-15  0.00000000000E+00 -0.36626539572E+03  0.58147882359E+03  0.45162737094E+03 0.  0.
      99925    2    3    3    0    0  0.15714449246E+01  0.10968464937E+03 -0.22121475016E+03  0.36075186642E+03  0.26300713240E+03 0.  0.
         25    1    3    3    0    0 -0.15714449246E+01 -0.10968464937E+03 -0.14505064556E+03  0.22072695718E+03  0.12509000000E+03 0.  0.
         25    1    4    4    0    0  0.33316107132E+02  0.34242453511E+02 -0.12350266744E+03  0.18216181153E+03  0.12509000000E+03 0.  0.
         25    1    4    4    0    0 -0.31744662208E+02  0.75442195856E+02 -0.97712082720E+02  0.17859005488E+03  0.12509000000E+03 0.  0.
<mgrwt>
<rscale>  2 0.45162737E+03</rscale>
<asrwt>0</asrwt>
<pdfrwt beam="1">  1       21 0.15824517E-01 0.45162737E+03</pdfrwt>
<pdfrwt beam="2">  1       21 0.69687074E-01 0.45162737E+03</pdfrwt>
<totfact> 0.61455205E+04</totfact>
</mgrwt>
</event>
<event>
 7    0  0.4712189E-002  0.4525455E+03  0.7546771E-02  0.1026966E+00
         21   -1    0    0  502  501  0.00000000000E+00  0.00000000000E+00  0.87280470420E+03  0.87280470420E+03  0.00000000000E+00 0. -1.
         21   -1    0    0  501  502 -0.00000000000E+00 -0.00000000000E+00 -0.58660720639E+02  0.58660720639E+02  0.00000000000E+00 0. -1.
      99926    2    1    2    0    0  0.00000000000E+00  0.35527136788E-14  0.81414398356E+03  0.93146542484E+03  0.45254548026E+03 0.  0.
      99925    2    3    3    0    0 -0.93870633005E+02  0.88569087255E+01  0.63364891078E+03  0.69247563432E+03  0.26290953087E+03 0.  0.
         25    1    4    4    0    0 -0.38321360422E+02  0.30099098789E+02  0.23756015132E+03  0.27286776286E+03  0.12509000000E+03 0.  0.
         25    1    3    3    0    0  0.93870633005E+02 -0.88569087255E+01  0.18049507278E+03  0.23898979051E+03  0.12509000000E+03 0.  0.
         25    1    4    4    0    0 -0.55549272583E+02 -0.21242190064E+02  0.39608875946E+03  0.41960787147E+03  0.12509000000E+03 0.  0.
<mgrwt>
<rscale>  2 0.45254548E+03</rscale>
<asrwt>0</asrwt>
<pdfrwt beam="1">  1       21 0.12835363E+00 0.45254548E+03</pdfrwt>
<pdfrwt beam="2">  1       21 0.86265771E-02 0.45254548E+03</pdfrwt>
<totfact> 0.42714747E+04</totfact>
</mgrwt>
</event>
<event>
 7    0  0.4712189E-002  0.4552854E+03  0.7546771E-02  0.1026157E+00
         21   -1    0    0  502  501  0.00000000000E+00  0.00000000000E+00  0.15839123103E+03  0.15839123103E+03  0.00000000000E+00 0.  1.
         21   -1    0    0  501  502 -0.00000000000E+00 -0.00000000000E+00 -0.32717219948E+03  0.32717219948E+03  0.00000000000E+00 0.  1.
      99926    2    1    2    0    0 -0.14210854715E-13  0.00000000000E+00 -0.16878096845E+03  0.48556343052E+03  0.45528543766E+03 0.  0.
      99925    2    3    3    0    0 -0.83368798965E+02  0.73343743062E+02 -0.81517786723E+02  0.29690492349E+03  0.26301658266E+03 0.  0.
         25    1    3    3    0    0  0.83368798965E+02 -0.73343743062E+02 -0.87263181729E+02  0.18865850702E+03  0.12509000000E+03 0.  0.
         25    1    4    4    0    0 -0.78154191746E+02  0.58334115259E+02 -0.56322830375E+02  0.16831730752E+03  0.12509000000E+03 0.  0.
         25    1    4    4    0    0 -0.52146072191E+01  0.15009627804E+02 -0.25194956348E+02  0.12858761597E+03  0.12509000000E+03 0.  0.
<mgrwt>
<rscale>  2 0.45528544E+03</rscale>
<asrwt>0</asrwt>
<pdfrwt beam="1">  1       21 0.23292829E-01 0.45528544E+03</pdfrwt>
<pdfrwt beam="2">  1       21 0.48113558E-01 0.45528544E+03</pdfrwt>
<totfact> 0.66147292E+04</totfact>
</mgrwt>
</event>
<event>
 7    0  0.4712189E-002  0.4565272E+03  0.7546771E-02  0.1025793E+00
         21   -1    0    0  502  501  0.00000000000E+00  0.00000000000E+00  0.13777660386E+03  0.13777660386E+03  0.00000000000E+00 0.  1.
         21   -1    0    0  501  502 -0.00000000000E+00 -0.00000000000E+00 -0.37817931162E+03  0.37817931162E+03  0.00000000000E+00 0.  1.
      99926    2    1    2    0    0  0.71054273576E-14  0.00000000000E+00 -0.24040270777E+03  0.51595591548E+03  0.45652715671E+03 0.  0.
      99925    2    3    3    0    0  0.43359041714E+02  0.97529808122E+02 -0.10366296376E+03  0.30209302561E+03  0.26291085200E+03 0.  0.
         25    1    4    4    0    0 -0.44171608905E+01  0.71579143480E+02 -0.30746768558E+02  0.14743119401E+03  0.12509000000E+03 0.  0.
         25    1    3    3    0    0 -0.43359041714E+02 -0.97529808122E+02 -0.13673974401E+03  0.21386288987E+03  0.12509000000E+03 0.  0.
         25    1    4    4    0    0  0.47776202604E+02  0.25950664642E+02 -0.72916195200E+02  0.15466183160E+03  0.12509000000E+03 0.  0.
<mgrwt>
<rscale>  2 0.45652716E+03</rscale>
<asrwt>0</asrwt>
<pdfrwt beam="1">  1       21 0.20261266E-01 0.45652716E+03</pdfrwt>
<pdfrwt beam="2">  1       21 0.55614603E-01 0.45652716E+03</pdfrwt>
<totfact> 0.63391956E+04</totfact>
</mgrwt>
</event>
<event>
 7    0  0.4712189E-002  0.4265834E+03  0.7546771E-02  0.1034945E+00
         21   -1    0    0  502  501  0.00000000000E+00  0.00000000000E+00  0.36038334295E+03  0.36038334295E+03  0.00000000000E+00 0.  1.
         21   -1    0    0  501  502 -0.00000000000E+00 -0.00000000000E+00 -0.12623597077E+03  0.12623597077E+03  0.00000000000E+00 0.  1.
      99926    2    1    2    0    0  0.00000000000E+00  0.00000000000E+00  0.23414737219E+03  0.48661931372E+03  0.42658336183E+03 0.  0.
      99925    2    3    3    0    0 -0.52088913037E+02  0.55299713465E+02  0.11114057925E+03  0.29544009838E+03  0.26298538021E+03 0.  0.
         25    1    4    4    0    0 -0.52184964432E+02  0.45938997198E+02  0.30531831349E+02  0.14633305437E+03  0.12509000000E+03 0.  0.
         25    1    3    3    0    0  0.52088913037E+02 -0.55299713465E+02  0.12300679294E+03  0.19117921534E+03  0.12509000000E+03 0.  0.
         25    1    4    4    0    0  0.96051395347E-01  0.93607162666E+01  0.80608747900E+02  0.14910704401E+03  0.12509000000E+03 0.  0.
<mgrwt>
<rscale>  2 0.42658336E+03</rscale>
<asrwt>0</asrwt>
<pdfrwt beam="1">  1       21 0.52997550E-01 0.42658336E+03</pdfrwt>
<pdfrwt beam="2">  1       21 0.18564113E-01 0.42658336E+03</pdfrwt>
<totfact> 0.83529661E+04</totfact>
</mgrwt>
</event>
<event>
 7    0  0.4712189E-002  0.4251484E+03  0.7546771E-02  0.1035404E+00
         21   -1    0    0  502  501  0.00000000000E+00  0.00000000000E+00  0.62070017031E+03  0.62070017031E+03  0.00000000000E+00 0. -1.
         21   -1    0    0  501  502 -0.00000000000E+00 -0.00000000000E+00 -0.72801322642E+02  0.72801322642E+02  0.00000000000E+00 0. -1.
      99926    2    1    2    0    0  0.71054273576E-14  0.00000000000E+00  0.54789884767E+03  0.69350149296E+03  0.42514841344E+03 0.  0.
      99925    2    3    3    0    0  0.51502719739E+02  0.18130376769E+02  0.45525286641E+03  0.52854081083E+03  0.26290487945E+03 0.  0.
         25    1    3    3    0    0 -0.51502719739E+02 -0.18130376769E+02  0.92645981261E+02  0.16496068212E+03  0.12509000000E+03 0.  0.
         25    1    4    4    0    0  0.38637138310E+02 -0.53482656972E+00  0.30377008606E+03  0.33078223619E+03  0.12509000000E+03 0.  0.
         25    1    4    4    0    0  0.12865581429E+02  0.18665203339E+02  0.15148278035E+03  0.19775857464E+03  0.12509000000E+03 0.  0.
<mgrwt>
<rscale>  2 0.42514841E+03</rscale>
<asrwt>0</asrwt>
<pdfrwt beam="1">  1       21 0.91279434E-01 0.42514841E+03</pdfrwt>
<pdfrwt beam="2">  1       21 0.10706077E-01 0.42514841E+03</pdfrwt>
<totfact> 0.67848241E+04</totfact>
</mgrwt>
</event>
<event>
 7    0  0.4712189E-002  0.4525929E+03  0.7546771E-02  0.1026952E+00
         21   -1    0    0  502  501  0.00000000000E+00  0.00000000000E+00  0.13553175120E+03  0.13553175120E+03  0.00000000000E+00 0. -1.
         21   -1    0    0  501  502 -0.00000000000E+00 -0.00000000000E+00 -0.37784558463E+03  0.37784558463E+03  0.00000000000E+00 0. -1.
      99926    2    1    2    0    0  0.14210854715E-13  0.00000000000E+00 -0.24231383343E+03  0.51337733583E+03  0.45259285795E+03 0.  0.
      99925    2    3    3    0    0  0.80552825808E+02  0.13759792651E+02 -0.67950873963E+02  0.28375146757E+03  0.26309596051E+03 0.  0.
         25    1    4    4    0    0  0.68150036814E+00 -0.51302315590E+01 -0.21004896314E+02  0.12694682937E+03  0.12509000000E+03 0.  0.
         25    1    3    3    0    0 -0.80552825808E+02 -0.13759792651E+02 -0.17436295947E+03  0.22962586826E+03  0.12509000000E+03 0.  0.
         25    1    4    4    0    0  0.79871325440E+02  0.18890024210E+02 -0.46945977649E+02  0.15680463820E+03  0.12509000000E+03 0.  0.
<mgrwt>
<rscale>  2 0.45259286E+03</rscale>
<asrwt>0</asrwt>
<pdfrwt beam="1">  1       21 0.19931140E-01 0.45259286E+03</pdfrwt>
<pdfrwt beam="2">  1       21 0.55565526E-01 0.45259286E+03</pdfrwt>
<totfact> 0.65584524E+04</totfact>
</mgrwt>
</event>
<event>
 7    0  0.4712189E-002  0.4500685E+03  0.7546771E-02  0.1027702E+00
         21   -1    0    0  502  501  0.00000000000E+00  0.00000000000E+00  0.15500136999E+03  0.15500136999E+03  0.00000000000E+00 0.  1.
         21   -1    0    0  501  502 -0.00000000000E+00 -0.00000000000E+00 -0.32670945243E+03  0.32670945243E+03  0.00000000000E+00 0.  1.
      99926    2    1    2    0    0 -0.71054273576E-14  0.00000000000E+00 -0.17170808244E+03  0.48171082243E+03  0.45006849575E+03 0.  0.
      99925    2    3    3    0    0 -0.49346435374E+02 -0.40094494259E+02 -0.14500952648E+02  0.27098771285E+03  0.26302361820E+03 0.  0.
         25    1    4    4    0    0 -0.40025374955E+02 -0.13154598779E+01  0.25372262646E+02  0.13377227249E+03  0.12509000000E+03 0.  0.
         25    1    3    3    0    0  0.49346435374E+02  0.40094494259E+02 -0.15720712979E+03  0.21072310958E+03  0.12509000000E+03 0.  0.
         25    1    4    4    0    0 -0.93210604194E+01 -0.38779034381E+02 -0.39873215293E+02  0.13721544036E+03  0.12509000000E+03 0.  0.
<mgrwt>
<rscale>  2 0.45006850E+03</rscale>
<asrwt>0</asrwt>
<pdfrwt beam="1">  1       21 0.22794319E-01 0.45006850E+03</pdfrwt>
<pdfrwt beam="2">  1       21 0.48045507E-01 0.45006850E+03</pdfrwt>
<totfact> 0.69247200E+04</totfact>
</mgrwt>
</event>
<event>
 7    0  0.4712189E-002  0.4521561E+03  0.7546771E-02  0.1027081E+00
         21   -1    0    0  502  501  0.00000000000E+00  0.00000000000E+00  0.14447696754E+04  0.14447696754E+04  0.00000000000E+00 0.  1.
         21   -1    0    0  501  502 -0.00000000000E+00 -0.00000000000E+00 -0.35376766270E+02  0.35376766270E+02  0.00000000000E+00 0.  1.
      99926    2    1    2    0    0  0.00000000000E+00  0.00000000000E+00  0.14093929091E+04  0.14801464416E+04  0.45215607535E+03 0.  0.
      99925    2    3    3    0    0  0.89045142320E+02  0.62152942145E+02  0.82702307604E+03  0.87467624737E+03  0.26324768532E+03 0.  0.
         25    1    4    4    0    0  0.75637756324E+02  0.23444901251E+02  0.51911824058E+03  0.53981662570E+03  0.12509000000E+03 0.  0.
         25    1    3    3    0    0 -0.89045142320E+02 -0.62152942145E+02  0.58236983306E+03  0.60547019427E+03  0.12509000000E+03 0.  0.
         25    1    4    4    0    0  0.13407385996E+02  0.38708040895E+02  0.30790483546E+03  0.33485962168E+03  0.12509000000E+03 0.  0.
<mgrwt>
<rscale>  2 0.45215608E+03</rscale>
<asrwt>0</asrwt>
<pdfrwt beam="1">  1       21 0.21246609E+00 0.45215608E+03</pdfrwt>
<pdfrwt beam="2">  1       21 0.52024666E-02 0.45215608E+03</pdfrwt>
<totfact> 0.24813582E+04</totfact>
</mgrwt>
</event>
<event>
 7    0  0.4712189E-002  0.4564818E+03  0.7546771E-02  0.1025807E+00
         21   -1    0    0  502  501  0.00000000000E+00  0.00000000000E+00  0.53336024141E+02  0.53336024141E+02  0.00000000000E+00 0.  1.
         21   -1    0    0  501  502 -0.00000000000E+00 -0.00000000000E+00 -0.97671160787E+03  0.97671160787E+03  0.00000000000E+00 0.  1.
      99926    2    1    2    0    0 -0.71054273576E-14  0.00000000000E+00 -0.92337558373E+03  0.10300476320E+04  0.45648182394E+03 0.  0.
      99925    2    3    3    0    0  0.32384799188E+02 -0.64299296107E+02 -0.37985786366E+03  0.46769347774E+03  0.26317678058E+03 0.  0.
         25    1    4    4    0    0 -0.19390389615E+01 -0.58147705160E+02 -0.15079158278E+03  0.20437838688E+03  0.12509000000E+03 0.  0.
         25    1    4    4    0    0  0.34323838150E+02 -0.61515909464E+01 -0.22906628088E+03  0.26331509086E+03  0.12509000000E+03 0.  0.
         25    1    3    3    0    0 -0.32384799188E+02  0.64299296107E+02 -0.54351772007E+03  0.56235415427E+03  0.12509000000E+03 0.  0.
<mgrwt>
<rscale>  2 0.45648182E+03</rscale>
<asrwt>0</asrwt>
<pdfrwt beam="1">  1       21 0.78435325E-02 0.45648182E+03</pdfrwt>
<pdfrwt beam="2">  1       21 0.14363407E+00 0.45648182E+03</pdfrwt>
<totfact> 0.37581484E+04</totfact>
</mgrwt>
</event>
<event>
 7    0  0.4712189E-002  0.4449826E+03  0.7546771E-02  0.1029229E+00
         21   -1    0    0  502  501  0.00000000000E+00  0.00000000000E+00  0.47647727672E+03  0.47647727672E+03  0.00000000000E+00 0. -1.
         21   -1    0    0  501  502 -0.00000000000E+00 -0.00000000000E+00 -0.10389240972E+03  0.10389240972E+03  0.00000000000E+00 0. -1.
      99926    2    1    2    0    0  0.00000000000E+00  0.00000000000E+00  0.37258486700E+03  0.58036968644E+03  0.44498257250E+03 0.  0.
      99925    2    3    3    0    0  0.56255283738E+02 -0.37431490318E+02  0.33878720363E+03  0.43423425759E+03  0.26309094950E+03 0.  0.
         25    1    4    4    0    0  0.46154926562E+02  0.10976764905E+02  0.20286648554E+03  0.24300840658E+03  0.12509000000E+03 0.  0.
         25    1    3    3    0    0 -0.56255283738E+02  0.37431490318E+02  0.33797663364E+02  0.14613542885E+03  0.12509000000E+03 0.  0.
         25    1    4    4    0    0  0.10100357176E+02 -0.48408255223E+02  0.13592071809E+03  0.19122585101E+03  0.12509000000E+03 0.  0.
<mgrwt>
<rscale>  2 0.44498257E+03</rscale>
<asrwt>0</asrwt>
<pdfrwt beam="1">  1       21 0.70070187E-01 0.44498257E+03</pdfrwt>
<pdfrwt beam="2">  1       21 0.15278296E-01 0.44498257E+03</pdfrwt>
<totfact> 0.64891308E+04</totfact>
</mgrwt>
</event>
<event>
 7    0  0.4712189E-002  0.4569495E+03  0.7546771E-02  0.1025670E+00
         21   -1    0    0  502  501  0.00000000000E+00  0.00000000000E+00  0.24202399273E+02  0.24202399273E+02  0.00000000000E+00 0.  1.
         21   -1    0    0  501  502 -0.00000000000E+00 -0.00000000000E+00 -0.21568400195E+04  0.21568400195E+04  0.00000000000E+00 0.  1.
      99926    2    1    2    0    0  0.71054273576E-14  0.71054273576E-14 -0.21326376202E+04  0.21810424187E+04  0.45694946469E+03 0.  0.
      99925    2    3    3    0    0  0.55762963032E+02  0.54278121501E+02 -0.93637221004E+03  0.97573994129E+03  0.26309674033E+03 0.  0.
         25    1    3    3    0    0 -0.55762963032E+02 -0.54278121501E+02 -0.11962654101E+04  0.12053024774E+04  0.12509000000E+03 0.  0.
         25    1    4    4    0    0  0.45729163733E+02 -0.67981952795E+01 -0.50753230044E+03  0.52476081786E+03  0.12509000000E+03 0.  0.
         25    1    4    4    0    0  0.10033799298E+02  0.61076316780E+02 -0.42883990960E+03  0.45097912343E+03  0.12509000000E+03 0.  0.
<mgrwt>
<rscale>  2 0.45694946E+03</rscale>
<asrwt>0</asrwt>
<pdfrwt beam="1">  1       21 0.35591754E-02 0.45694946E+03</pdfrwt>
<pdfrwt beam="2">  1       21 0.31718244E+00 0.45694946E+03</pdfrwt>
<totfact> 0.10808312E+04</totfact>
</mgrwt>
</event>
<event>
 7    0  0.4712189E-002  0.4124748E+03  0.7546771E-02  0.1039544E+00
         21   -1    0    0  502  501  0.00000000000E+00  0.00000000000E+00  0.27561084683E+03  0.27561084683E+03  0.00000000000E+00 0.  1.
         21   -1    0    0  501  502 -0.00000000000E+00 -0.00000000000E+00 -0.15432577910E+03  0.15432577910E+03  0.00000000000E+00 0.  1.
      99926    2    1    2    0    0  0.35527136788E-14 -0.71054273576E-14  0.12128506773E+03  0.42993662594E+03  0.41247476852E+03 0.  0.
      99925    2    3    3    0    0 -0.18401978487E+02  0.44135496121E+02  0.32576174370E+02  0.26930241199E+03  0.26301332121E+03 0.  0.
         25    1    3    3    0    0  0.18401978487E+02 -0.44135496121E+02  0.88708893362E+02  0.16063421395E+03  0.12509000000E+03 0.  0.
         25    1    4    4    0    0 -0.44767722429E+02  0.42036822257E+02  0.12990858010E+02  0.13995539964E+03  0.12509000000E+03 0.  0.
         25    1    4    4    0    0  0.26365743943E+02  0.20986738639E+01  0.19585316359E+02  0.12934701234E+03  0.12509000000E+03 0.  0.
<mgrwt>
<rscale>  2 0.41247477E+03</rscale>
<asrwt>0</asrwt>
<pdfrwt beam="1">  1       21 0.40531007E-01 0.41247477E+03</pdfrwt>
<pdfrwt beam="2">  1       21 0.22694968E-01 0.41247477E+03</pdfrwt>
<totfact> 0.10034829E+05</totfact>
</mgrwt>
</event>
<event>
 7    0  0.4712189E-002  0.4565108E+03  0.7546771E-02  0.1025798E+00
         21   -1    0    0  502  501  0.00000000000E+00  0.00000000000E+00  0.12054807530E+03  0.12054807530E+03  0.00000000000E+00 0.  1.
         21   -1    0    0  501  502 -0.00000000000E+00 -0.00000000000E+00 -0.43219704503E+03  0.43219704503E+03  0.00000000000E+00 0.  1.
      99926    2    1    2    0    0  0.00000000000E+00  0.00000000000E+00 -0.31164896973E+03  0.55274512033E+03  0.45651077502E+03 0.  0.
      99925    2    3    3    0    0  0.10595439614E+03 -0.38167904090E+02 -0.22208579522E+03  0.36208260883E+03  0.26286611081E+03 0.  0.
         25    1    4    4    0    0  0.22543845837E+02 -0.48501385176E+01 -0.13363148796E+03  0.18449019352E+03  0.12509000000E+03 0.  0.
         25    1    4    4    0    0  0.83410550298E+02 -0.33317765572E+02 -0.88454307254E+02  0.17759241531E+03  0.12509000000E+03 0.  0.
         25    1    3    3    0    0 -0.10595439614E+03  0.38167904090E+02 -0.89563174511E+02  0.19066251150E+03  0.12509000000E+03 0.  0.
<mgrwt>
<rscale>  2 0.45651078E+03</rscale>
<asrwt>0</asrwt>
<pdfrwt beam="1">  1       21 0.17727658E-01 0.45651078E+03</pdfrwt>
<pdfrwt beam="2">  1       21 0.63558389E-01 0.45651078E+03</pdfrwt>
<totfact> 0.60953665E+04</totfact>
</mgrwt>
</event>
<event>
 7    0  0.4712189E-002  0.4477232E+03  0.7546771E-02  0.1028403E+00
         21   -1    0    0  502  501  0.00000000000E+00  0.00000000000E+00  0.94037865687E+03  0.94037865687E+03  0.00000000000E+00 0. -1.
         21   -1    0    0  501  502 -0.00000000000E+00 -0.00000000000E+00 -0.53291304504E+02  0.53291304504E+02  0.00000000000E+00 0. -1.
      99926    2    1    2    0    0  0.00000000000E+00  0.00000000000E+00  0.88708735237E+03  0.99366996137E+03  0.44772315264E+03 0.  0.
      99925    2    3    3    0    0  0.79276557011E+02 -0.10296161427E+02  0.40701495773E+03  0.49116842344E+03  0.26304840038E+03 0.  0.
         25    1    4    4    0    0 -0.16458893975E+01 -0.12469193784E+02  0.19580847561E+03  0.23269434236E+03  0.12509000000E+03 0.  0.
         25    1    4    4    0    0  0.80922446409E+02  0.21730323562E+01  0.21120648212E+03  0.25847408108E+03  0.12509000000E+03 0.  0.
         25    1    3    3    0    0 -0.79276557011E+02  0.10296161427E+02  0.48007239464E+03  0.50250153793E+03  0.12509000000E+03 0.  0.
<mgrwt>
<rscale>  2 0.44772315E+03</rscale>
<asrwt>0</asrwt>
<pdfrwt beam="1">  1       21 0.13829097E+00 0.44772315E+03</pdfrwt>
<pdfrwt beam="2">  1       21 0.78369572E-02 0.44772315E+03</pdfrwt>
<totfact> 0.41735976E+04</totfact>
</mgrwt>
</event>
<event>
 7    0  0.4712189E-002  0.4609910E+03  0.7546771E-02  0.1024494E+00
         21   -1    0    0  502  501  0.00000000000E+00  0.00000000000E+00  0.18887171172E+03  0.18887171172E+03  0.00000000000E+00 0.  1.
         21   -1    0    0  501  502 -0.00000000000E+00 -0.00000000000E+00 -0.28129234784E+03  0.28129234784E+03  0.00000000000E+00 0.  1.
      99926    2    1    2    0    0  0.00000000000E+00  0.14210854715E-13 -0.92420636120E+02  0.47016405957E+03  0.46099096404E+03 0.  0.
      99925    2    3    3    0    0 -0.52436278938E+02 -0.10601209166E+03 -0.47050918577E+02  0.29213584187E+03  0.26294758838E+03 0.  0.
         25    1    4    4    0    0 -0.37124751870E+02 -0.28880081498E+02 -0.54189583935E+02  0.14420931113E+03  0.12509000000E+03 0.  0.
         25    1    4    4    0    0 -0.15311527068E+02 -0.77132010166E+02  0.71386653579E+01  0.14792653074E+03  0.12509000000E+03 0.  0.
         25    1    3    3    0    0  0.52436278938E+02  0.10601209166E+03 -0.45369717542E+02  0.17802821770E+03  0.12509000000E+03 0.  0.
<mgrwt>
<rscale>  2 0.46099096E+03</rscale>
<asrwt>0</asrwt>
<pdfrwt beam="1">  1       21 0.27775252E-01 0.46099096E+03</pdfrwt>
<pdfrwt beam="2">  1       21 0.41366521E-01 0.46099096E+03</pdfrwt>
<totfact> 0.64310921E+04</totfact>
</mgrwt>
</event>
<event>
 7    0  0.4712189E-002  0.4532693E+03  0.7546771E-02  0.1026752E+00
         21   -1    0    0  502  501  0.00000000000E+00  0.00000000000E+00  0.19049809333E+03  0.19049809333E+03  0.00000000000E+00 0. -1.
         21   -1    0    0  501  502 -0.00000000000E+00 -0.00000000000E+00 -0.26962612241E+03  0.26962612241E+03  0.00000000000E+00 0. -1.
      99926    2    1    2    0    0  0.00000000000E+00  0.26645352591E-14 -0.79128029079E+02  0.46012421575E+03  0.45326928964E+03 0.  0.
      99925    2    3    3    0    0 -0.29090271121E+02 -0.31023213712E+00 -0.15921644781E+03  0.30877031579E+03  0.26295035756E+03 0.  0.
         25    1    4    4    0    0 -0.21095706584E+02  0.38486467210E+02 -0.68193055172E+02  0.14907728824E+03  0.12509000000E+03 0.  0.
         25    1    3    3    0    0  0.29090271121E+02  0.31023213712E+00  0.80088418728E+02  0.15135389996E+03  0.12509000000E+03 0.  0.
         25    1    4    4    0    0 -0.79945645363E+01 -0.38796699347E+02 -0.91023392635E+02  0.15969302755E+03  0.12509000000E+03 0.  0.
<mgrwt>
<rscale>  2 0.45326929E+03</rscale>
<asrwt>0</asrwt>
<pdfrwt beam="1">  1       21 0.28014425E-01 0.45326929E+03</pdfrwt>
<pdfrwt beam="2">  1       21 0.39650900E-01 0.45326929E+03</pdfrwt>
<totfact> 0.69119640E+04</totfact>
</mgrwt>
</event>
<event>
 7    0  0.4712189E-002  0.4573538E+03  0.7546771E-02  0.1025551E+00
         21   -1    0    0  502  501  0.00000000000E+00  0.00000000000E+00  0.56429558952E+02  0.56429558952E+02  0.00000000000E+00 0.  1.
         21   -1    0    0  501  502 -0.00000000000E+00 -0.00000000000E+00 -0.92669729805E+03  0.92669729805E+03  0.00000000000E+00 0.  1.
      99926    2    1    2    0    0 -0.71054273576E-14 -0.71054273576E-14 -0.87026773910E+03  0.98312685700E+03  0.45735377909E+03 0.  0.
      99925    2    3    3    0    0  0.47293088711E+02  0.45526650177E+02 -0.75032163867E+03  0.79780581874E+03  0.26306320692E+03 0.  0.
         25    1    4    4    0    0  0.59919514347E+02  0.37037213314E+02 -0.44191261145E+03  0.46464649749E+03  0.12509000000E+03 0.  0.
         25    1    4    4    0    0 -0.12626425637E+02  0.84894368638E+01 -0.30840902722E+03  0.33315932125E+03  0.12509000000E+03 0.  0.
         25    1    3    3    0    0 -0.47293088711E+02 -0.45526650177E+02 -0.11994610042E+03  0.18532103826E+03  0.12509000000E+03 0.  0.
<mgrwt>
<rscale>  2 0.45735378E+03</rscale>
<asrwt>0</asrwt>
<pdfrwt beam="1">  1       21 0.82984650E-02 0.45735378E+03</pdfrwt>
<pdfrwt beam="2">  1       21 0.13627901E+00 0.45735378E+03</pdfrwt>
<totfact> 0.39103081E+04</totfact>
</mgrwt>
</event>
<event>
 6    0  0.4712189E-002  0.4777252E+03  0.7546771E-02  0.1019762E+00
         21   -1    0    0  502  501  0.00000000000E+00  0.00000000000E+00  0.27828836967E+03  0.27828836967E+03  0.00000000000E+00 0.  1.
         21   -1    0    0  501  502 -0.00000000000E+00 -0.00000000000E+00 -0.20502239108E+03  0.20502239108E+03  0.00000000000E+00 0.  1.
      99926    2    1    2    0    0  0.00000000000E+00  0.35527136788E-14  0.73265978597E+02  0.48331076075E+03  0.47772522211E+03 0.  0.
         25    1    3    3    0    0  0.66691356261E+02  0.23487737781E+02  0.14013199284E+03  0.20070848100E+03  0.12509000000E+03 0.  0.
         25    1    3    3    0    0 -0.18882889049E+02 -0.45870170839E+02 -0.85557491208E+01  0.13483821793E+03  0.12509000000E+03 0.  0.
         25    1    3    3    0    0 -0.47808467211E+02  0.22382433058E+02 -0.58310265126E+02  0.14776406182E+03  0.12509000000E+03 0.  0.
<mgrwt>
<rscale>  2 0.47772522E+03</rscale>
<asrwt>0</asrwt>
<pdfrwt beam="1">  1       21 0.40924760E-01 0.47772522E+03</pdfrwt>
<pdfrwt beam="2">  1       21 0.30150352E-01 0.47772522E+03</pdfrwt>
<totfact> 0.55707586E+04</totfact>
</mgrwt>
</event>
<event>
 7    0  0.4712189E-002  0.4513809E+03  0.7546771E-02  0.1027311E+00
         21   -1    0    0  502  501  0.00000000000E+00  0.00000000000E+00  0.21984098608E+03  0.21984098608E+03  0.00000000000E+00 0. -1.
         21   -1    0    0  501  502 -0.00000000000E+00 -0.00000000000E+00 -0.23169550940E+03  0.23169550940E+03  0.00000000000E+00 0. -1.
      99926    2    1    2    0    0  0.00000000000E+00  0.00000000000E+00 -0.11854523324E+02  0.45153649547E+03  0.45138085584E+03 0.  0.
      99925    2    3    3    0    0 -0.91657144641E+02  0.28651216923E+02  0.45644325877E+02  0.28368075338E+03  0.26300083832E+03 0.  0.
         25    1    3    3    0    0  0.91657144641E+02 -0.28651216923E+02 -0.57498849201E+02  0.16785574210E+03  0.12509000000E+03 0.  0.
         25    1    4    4    0    0 -0.75797573412E+02 -0.12996038286E+02  0.31090534256E+02  0.15009429891E+03  0.12509000000E+03 0.  0.
         25    1    4    4    0    0 -0.15859571230E+02  0.41647255209E+02  0.14553791620E+02  0.13358645447E+03  0.12509000000E+03 0.  0.
<mgrwt>
<rscale>  2 0.45138086E+03</rscale>
<asrwt>0</asrwt>
<pdfrwt beam="1">  1       21 0.32329557E-01 0.45138086E+03</pdfrwt>
<pdfrwt beam="2">  1       21 0.34072869E-01 0.45138086E+03</pdfrwt>
<totfact> 0.70823455E+04</totfact>
</mgrwt>
</event>
<event>
 7    0  0.4712189E-002  0.4462527E+03  0.7546771E-02  0.1028845E+00
         21   -1    0    0  502  501  0.00000000000E+00  0.00000000000E+00  0.10337784278E+04  0.10337784278E+04  0.00000000000E+00 0.  1.
         21   -1    0    0  501  502 -0.00000000000E+00 -0.00000000000E+00 -0.48158646244E+02  0.48158646244E+02  0.00000000000E+00 0.  1.
      99926    2    1    2    0    0  0.00000000000E+00  0.00000000000E+00  0.98561978151E+03  0.10819370740E+04  0.44625270687E+03 0.  0.
      99925    2    3    3    0    0 -0.10094539329E+03 -0.48205563363E+01  0.55848239607E+03  0.62553038657E+03  0.26300659234E+03 0.  0.
         25    1    4    4    0    0 -0.68991305764E+02 -0.18853084340E+02  0.21998459674E+03  0.26297522690E+03  0.12509000000E+03 0.  0.
         25    1    3    3    0    0  0.10094539329E+03  0.48205563363E+01  0.42713738544E+03  0.45640668743E+03  0.12509000000E+03 0.  0.
         25    1    4    4    0    0 -0.31954087525E+02  0.14032528004E+02  0.33849779933E+03  0.36255515967E+03  0.12509000000E+03 0.  0.
<mgrwt>
<rscale>  2 0.44625271E+03</rscale>
<asrwt>0</asrwt>
<pdfrwt beam="1">  1       21 0.15202622E+00 0.44625271E+03</pdfrwt>
<pdfrwt beam="2">  1       21 0.70821546E-02 0.44625271E+03</pdfrwt>
<totfact> 0.38701604E+04</totfact>
</mgrwt>
</event>
<event>
 6    0  0.4712189E-002  0.4564340E+03  0.7546771E-02  0.1025821E+00
         21   -1    0    0  502  501  0.00000000000E+00  0.00000000000E+00  0.24220422851E+03  0.24220422851E+03  0.00000000000E+00 0.  1.
         21   -1    0    0  501  502 -0.00000000000E+00 -0.00000000000E+00 -0.21503756563E+03  0.21503756563E+03  0.00000000000E+00 0.  1.
      99926    2    1    2    0    0  0.00000000000E+00 -0.14210854715E-13  0.27166662884E+02  0.45724179414E+03  0.45643403766E+03 0.  0.
         25    1    3    3    0    0  0.80980241027E+01  0.11044287151E+03  0.23197753922E+01  0.16708110402E+03  0.12509000000E+03 0.  0.
         25    1    3    3    0    0 -0.27122559605E+02 -0.11925236674E+02  0.16207419727E+02  0.12956864228E+03  0.12509000000E+03 0.  0.
         25    1    3    3    0    0  0.19024535502E+02 -0.98517634835E+02  0.86394677650E+01  0.16059204784E+03  0.12509000000E+03 0.  0.
<mgrwt>
<rscale>  2 0.45643404E+03</rscale>
<asrwt>0</asrwt>
<pdfrwt beam="1">  1       21 0.35618269E-01 0.45643404E+03</pdfrwt>
<pdfrwt beam="2">  1       21 0.31623171E-01 0.45643404E+03</pdfrwt>
<totfact> 0.67605056E+04</totfact>
</mgrwt>
</event>
<event>
 7    0  0.4712189E-002  0.4555671E+03  0.7546771E-02  0.1026075E+00
         21   -1    0    0  502  501  0.00000000000E+00  0.00000000000E+00  0.28872989008E+03  0.28872989008E+03  0.00000000000E+00 0. -1.
         21   -1    0    0  501  502 -0.00000000000E+00 -0.00000000000E+00 -0.17970204934E+03  0.17970204934E+03  0.00000000000E+00 0. -1.
      99926    2    1    2    0    0  0.00000000000E+00  0.00000000000E+00  0.10902784074E+03  0.46843193942E+03  0.45556713206E+03 0.  0.
      99925    2    3    3    0    0 -0.93943070461E+02  0.16326735090E+02  0.13244129307E+03  0.30941130989E+03  0.26287411400E+03 0.  0.
         25    1    4    4    0    0 -0.54016921188E+01  0.14235438854E+00  0.66735470229E+02  0.14188139282E+03  0.12509000000E+03 0.  0.
         25    1    4    4    0    0 -0.88541378342E+02  0.16184380701E+02  0.65705822839E+02  0.16752991707E+03  0.12509000000E+03 0.  0.
         25    1    3    3    0    0  0.93943070461E+02 -0.16326735090E+02 -0.23413452328E+02  0.15902062953E+03  0.12509000000E+03 0.  0.
<mgrwt>
<rscale>  2 0.45556713E+03</rscale>
<asrwt>0</asrwt>
<pdfrwt beam="1">  1       21 0.42460278E-01 0.45556713E+03</pdfrwt>
<pdfrwt beam="2">  1       21 0.26426772E-01 0.45556713E+03</pdfrwt>
<totfact> 0.67249597E+04</totfact>
</mgrwt>
</event>
<event>
 7    0  0.4712189E-002  0.4596448E+03  0.7546771E-02  0.1024884E+00
         21   -1    0    0  502  501  0.00000000000E+00  0.00000000000E+00  0.15297126087E+04  0.15297126087E+04  0.00000000000E+00 0. -1.
         21   -1    0    0  501  502 -0.00000000000E+00 -0.00000000000E+00 -0.34528273596E+02  0.34528273596E+02  0.00000000000E+00 0. -1.
      99926    2    1    2    0    0  0.00000000000E+00  0.00000000000E+00  0.14951843351E+04  0.15642408823E+04  0.45964479971E+03 0.  0.
      99925    2    3    3    0    0 -0.47411413412E+02 -0.84929943492E+02  0.11610867039E+04  0.11944711260E+04  0.26301710848E+03 0.  0.
         25    1    4    4    0    0 -0.63692431373E+02 -0.49341250002E+02  0.65500945901E+03  0.67169649713E+03  0.12509000000E+03 0.  0.
         25    1    3    3    0    0  0.47411413412E+02  0.84929943492E+02  0.33409763117E+03  0.36976975630E+03  0.12509000000E+03 0.  0.
         25    1    4    4    0    0  0.16281017961E+02 -0.35588693490E+02  0.50607724490E+03  0.52277462884E+03  0.12509000000E+03 0.  0.
<mgrwt>
<rscale>  2 0.45964480E+03</rscale>
<asrwt>0</asrwt>
<pdfrwt beam="1">  1       21 0.22495769E+00 0.45964480E+03</pdfrwt>
<pdfrwt beam="2">  1       21 0.50776883E-02 0.45964480E+03</pdfrwt>
<totfact> 0.21463008E+04</totfact>
</mgrwt>
</event>
<event>
 7    0  0.4712189E-002  0.4549830E+03  0.7546771E-02  0.1026246E+00
         21   -1    0    0  502  501  0.00000000000E+00  0.00000000000E+00  0.13332899907E+03  0.13332899907E+03  0.00000000000E+00 0.  1.
         21   -1    0    0  501  502 -0.00000000000E+00 -0.00000000000E+00 -0.38815549428E+03  0.38815549428E+03  0.00000000000E+00 0.  1.
      99926    2    1    2    0    0  0.00000000000E+00  0.00000000000E+00 -0.25482649520E+03  0.52148449335E+03  0.45498300424E+03 0.  0.
      99925    2    3    3    0    0 -0.94778661095E+02  0.28710143786E+02 -0.97596758982E+02  0.29748457146E+03  0.26299177922E+03 0.  0.
         25    1    3    3    0    0  0.94778661095E+02 -0.28710143786E+02 -0.15722973622E+03  0.22399992189E+03  0.12509000000E+03 0.  0.
         25    1    4    4    0    0 -0.55301193531E+02 -0.24975965194E+02 -0.41982038031E+02  0.14523092116E+03  0.12509000000E+03 0.  0.
         25    1    4    4    0    0 -0.39477467564E+02  0.53686108980E+02 -0.55614720950E+02  0.15225365030E+03  0.12509000000E+03 0.  0.
<mgrwt>
<rscale>  2 0.45498300E+03</rscale>
<asrwt>0</asrwt>
<pdfrwt beam="1">  1       21 0.19607206E-01 0.45498300E+03</pdfrwt>
<pdfrwt beam="2">  1       21 0.57081690E-01 0.45498300E+03</pdfrwt>
<totfact> 0.63794825E+04</totfact>
</mgrwt>
</event>
<event>
 7    0  0.4712189E-002  0.4440133E+03  0.7546771E-02  0.1029523E+00
         21   -1    0    0  502  501  0.00000000000E+00  0.00000000000E+00  0.21356457601E+03  0.21356457601E+03  0.00000000000E+00 0.  1.
         21   -1    0    0  501  502 -0.00000000000E+00 -0.00000000000E+00 -0.23078239156E+03  0.23078239156E+03  0.00000000000E+00 0.  1.
      99926    2    1    2    0    0 -0.17763568394E-14  0.00000000000E+00 -0.17217815548E+02  0.44434696758E+03  0.44401325929E+03 0.  0.
      99925    2    3    3    0    0 -0.81206778237E+01 -0.87643359150E+02 -0.63475594454E+02  0.28455149198E+03  0.26304580720E+03 0.  0.
         25    1    4    4    0    0 -0.43487677450E+02 -0.44493473073E+02 -0.42188649835E+02  0.14593915688E+03  0.12509000000E+03 0.  0.
         25    1    3    3    0    0  0.81206778237E+01  0.87643359150E+02  0.46257778906E+02  0.15979547560E+03  0.12509000000E+03 0.  0.
         25    1    4    4    0    0  0.35366999626E+02 -0.43149886077E+02 -0.21286944618E+02  0.13861233510E+03  0.12509000000E+03 0.  0.
<mgrwt>
<rscale>  2 0.44401326E+03</rscale>
<asrwt>0</asrwt>
<pdfrwt beam="1">  1       21 0.31406555E-01 0.44401326E+03</pdfrwt>
<pdfrwt beam="2">  1       21 0.33938587E-01 0.44401326E+03</pdfrwt>
<totfact> 0.75760031E+04</totfact>
</mgrwt>
</event>
<event>
 7    0  0.4712189E-002  0.4726569E+03  0.7546771E-02  0.1021173E+00
         21   -1    0    0  502  501  0.00000000000E+00  0.00000000000E+00  0.17436893359E+03  0.17436893359E+03  0.00000000000E+00 0. -1.
         21   -1    0    0  501  502 -0.00000000000E+00 -0.00000000000E+00 -0.32030443660E+03  0.32030443660E+03  0.00000000000E+00 0. -1.
      99926    2    1    2    0    0  0.71054273576E-14  0.14210854715E-13 -0.14593550302E+03  0.49467337019E+03  0.47265692858E+03 0.  0.
      99925    2    3    3    0    0  0.47724298569E+02  0.12008579796E+03 -0.10066508137E+03  0.30921413822E+03  0.26226268725E+03 0.  0.
         25    1    4    4    0    0  0.45702217186E+02  0.89529520957E+02 -0.78095766962E+02  0.17846760125E+03  0.12509000000E+03 0.  0.
         25    1    4    4    0    0  0.20220813826E+01  0.30556277003E+02 -0.22569314407E+02  0.13074653697E+03  0.12509000000E+03 0.  0.
         25    1    3    3    0    0 -0.47724298569E+02 -0.12008579796E+03 -0.45270421647E+02  0.18545923197E+03  0.12509000000E+03 0.  0.
<mgrwt>
<rscale>  2 0.47265693E+03</rscale>
<asrwt>0</asrwt>
<pdfrwt beam="1">  1       21 0.25642490E-01 0.47265693E+03</pdfrwt>
<pdfrwt beam="2">  1       21 0.47103594E-01 0.47265693E+03</pdfrwt>
<totfact> 0.57199080E+04</totfact>
</mgrwt>
</event>
<event>
 7    0  0.4712189E-002  0.4515008E+03  0.7546771E-02  0.1027275E+00
         21   -1    0    0  502  501  0.00000000000E+00  0.00000000000E+00  0.70400077365E+03  0.70400077365E+03  0.00000000000E+00 0. -1.
         21   -1    0    0  501  502 -0.00000000000E+00 -0.00000000000E+00 -0.72390898885E+02  0.72390898885E+02  0.00000000000E+00 0. -1.
      99926    2    1    2    0    0  0.00000000000E+00  0.00000000000E+00  0.63160987476E+03  0.77639167253E+03  0.45150082534E+03 0.  0.
      99925    2    3    3    0    0  0.42849257734E+02  0.49750859464E+02  0.24723050857E+03  0.36687218318E+03  0.26298491880E+03 0.  0.
         25    1    4    4    0    0 -0.16793343291E+02  0.27464400160E+02  0.99091915468E+02  0.16279749834E+03  0.12509000000E+03 0.  0.
         25    1    4    4    0    0  0.59642601025E+02  0.22286459303E+02  0.14813859310E+03  0.20407468484E+03  0.12509000000E+03 0.  0.
         25    1    3    3    0    0 -0.42849257734E+02 -0.49750859464E+02  0.38437936619E+03  0.40951948935E+03  0.12509000000E+03 0.  0.
<mgrwt>
<rscale>  2 0.45150083E+03</rscale>
<asrwt>0</asrwt>
<pdfrwt beam="1">  1       21 0.10352952E+00 0.45150083E+03</pdfrwt>
<pdfrwt beam="2">  1       21 0.10645721E-01 0.45150083E+03</pdfrwt>
<totfact> 0.50295236E+04</totfact>
</mgrwt>
</event>
<event>
 7    0  0.4712189E-002  0.4554974E+03  0.7546771E-02  0.1026095E+00
         21   -1    0    0  502  501  0.00000000000E+00  0.00000000000E+00  0.30523670969E+03  0.30523670969E+03  0.00000000000E+00 0. -1.
         21   -1    0    0  501  502 -0.00000000000E+00 -0.00000000000E+00 -0.16993198679E+03  0.16993198679E+03  0.00000000000E+00 0. -1.
      99926    2    1    2    0    0  0.00000000000E+00  0.00000000000E+00  0.13530472290E+03  0.47516869647E+03  0.45549744464E+03 0.  0.
      99925    2    3    3    0    0  0.82852032745E+02  0.77780329680E+02  0.82270936029E+02  0.29804069286E+03  0.26295533588E+03 0.  0.
         25    1    3    3    0    0 -0.82852032745E+02 -0.77780329680E+02  0.53033786870E+02  0.17712800362E+03  0.12509000000E+03 0.  0.
         25    1    4    4    0    0  0.37703981226E+01  0.52005390565E+02  0.28489526400E+02  0.13848443149E+03  0.12509000000E+03 0.  0.
         25    1    4    4    0    0  0.79081634622E+02  0.25774939116E+02  0.53781409629E+02  0.15955626137E+03  0.12509000000E+03 0.  0.
<mgrwt>
<rscale>  2 0.45549744E+03</rscale>
<asrwt>0</asrwt>
<pdfrwt beam="1">  1       21 0.44887752E-01 0.45549744E+03</pdfrwt>
<pdfrwt beam="2">  1       21 0.24989998E-01 0.45549744E+03</pdfrwt>
<totfact> 0.66789459E+04</totfact>
</mgrwt>
</event>
<event>
 7    0  0.4712189E-002  0.4560827E+03  0.7546771E-02  0.1025923E+00
         21   -1    0    0  502  501  0.00000000000E+00  0.00000000000E+00  0.74274878450E+02  0.74274878450E+02  0.00000000000E+00 0.  1.
         21   -1    0    0  501  502 -0.00000000000E+00 -0.00000000000E+00 -0.70014073913E+03  0.70014073913E+03  0.00000000000E+00 0.  1.
      99926    2    1    2    0    0  0.14210854715E-13  0.00000000000E+00 -0.62586586068E+03  0.77441561758E+03  0.45608274818E+03 0.  0.
      99925    2    3    3    0    0 -0.93840261757E+02 -0.43598230538E+02 -0.31135550503E+03  0.42047908041E+03  0.26297073244E+03 0.  0.
         25    1    4    4    0    0 -0.71020579476E+02  0.77114249403E+01 -0.13837922983E+03  0.19974911297E+03  0.12509000000E+03 0.  0.
         25    1    4    4    0    0 -0.22819682281E+02 -0.51309655478E+02 -0.17297627520E+03  0.22072996744E+03  0.12509000000E+03 0.  0.
         25    1    3    3    0    0  0.93840261757E+02  0.43598230538E+02 -0.31451035565E+03  0.35393653717E+03  0.12509000000E+03 0.  0.
<mgrwt>
<rscale>  2 0.45608275E+03</rscale>
<asrwt>0</asrwt>
<pdfrwt beam="1">  1       21 0.10922776E-01 0.45608275E+03</pdfrwt>
<pdfrwt beam="2">  1       21 0.10296188E+00 0.45608275E+03</pdfrwt>
<totfact> 0.48612712E+04</totfact>
</mgrwt>
</event>
<event>
 7    0  0.4712189E-002  0.4544189E+03  0.7546771E-02  0.1026412E+00
         21   -1    0    0  502  501  0.00000000000E+00  0.00000000000E+00  0.40760794461E+03  0.40760794461E+03  0.00000000000E+00 0. -1.
         21   -1    0    0  501  502 -0.00000000000E+00 -0.00000000000E+00 -0.12665142837E+03  0.12665142837E+03  0.00000000000E+00 0. -1.
      99926    2    1    2    0    0  0.00000000000E+00  0.00000000000E+00  0.28095651624E+03  0.53425937298E+03  0.45441887460E+03 0.  0.
      99925    2    3    3    0    0  0.13739161305E+02 -0.10928232198E+03  0.20510979090E+03  0.35114295019E+03  0.26286870239E+03 0.  0.
         25    1    4    4    0    0  0.95185345486E+01 -0.75789363909E+02  0.15188525092E+03  0.21107171229E+03  0.12509000000E+03 0.  0.
         25    1    3    3    0    0 -0.13739161305E+02  0.10928232198E+03  0.75846725335E+02  0.18311642279E+03  0.12509000000E+03 0.  0.
         25    1    4    4    0    0  0.42206267560E+01 -0.33492958068E+02  0.53224539981E+02  0.14007123790E+03  0.12509000000E+03 0.  0.
<mgrwt>
<rscale>  2 0.45441887E+03</rscale>
<asrwt>0</asrwt>
<pdfrwt beam="1">  1       21 0.59942344E-01 0.45441887E+03</pdfrwt>
<pdfrwt beam="2">  1       21 0.18625210E-01 0.45441887E+03</pdfrwt>
<totfact> 0.63209040E+04</totfact>
</mgrwt>
</event>
<event>
 7    0  0.4712189E-002  0.4494843E+03  0.7546771E-02  0.1027876E+00
         21   -1    0    0  502  501  0.00000000000E+00  0.00000000000E+00  0.38259857294E+03  0.38259857294E+03  0.00000000000E+00 0. -1.
         21   -1    0    0  501  502 -0.00000000000E+00 -0.00000000000E+00 -0.13201572925E+03  0.13201572925E+03  0.00000000000E+00 0. -1.
      99926    2    1    2    0    0 -0.35527136788E-14 -0.14210854715E-13  0.25058284369E+03  0.51461430219E+03  0.44948428055E+03 0.  0.
      99925    2    3    3    0    0  0.25810916816E+02  0.87845046695E+02  0.93013278922E+02  0.29357441552E+03  0.26296675025E+03 0.  0.
         25    1    3    3    0    0 -0.25810916816E+02 -0.87845046695E+02  0.15756956477E+03  0.22103988667E+03  0.12509000000E+03 0.  0.
         25    1    4    4    0    0  0.39448958574E+02  0.48479627644E+02  0.15652288743E+02  0.14070890829E+03  0.12509000000E+03 0.  0.
         25    1    4    4    0    0 -0.13638041758E+02  0.39365419051E+02  0.77360990178E+02  0.15286550723E+03  0.12509000000E+03 0.  0.
<mgrwt>
<rscale>  2 0.44948428E+03</rscale>
<asrwt>0</asrwt>
<pdfrwt beam="1">  1       21 0.56264496E-01 0.44948428E+03</pdfrwt>
<pdfrwt beam="2">  1       21 0.19414078E-01 0.44948428E+03</pdfrwt>
<totfact> 0.67146485E+04</totfact>
</mgrwt>
</event>
<event>
 7    0  0.4712189E-002  0.4608285E+03  0.7546771E-02  0.1024541E+00
         21   -1    0    0  502  501  0.00000000000E+00  0.00000000000E+00  0.10347359297E+03  0.10347359297E+03  0.00000000000E+00 0.  1.
         21   -1    0    0  501  502 -0.00000000000E+00 -0.00000000000E+00 -0.51308470762E+03  0.51308470762E+03  0.00000000000E+00 0.  1.
      99926    2    1    2    0    0  0.00000000000E+00 -0.14210854715E-13 -0.40961111464E+03  0.61655830059E+03  0.46082846352E+03 0.  0.
      99925    2    3    3    0    0 -0.39981935650E+02  0.96491089594E+02 -0.33128712923E+03  0.43575110953E+03  0.26309462540E+03 0.  0.
         25    1    4    4    0    0 -0.36060405647E+02  0.45746016695E+02 -0.10981297161E+03  0.17635035507E+03  0.12509000000E+03 0.  0.
         25    1    3    3    0    0  0.39981935650E+02 -0.96491089594E+02 -0.78323985413E+02  0.18080719106E+03  0.12509000000E+03 0.  0.
         25    1    4    4    0    0 -0.39215300031E+01  0.50745072899E+02 -0.22147415762E+03  0.25940075446E+03  0.12509000000E+03 0.  0.
<mgrwt>
<rscale>  2 0.46082846E+03</rscale>
<asrwt>0</asrwt>
<pdfrwt beam="1">  1       21 0.15216705E-01 0.46082846E+03</pdfrwt>
<pdfrwt beam="2">  1       21 0.75453633E-01 0.46082846E+03</pdfrwt>
<totfact> 0.55090457E+04</totfact>
</mgrwt>
</event>
<event>
 7    0  0.4712189E-002  0.4608468E+03  0.7546771E-02  0.1024536E+00
         21   -1    0    0  502  501  0.00000000000E+00  0.00000000000E+00  0.19828497504E+04  0.19828497504E+04  0.00000000000E+00 0. -1.
         21   -1    0    0  501  502 -0.00000000000E+00 -0.00000000000E+00 -0.26777083355E+02  0.26777083355E+02  0.00000000000E+00 0. -1.
      99926    2    1    2    0    0  0.00000000000E+00  0.00000000000E+00  0.19560726670E+04  0.20096268337E+04  0.46084675564E+03 0.  0.
      99925    2    3    3    0    0 -0.80931172524E+02  0.79047315995E+02  0.10797107924E+04  0.11171830113E+04  0.26367433057E+03 0.  0.
         25    1    4    4    0    0 -0.54591464851E+02  0.69315899372E+02  0.69552770874E+03  0.71217359096E+03  0.12509000000E+03 0.  0.
         25    1    3    3    0    0  0.80931172524E+02 -0.79047315995E+02  0.87636187462E+03  0.89244382245E+03  0.12509000000E+03 0.  0.
         25    1    4    4    0    0 -0.26339707672E+02  0.97314166229E+01  0.38418308365E+03  0.40500942030E+03  0.12509000000E+03 0.  0.
<mgrwt>
<rscale>  2 0.46084676E+03</rscale>
<asrwt>0</asrwt>
<pdfrwt beam="1">  1       21 0.29159545E+00 0.46084676E+03</pdfrwt>
<pdfrwt beam="2">  1       21 0.39378077E-02 0.46084676E+03</pdfrwt>
<totfact> 0.12955127E+04</totfact>
</mgrwt>
</event>
<event>
 7    0  0.4712189E-002  0.4688573E+03  0.7546771E-02  0.1022243E+00
         21   -1    0    0  502  501  0.00000000000E+00  0.00000000000E+00  0.65730718193E+02  0.65730718193E+02  0.00000000000E+00 0. -1.
         21   -1    0    0  501  502 -0.00000000000E+00 -0.00000000000E+00 -0.83608996341E+03  0.83608996341E+03  0.00000000000E+00 0. -1.
      99926    2    1    2    0    0  0.00000000000E+00  0.00000000000E+00 -0.77035924522E+03  0.90182068161E+03  0.46885730780E+03 0.  0.
      99925    2    3    3    0    0 -0.30586911883E+02  0.11615476886E+03 -0.40755288843E+03  0.49969700643E+03  0.26300237996E+03 0.  0.
         25    1    3    3    0    0  0.30586911883E+02 -0.11615476886E+03 -0.36280635679E+03  0.40212367517E+03  0.12509000000E+03 0.  0.
         25    1    4    4    0    0 -0.39153877614E+01  0.29265024455E+02 -0.23611364936E+03  0.26882882180E+03  0.12509000000E+03 0.  0.
         25    1    4    4    0    0 -0.26671524122E+02  0.86889744404E+02 -0.17143923907E+03  0.23086818463E+03  0.12509000000E+03 0.  0.
<mgrwt>
<rscale>  2 0.46885731E+03</rscale>
<asrwt>0</asrwt>
<pdfrwt beam="1">  1       21 0.96662822E-02 0.46885731E+03</pdfrwt>
<pdfrwt beam="2">  1       21 0.12295440E+00 0.46885731E+03</pdfrwt>
<totfact> 0.38773970E+04</totfact>
</mgrwt>
</event>
<event>
 7    0  0.4712189E-002  0.4528729E+03  0.7546771E-02  0.1026869E+00
         21   -1    0    0  502  501  0.00000000000E+00  0.00000000000E+00  0.17159677298E+03  0.17159677298E+03  0.00000000000E+00 0. -1.
         21   -1    0    0  501  502 -0.00000000000E+00 -0.00000000000E+00 -0.29880201523E+03  0.29880201523E+03  0.00000000000E+00 0. -1.
      99926    2    1    2    0    0 -0.35527136788E-14  0.14210854715E-13 -0.12720524225E+03  0.47039878821E+03  0.45287288094E+03 0.  0.
      99925    2    3    3    0    0 -0.15053279072E+02  0.89524402616E+02 -0.14687354711E+03  0.31459259388E+03  0.26297422195E+03 0.  0.
         25    1    4    4    0    0  0.27894688675E+02  0.41877773866E+02 -0.49705031064E+02  0.14370093880E+03  0.12509000000E+03 0.  0.
         25    1    3    3    0    0  0.15053279072E+02 -0.89524402616E+02  0.19668304862E+02  0.15580619433E+03  0.12509000000E+03 0.  0.
         25    1    4    4    0    0 -0.42947967748E+02  0.47646628750E+02 -0.97168516047E+02  0.17089165508E+03  0.12509000000E+03 0.  0.
<mgrwt>
<rscale>  2 0.45287288E+03</rscale>
<asrwt>0</asrwt>
<pdfrwt beam="1">  1       21 0.25234820E-01 0.45287288E+03</pdfrwt>
<pdfrwt beam="2">  1       21 0.43941472E-01 0.45287288E+03</pdfrwt>
<totfact> 0.68555744E+04</totfact>
</mgrwt>
</event>
<event>
 7    0  0.4712189E-002  0.4546494E+03  0.7546771E-02  0.1026345E+00
         21   -1    0    0  502  501  0.00000000000E+00  0.00000000000E+00  0.44190491840E+03  0.44190491840E+03  0.00000000000E+00 0.  1.
         21   -1    0    0  501  502 -0.00000000000E+00 -0.00000000000E+00 -0.11694036006E+03  0.11694036006E+03  0.00000000000E+00 0.  1.
      99926    2    1    2    0    0  0.00000000000E+00  0.00000000000E+00  0.32496455834E+03  0.55884527845E+03  0.45464940456E+03 0.  0.
      99925    2    3    3    0    0  0.71814213763E+02 -0.19967918163E+02  0.30875581610E+03  0.41233169383E+03  0.26292826532E+03 0.  0.
         25    1    4    4    0    0  0.18520667342E+02 -0.44198307714E+02  0.17151949498E+03  0.21763030759E+03  0.12509000000E+03 0.  0.
         25    1    4    4    0    0  0.53293546421E+02  0.24230389551E+02  0.13723632112E+03  0.19470138624E+03  0.12509000000E+03 0.  0.
         25    1    3    3    0    0 -0.71814213763E+02  0.19967918163E+02  0.16208742239E+02  0.14651358462E+03  0.12509000000E+03 0.  0.
<mgrwt>
<rscale>  2 0.45464940E+03</rscale>
<asrwt>0</asrwt>
<pdfrwt beam="1">  1       21 0.64986017E-01 0.45464940E+03</pdfrwt>
<pdfrwt beam="2">  1       21 0.17197112E-01 0.45464940E+03</pdfrwt>
<totfact> 0.61456022E+04</totfact>
</mgrwt>
</event>
<event>
 7    0  0.4712189E-002  0.4640014E+03  0.7546771E-02  0.1023627E+00
         21   -1    0    0  502  501  0.00000000000E+00  0.00000000000E+00  0.17182852323E+03  0.17182852323E+03  0.00000000000E+00 0. -1.
         21   -1    0    0  501  502 -0.00000000000E+00 -0.00000000000E+00 -0.31324443882E+03  0.31324443882E+03  0.00000000000E+00 0. -1.
      99926    2    1    2    0    0  0.00000000000E+00  0.00000000000E+00 -0.14141591560E+03  0.48507296205E+03  0.46400141953E+03 0.  0.
      99925    2    3    3    0    0  0.75445671225E+02 -0.60400809343E+02 -0.11104679947E+02  0.28020999977E+03  0.26278132160E+03 0.  0.
         25    1    4    4    0    0  0.73993614940E+01 -0.11027442995E+00 -0.74316552932E+01  0.12552888238E+03  0.12509000000E+03 0.  0.
         25    1    4    4    0    0  0.68046309731E+02 -0.60290534913E+02 -0.36730246535E+01  0.15468111739E+03  0.12509000000E+03 0.  0.
         25    1    3    3    0    0 -0.75445671225E+02  0.60400809343E+02 -0.13031123565E+03  0.20486296228E+03  0.12509000000E+03 0.  0.
<mgrwt>
<rscale>  2 0.46400142E+03</rscale>
<asrwt>0</asrwt>
<pdfrwt beam="1">  1       21 0.25268901E-01 0.46400142E+03</pdfrwt>
<pdfrwt beam="2">  1       21 0.46065358E-01 0.46400142E+03</pdfrwt>
<totfact> 0.61797905E+04</totfact>
</mgrwt>
</event>
<event>
 7    0  0.4712189E-002  0.4570333E+03  0.7546771E-02  0.1025645E+00
         21   -1    0    0  502  501  0.00000000000E+00  0.00000000000E+00  0.64146388064E+03  0.64146388064E+03  0.00000000000E+00 0. -1.
         21   -1    0    0  501  502 -0.00000000000E+00 -0.00000000000E+00 -0.81407328159E+02  0.81407328159E+02  0.00000000000E+00 0. -1.
      99926    2    1    2    0    0  0.00000000000E+00  0.00000000000E+00  0.56005655248E+03  0.72287120879E+03  0.45703330571E+03 0.  0.
      99925    2    3    3    0    0 -0.81925545634E+02  0.68060908914E+02  0.42153743858E+03  0.50797789721E+03  0.26268545749E+03 0.  0.
         25    1    4    4    0    0 -0.64137674543E+02  0.11165927411E+02  0.25440190870E+03  0.29087137790E+03  0.12509000000E+03 0.  0.
         25    1    3    3    0    0  0.81925545634E+02 -0.68060908914E+02  0.13851911390E+03  0.21489331158E+03  0.12509000000E+03 0.  0.
         25    1    4    4    0    0 -0.17787871091E+02  0.56894981503E+02  0.16713552988E+03  0.21710651931E+03  0.12509000000E+03 0.  0.
<mgrwt>
<rscale>  2 0.45703331E+03</rscale>
<asrwt>0</asrwt>
<pdfrwt beam="1">  1       21 0.94332921E-01 0.45703331E+03</pdfrwt>
<pdfrwt beam="2">  1       21 0.11971666E-01 0.45703331E+03</pdfrwt>
<totfact> 0.50860519E+04</totfact>
</mgrwt>
</event>
<event>
 7    0  0.4712189E-002  0.4560898E+03  0.7546771E-02  0.1025921E+00
         21   -1    0    0  502  501  0.00000000000E+00  0.00000000000E+00  0.42270544645E+02  0.42270544645E+02  0.00000000000E+00 0. -1.
         21   -1    0    0  501  502 -0.00000000000E+00 -0.00000000000E+00 -0.12302769124E+04  0.12302769124E+04  0.00000000000E+00 0. -1.
      99926    2    1    2    0    0  0.35527136788E-14  0.00000000000E+00 -0.11880063677E+04  0.12725474570E+04  0.45608979445E+03 0.  0.
      99925    2    3    3    0    0 -0.22463958997E+02  0.51628492362E+02 -0.46957008173E+03  0.54113216061E+03  0.26297874993E+03 0.  0.
         25    1    4    4    0    0 -0.28275998088E+02 -0.97614577810E+01 -0.20376503444E+03  0.24096164734E+03  0.12509000000E+03 0.  0.
         25    1    3    3    0    0  0.22463958997E+02 -0.51628492362E+02 -0.71843628600E+03  0.73141529641E+03  0.12509000000E+03 0.  0.
         25    1    4    4    0    0  0.58120390912E+01  0.61389950143E+02 -0.26580504729E+03  0.30017051328E+03  0.12509000000E+03 0.  0.
<mgrwt>
<rscale>  2 0.45608979E+03</rscale>
<asrwt>0</asrwt>
<pdfrwt beam="1">  1       21 0.62162564E-02 0.45608979E+03</pdfrwt>
<pdfrwt beam="2">  1       21 0.18092308E+00 0.45608979E+03</pdfrwt>
<totfact> 0.29670092E+04</totfact>
</mgrwt>
</event>
<event>
 7    0  0.4712189E-002  0.4565307E+03  0.7546771E-02  0.1025792E+00
         21   -1    0    0  502  501  0.00000000000E+00  0.00000000000E+00  0.11546521574E+03  0.11546521574E+03  0.00000000000E+00 0.  1.
         21   -1    0    0  501  502 -0.00000000000E+00 -0.00000000000E+00 -0.45126204181E+03  0.45126204181E+03  0.00000000000E+00 0.  1.
      99926    2    1    2    0    0  0.00000000000E+00  0.00000000000E+00 -0.33579682608E+03  0.56672725755E+03  0.45653069562E+03 0.  0.
      99925    2    3    3    0    0 -0.70117376720E+02 -0.90075618973E+02 -0.19964398254E+03  0.34943674107E+03  0.26309361944E+03 0.  0.
         25    1    3    3    0    0  0.70117376720E+02  0.90075618973E+02 -0.13615284354E+03  0.21729051648E+03  0.12509000000E+03 0.  0.
         25    1    4    4    0    0 -0.57355492179E+02 -0.73405537413E+02 -0.80949067919E+02  0.17572218159E+03  0.12509000000E+03 0.  0.
         25    1    4    4    0    0 -0.12761884541E+02 -0.16670081560E+02 -0.11869491462E+03  0.17371455948E+03  0.12509000000E+03 0.  0.
<mgrwt>
<rscale>  2 0.45653070E+03</rscale>
<asrwt>0</asrwt>
<pdfrwt beam="1">  1       21 0.16980179E-01 0.45653070E+03</pdfrwt>
<pdfrwt beam="2">  1       21 0.66362065E-01 0.45653070E+03</pdfrwt>
<totfact> 0.60044329E+04</totfact>
</mgrwt>
</event>
<event>
 7    0  0.4712189E-002  0.4541406E+03  0.7546771E-02  0.1026494E+00
         21   -1    0    0  502  501  0.00000000000E+00  0.00000000000E+00  0.57032333748E+03  0.57032333748E+03  0.00000000000E+00 0.  1.
         21   -1    0    0  501  502 -0.00000000000E+00 -0.00000000000E+00 -0.90406475201E+02  0.90406475201E+02  0.00000000000E+00 0.  1.
      99926    2    1    2    0    0  0.00000000000E+00  0.14210854715E-13  0.47991686228E+03  0.66072981268E+03  0.45414060671E+03 0.  0.
      99925    2    3    3    0    0 -0.80233704991E+02 -0.69597632862E+02  0.35651906026E+03  0.45541102747E+03  0.26270151445E+03 0.  0.
         25    1    4    4    0    0 -0.91604831778E+01 -0.36130118084E+02  0.12461798059E+03  0.18046176623E+03  0.12509000000E+03 0.  0.
         25    1    3    3    0    0  0.80233704991E+02  0.69597632862E+02  0.12339780202E+03  0.20531878521E+03  0.12509000000E+03 0.  0.
         25    1    4    4    0    0 -0.71073221813E+02 -0.33467514778E+02  0.23190107967E+03  0.27494926124E+03  0.12509000000E+03 0.  0.
<mgrwt>
<rscale>  2 0.45414061E+03</rscale>
<asrwt>0</asrwt>
<pdfrwt beam="1">  1       21 0.83871077E-01 0.45414061E+03</pdfrwt>
<pdfrwt beam="2">  1       21 0.13295070E-01 0.45414061E+03</pdfrwt>
<totfact> 0.55461927E+04</totfact>
</mgrwt>
</event>
<event>
 7    0  0.4712189E-002  0.4594827E+03  0.7546771E-02  0.1024931E+00
         21   -1    0    0  502  501  0.00000000000E+00  0.00000000000E+00  0.87259161075E+02  0.87259161075E+02  0.00000000000E+00 0. -1.
         21   -1    0    0  501  502 -0.00000000000E+00 -0.00000000000E+00 -0.60487736739E+03  0.60487736739E+03  0.00000000000E+00 0. -1.
      99926    2    1    2    0    0  0.71054273576E-14  0.00000000000E+00 -0.51761820632E+03  0.69213652847E+03  0.45948271624E+03 0.  0.
      99925    2    3    3    0    0  0.63921525449E+02  0.74460469662E+02 -0.22749515409E+03  0.36130542882E+03  0.26297765077E+03 0.  0.
         25    1    4    4    0    0 -0.40561677642E+01  0.49701505539E+02 -0.90995197818E+02  0.16252484818E+03  0.12509000000E+03 0.  0.
         25    1    3    3    0    0 -0.63921525449E+02 -0.74460469662E+02 -0.29012305223E+03  0.33083109964E+03  0.12509000000E+03 0.  0.
         25    1    4    4    0    0  0.67977693213E+02  0.24758964123E+02 -0.13649995627E+03  0.19878058064E+03  0.12509000000E+03 0.  0.
<mgrwt>
<rscale>  2 0.45948272E+03</rscale>
<asrwt>0</asrwt>
<pdfrwt beam="1">  1       21 0.12832229E-01 0.45948272E+03</pdfrwt>
<pdfrwt beam="2">  1       21 0.88952557E-01 0.45948272E+03</pdfrwt>
<totfact> 0.51490920E+04</totfact>
</mgrwt>
</event>
<event>
 7    0  0.4712189E-002  0.4689049E+03  0.7546771E-02  0.1022230E+00
         21   -1    0    0  502  501  0.00000000000E+00  0.00000000000E+00  0.59385352681E+02  0.59385352681E+02  0.00000000000E+00 0.  1.
         21   -1    0    0  501  502 -0.00000000000E+00 -0.00000000000E+00 -0.92561469909E+03  0.92561469909E+03  0.00000000000E+00 0.  1.
      99926    2    1    2    0    0  0.00000000000E+00  0.00000000000E+00 -0.86622934641E+03  0.98500005177E+03  0.46890491724E+03 0.  0.
      99925    2    3    3    0    0 -0.39311538688E+02  0.76928730770E+02 -0.73059705131E+03  0.78126725062E+03  0.26295063950E+03 0.  0.
         25    1    3    3    0    0  0.39311538688E+02 -0.76928730770E+02 -0.13563229511E+03  0.20373280116E+03  0.12509000000E+03 0.  0.
         25    1    4    4    0    0 -0.17622793189E+02  0.72097823459E+02 -0.32094088007E+03  0.35236233565E+03  0.12509000000E+03 0.  0.
         25    1    4    4    0    0 -0.21688745499E+02  0.48309073113E+01 -0.40965617124E+03  0.42890491496E+03  0.12509000000E+03 0.  0.
<mgrwt>
<rscale>  2 0.46890492E+03</rscale>
<asrwt>0</asrwt>
<pdfrwt beam="1">  1       21 0.87331403E-02 0.46890492E+03</pdfrwt>
<pdfrwt beam="2">  1       21 0.13611981E+00 0.46890492E+03</pdfrwt>
<totfact> 0.35712319E+04</totfact>
</mgrwt>
</event>
<event>
 7    0  0.4712189E-002  0.4564510E+03  0.7546771E-02  0.1025816E+00
         21   -1    0    0  502  501  0.00000000000E+00  0.00000000000E+00  0.64290412293E+03  0.64290412293E+03  0.00000000000E+00 0.  1.
         21   -1    0    0  501  502 -0.00000000000E+00 -0.00000000000E+00 -0.81018116083E+02  0.81018116083E+02  0.00000000000E+00 0.  1.
      99926    2    1    2    0    0  0.00000000000E+00  0.00000000000E+00  0.56188600685E+03  0.72392223901E+03  0.45645100881E+03 0.  0.
      99925    2    3    3    0    0 -0.84214995383E+02 -0.24945568556E+02  0.46961795945E+03  0.54538555508E+03  0.26303978600E+03 0.  0.
         25    1    4    4    0    0 -0.60705195513E+01 -0.23240547015E+01  0.17594753012E+03  0.21597984604E+03  0.12509000000E+03 0.  0.
         25    1    4    4    0    0 -0.78144475832E+02 -0.22621513855E+02  0.29367042933E+03  0.32940570905E+03  0.12509000000E+03 0.  0.
         25    1    3    3    0    0  0.84214995383E+02  0.24945568556E+02  0.92268047398E+02  0.17853668393E+03  0.12509000000E+03 0.  0.
<mgrwt>
<rscale>  2 0.45645101E+03</rscale>
<asrwt>0</asrwt>
<pdfrwt beam="1">  1       21 0.94544721E-01 0.45645101E+03</pdfrwt>
<pdfrwt beam="2">  1       21 0.11914429E-01 0.45645101E+03</pdfrwt>
<totfact> 0.51038408E+04</totfact>
</mgrwt>
</event>
<event>
 7    0  0.4712189E-002  0.4565783E+03  0.7546771E-02  0.1025778E+00
         21   -1    0    0  502  501  0.00000000000E+00  0.00000000000E+00  0.56094814687E+03  0.56094814687E+03  0.00000000000E+00 0. -1.
         21   -1    0    0  501  502 -0.00000000000E+00 -0.00000000000E+00 -0.92906879269E+02  0.92906879269E+02  0.00000000000E+00 0. -1.
      99926    2    1    2    0    0  0.00000000000E+00  0.71054273576E-14  0.46804126760E+03  0.65385502614E+03  0.45657832518E+03 0.  0.
      99925    2    3    3    0    0  0.64990678926E+02  0.61070679140E+02  0.19099556045E+03  0.33706606145E+03  0.26302245051E+03 0.  0.
         25    1    4    4    0    0  0.35771793396E+02 -0.69811707574E+01  0.11085714774E+03  0.17107066742E+03  0.12509000000E+03 0.  0.
         25    1    3    3    0    0 -0.64990678926E+02 -0.61070679140E+02  0.27704570715E+03  0.31678896469E+03  0.12509000000E+03 0.  0.
         25    1    4    4    0    0  0.29218885530E+02  0.68051849898E+02  0.80138412712E+02  0.16599539403E+03  0.12509000000E+03 0.  0.
<mgrwt>
<rscale>  2 0.45657833E+03</rscale>
<asrwt>0</asrwt>
<pdfrwt beam="1">  1       21 0.82492373E-01 0.45657833E+03</pdfrwt>
<pdfrwt beam="2">  1       21 0.13662777E-01 0.45657833E+03</pdfrwt>
<totfact> 0.54794570E+04</totfact>
</mgrwt>
</event>
<event>
 7    0  0.4712189E-002  0.4552675E+03  0.7546771E-02  0.1026163E+00
         21   -1    0    0  502  501  0.00000000000E+00  0.00000000000E+00  0.90003042911E+02  0.90003042911E+02  0.00000000000E+00 0. -1.
         21   -1    0    0  501  502 -0.00000000000E+00 -0.00000000000E+00 -0.57572647273E+03  0.57572647273E+03  0.00000000000E+00 0. -1.
      99926    2    1    2    0    0  0.00000000000E+00 -0.44408920985E-15 -0.48572342982E+03  0.66572951564E+03  0.45526754521E+03 0.  0.
      99925    2    3    3    0    0 -0.80227509828E+02  0.37226693103E+01 -0.42204406173E+03  0.50401098974E+03  0.26354425840E+03 0.  0.
         25    1    3    3    0    0  0.80227509828E+02 -0.37226693103E+01 -0.63679368091E+02  0.16171852590E+03  0.12509000000E+03 0.  0.
         25    1    4    4    0    0 -0.17964515023E+02 -0.26316439238E+01 -0.13642260892E+03  0.18597926141E+03  0.12509000000E+03 0.  0.
         25    1    4    4    0    0 -0.62262994806E+02  0.63543132341E+01 -0.28562145281E+03  0.31803172833E+03  0.12509000000E+03 0.  0.
<mgrwt>
<rscale>  2 0.45526755E+03</rscale>
<asrwt>0</asrwt>
<pdfrwt beam="1">  1       21 0.13235742E-01 0.45526755E+03</pdfrwt>
<pdfrwt beam="2">  1       21 0.84665657E-01 0.45526755E+03</pdfrwt>
<totfact> 0.54687812E+04</totfact>
</mgrwt>
</event>
<event>
 7    0  0.4712189E-002  0.4544189E+03  0.7546771E-02  0.1026412E+00
         21   -1    0    0  502  501  0.00000000000E+00  0.00000000000E+00  0.16841207568E+03  0.16841207568E+03  0.00000000000E+00 0. -1.
         21   -1    0    0  501  502 -0.00000000000E+00 -0.00000000000E+00 -0.30653466998E+03  0.30653466998E+03  0.00000000000E+00 0. -1.
      99926    2    1    2    0    0  0.00000000000E+00 -0.71054273576E-14 -0.13812259431E+03  0.47494674566E+03  0.45441892583E+03 0.  0.
      99925    2    3    3    0    0  0.93181263676E+02 -0.45909754357E+02 -0.41647964054E+02  0.28588242902E+03  0.26306606939E+03 0.  0.
         25    1    4    4    0    0  0.53851155895E+01 -0.29140728033E+02 -0.10201030374E+02  0.12895639038E+03  0.12509000000E+03 0.  0.
         25    1    4    4    0    0  0.87796148087E+02 -0.16769026324E+02 -0.31446933680E+02  0.15692603863E+03  0.12509000000E+03 0.  0.
         25    1    3    3    0    0 -0.93181263676E+02  0.45909754357E+02 -0.96474630252E+02  0.18906431664E+03  0.12509000000E+03 0.  0.
<mgrwt>
<rscale>  2 0.45441893E+03</rscale>
<asrwt>0</asrwt>
<pdfrwt beam="1">  1       21 0.24766482E-01 0.45441893E+03</pdfrwt>
<pdfrwt beam="2">  1       21 0.45078628E-01 0.45441893E+03</pdfrwt>
<totfact> 0.67380002E+04</totfact>
</mgrwt>
</event>
<event>
 7    0  0.4712189E-002  0.4588879E+03  0.7546771E-02  0.1025104E+00
         21   -1    0    0  502  501  0.00000000000E+00  0.00000000000E+00  0.15573964427E+03  0.15573964427E+03  0.00000000000E+00 0.  1.
         21   -1    0    0  501  502 -0.00000000000E+00 -0.00000000000E+00 -0.33802908751E+03  0.33802908751E+03  0.00000000000E+00 0.  1.
      99926    2    1    2    0    0  0.00000000000E+00 -0.71054273576E-14 -0.18228944324E+03  0.49376873178E+03  0.45888791591E+03 0.  0.
      99925    2    3    3    0    0  0.10406792196E+03  0.45213050453E+02 -0.14416258438E+03  0.32063433953E+03  0.26296231030E+03 0.  0.
         25    1    4    4    0    0  0.93141655850E+02  0.38524502053E+02 -0.82023642678E+02  0.18037430907E+03  0.12509000000E+03 0.  0.
         25    1    3    3    0    0 -0.10406792196E+03 -0.45213050453E+02 -0.38126858867E+02  0.17313439225E+03  0.12509000000E+03 0.  0.
         25    1    4    4    0    0  0.10926266114E+02  0.66885484001E+01 -0.62138941698E+02  0.14026003047E+03  0.12509000000E+03 0.  0.
<mgrwt>
<rscale>  2 0.45888792E+03</rscale>
<asrwt>0</asrwt>
<pdfrwt beam="1">  1       21 0.22902889E-01 0.45888792E+03</pdfrwt>
<pdfrwt beam="2">  1       21 0.49710159E-01 0.45888792E+03</pdfrwt>
<totfact> 0.63721107E+04</totfact>
</mgrwt>
</event>
<event>
 7    0  0.4712189E-002  0.4525668E+03  0.7546771E-02  0.1026959E+00
         21   -1    0    0  502  501  0.00000000000E+00  0.00000000000E+00  0.14891737698E+04  0.14891737698E+04  0.00000000000E+00 0. -1.
         21   -1    0    0  501  502 -0.00000000000E+00 -0.00000000000E+00 -0.34384282989E+02  0.34384282989E+02  0.00000000000E+00 0. -1.
      99926    2    1    2    0    0  0.00000000000E+00  0.00000000000E+00  0.14547894868E+04  0.15235580528E+04  0.45256677881E+03 0.  0.
      99925    2    3    3    0    0  0.67977316050E+02  0.71557106604E+02  0.74588378552E+03  0.79696591381E+03  0.26281307287E+03 0.  0.
         25    1    3    3    0    0 -0.67977316050E+02 -0.71557106604E+02  0.70890570128E+03  0.72659213897E+03  0.12509000000E+03 0.  0.
         25    1    4    4    0    0 -0.20391317018E+01  0.19273483293E+02  0.38040083728E+03  0.40090888032E+03  0.12509000000E+03 0.  0.
         25    1    4    4    0    0  0.70016447751E+02  0.52283623311E+02  0.36548294825E+03  0.39605703349E+03  0.12509000000E+03 0.  0.
<mgrwt>
<rscale>  2 0.45256678E+03</rscale>
<asrwt>0</asrwt>
<pdfrwt beam="1">  1       21 0.21899610E+00 0.45256678E+03</pdfrwt>
<pdfrwt beam="2">  1       21 0.50565132E-02 0.45256678E+03</pdfrwt>
<totfact> 0.23651447E+04</totfact>
</mgrwt>
</event>
<event>
 7    0  0.4712189E-002  0.4523133E+03  0.7546771E-02  0.1027034E+00
         21   -1    0    0  502  501  0.00000000000E+00  0.00000000000E+00  0.33161946669E+03  0.33161946669E+03  0.00000000000E+00 0.  1.
         21   -1    0    0  501  502 -0.00000000000E+00 -0.00000000000E+00 -0.15423352704E+03  0.15423352704E+03  0.00000000000E+00 0.  1.
      99926    2    1    2    0    0  0.00000000000E+00 -0.14210854715E-13  0.17738593965E+03  0.48585299373E+03  0.45231334264E+03 0.  0.
      99925    2    3    3    0    0  0.72049083117E+02  0.73638090606E+02  0.68352503369E+02  0.29053418487E+03  0.26291521275E+03 0.  0.
         25    1    4    4    0    0 -0.57229626200E+01  0.30823303431E+02  0.29159603848E+02  0.13221429171E+03  0.12509000000E+03 0.  0.
         25    1    3    3    0    0 -0.72049083117E+02 -0.73638090606E+02  0.10903343628E+03  0.19531880886E+03  0.12509000000E+03 0.  0.
         25    1    4    4    0    0  0.77772045737E+02  0.42814787175E+02  0.39192899521E+02  0.15831989317E+03  0.12509000000E+03 0.  0.
<mgrwt>
<rscale>  2 0.45231334E+03</rscale>
<asrwt>0</asrwt>
<pdfrwt beam="1">  1       21 0.48767569E-01 0.45231334E+03</pdfrwt>
<pdfrwt beam="2">  1       21 0.22681401E-01 0.45231334E+03</pdfrwt>
<totfact> 0.67709086E+04</totfact>
</mgrwt>
</event>
<event>
 7    0  0.4712189E-002  0.4563576E+03  0.7546771E-02  0.1025843E+00
         21   -1    0    0  502  501  0.00000000000E+00  0.00000000000E+00  0.83713473738E+03  0.83713473738E+03  0.00000000000E+00 0. -1.
         21   -1    0    0  501  502 -0.00000000000E+00 -0.00000000000E+00 -0.62194962523E+02  0.62194962523E+02  0.00000000000E+00 0. -1.
      99926    2    1    2    0    0 -0.35527136788E-14  0.00000000000E+00  0.77493977486E+03  0.89932969990E+03  0.45635759495E+03 0.  0.
      99925    2    3    3    0    0  0.31040255288E+02 -0.10811983583E+03  0.44531692745E+03  0.52925926609E+03  0.26297301862E+03 0.  0.
         25    1    4    4    0    0 -0.96720117361E+00 -0.56338048411E+02  0.28957969343E+03  0.32043535717E+03  0.12509000000E+03 0.  0.
         25    1    4    4    0    0  0.32007456462E+02 -0.51781787419E+02  0.15573723401E+03  0.20882390892E+03  0.12509000000E+03 0.  0.
         25    1    3    3    0    0 -0.31040255288E+02  0.10811983583E+03  0.32962284741E+03  0.37007043381E+03  0.12509000000E+03 0.  0.
<mgrwt>
<rscale>  2 0.45635759E+03</rscale>
<asrwt>0</asrwt>
<pdfrwt beam="1">  1       21 0.12310804E+00 0.45635759E+03</pdfrwt>
<pdfrwt beam="2">  1       21 0.91463185E-02 0.45635759E+03</pdfrwt>
<totfact> 0.42805864E+04</totfact>
</mgrwt>
</event>
<event>
 7    0  0.4712189E-002  0.4508328E+03  0.7546771E-02  0.1027474E+00
         21   -1    0    0  502  501  0.00000000000E+00  0.00000000000E+00  0.94342969723E+02  0.94342969723E+02  0.00000000000E+00 0. -1.
         21   -1    0    0  501  502 -0.00000000000E+00 -0.00000000000E+00 -0.53859400393E+03  0.53859400393E+03  0.00000000000E+00 0. -1.
      99926    2    1    2    0    0  0.00000000000E+00  0.00000000000E+00 -0.44425103421E+03  0.63293697366E+03  0.45083281960E+03 0.  0.
      99925    2    3    3    0    0 -0.72395079786E+02  0.55210499504E+02 -0.36532877572E+03  0.45925485651E+03  0.26298414785E+03 0.  0.
         25    1    4    4    0    0 -0.64771015751E+02  0.21920295383E+02 -0.23858825691E+03  0.27793461149E+03  0.12509000000E+03 0.  0.
         25    1    4    4    0    0 -0.76240640346E+01  0.33290204121E+02 -0.12674051881E+03  0.18132024501E+03  0.12509000000E+03 0.  0.
         25    1    3    3    0    0  0.72395079786E+02 -0.55210499504E+02 -0.78922258491E+02  0.17368211715E+03  0.12509000000E+03 0.  0.
<mgrwt>
<rscale>  2 0.45083282E+03</rscale>
<asrwt>0</asrwt>
<pdfrwt beam="1">  1       21 0.13873966E-01 0.45083282E+03</pdfrwt>
<pdfrwt beam="2">  1       21 0.79205001E-01 0.45083282E+03</pdfrwt>
<totfact> 0.58599139E+04</totfact>
</mgrwt>
</event>
<event>
 7    0  0.4712189E-002  0.4649076E+03  0.7546771E-02  0.1023367E+00
         21   -1    0    0  502  501  0.00000000000E+00  0.00000000000E+00  0.22947869636E+03  0.22947869636E+03  0.00000000000E+00 0.  1.
         21   -1    0    0  501  502 -0.00000000000E+00 -0.00000000000E+00 -0.23546751482E+03  0.23546751482E+03  0.00000000000E+00 0.  1.
      99926    2    1    2    0    0  0.00000000000E+00  0.00000000000E+00 -0.59888184582E+01  0.46494621119E+03  0.46490763959E+03 0.  0.
      99925    2    3    3    0    0  0.67571846973E+02 -0.49160506650E+01  0.98146236976E+02  0.28864606959E+03  0.26285689566E+03 0.  0.
         25    1    4    4    0    0  0.75007179494E+02  0.30180759064E+01  0.52607953374E+02  0.15508156117E+03  0.12509000000E+03 0.  0.
         25    1    4    4    0    0 -0.74353325216E+01 -0.79341265714E+01  0.45538283602E+02  0.13356450841E+03  0.12509000000E+03 0.  0.
         25    1    3    3    0    0 -0.67571846973E+02  0.49160506650E+01 -0.10413505543E+03  0.17630014160E+03  0.12509000000E+03 0.  0.
<mgrwt>
<rscale>  2 0.46490764E+03</rscale>
<asrwt>0</asrwt>
<pdfrwt beam="1">  1       21 0.33746867E-01 0.46490764E+03</pdfrwt>
<pdfrwt beam="2">  1       21 0.34627576E-01 0.46490764E+03</pdfrwt>
<totfact> 0.62716702E+04</totfact>
</mgrwt>
</event>
<event>
 7    0  0.4712189E-002  0.4464113E+03  0.7546771E-02  0.1028798E+00
         21   -1    0    0  502  501  0.00000000000E+00  0.00000000000E+00  0.18290661610E+03  0.18290661610E+03  0.00000000000E+00 0. -1.
         21   -1    0    0  501  502 -0.00000000000E+00 -0.00000000000E+00 -0.27238361070E+03  0.27238361070E+03  0.00000000000E+00 0. -1.
      99926    2    1    2    0    0 -0.35527136788E-14 -0.14210854715E-13 -0.89476994596E+02  0.45529022680E+03  0.44641131041E+03 0.  0.
      99925    2    3    3    0    0 -0.17855204509E+02 -0.73232325318E+02 -0.13150192317E+03  0.30331856984E+03  0.26273107394E+03 0.  0.
         25    1    4    4    0    0  0.21602410714E+02 -0.61586751082E+02 -0.77674026391E+02  0.16106009603E+03  0.12509000000E+03 0.  0.
         25    1    3    3    0    0  0.17855204509E+02  0.73232325318E+02  0.42024928573E+02  0.15197165697E+03  0.12509000000E+03 0.  0.
         25    1    4    4    0    0 -0.39457615224E+02 -0.11645574236E+02 -0.53827896778E+02  0.14225847381E+03  0.12509000000E+03 0.  0.
<mgrwt>
<rscale>  2 0.44641131E+03</rscale>
<asrwt>0</asrwt>
<pdfrwt beam="1">  1       21 0.26898032E-01 0.44641131E+03</pdfrwt>
<pdfrwt beam="2">  1       21 0.40056413E-01 0.44641131E+03</pdfrwt>
<totfact> 0.73422102E+04</totfact>
</mgrwt>
</event>
<event>
 7    0  0.4712189E-002  0.4524298E+03  0.7546771E-02  0.1027000E+00
         21   -1    0    0  502  501  0.00000000000E+00  0.00000000000E+00  0.95028651098E+02  0.95028651098E+02  0.00000000000E+00 0. -1.
         21   -1    0    0  501  502 -0.00000000000E+00 -0.00000000000E+00 -0.53850259084E+03  0.53850259084E+03  0.00000000000E+00 0. -1.
      99926    2    1    2    0    0  0.17763568394E-14  0.00000000000E+00 -0.44347393974E+03  0.63353124193E+03  0.45242977276E+03 0.  0.
      99925    2    3    3    0    0  0.10636772138E+02 -0.42099019247E+02 -0.13704733252E+03  0.29971955542E+03  0.26299120177E+03 0.  0.
         25    1    4    4    0    0  0.19503101784E+02 -0.28864089884E+02 -0.11128893761E+03  0.17101532797E+03  0.12509000000E+03 0.  0.
         25    1    3    3    0    0 -0.10636772138E+02  0.42099019247E+02 -0.30642660721E+03  0.33381168651E+03  0.12509000000E+03 0.  0.
         25    1    4    4    0    0 -0.88663296451E+01 -0.13234929362E+02 -0.25758394909E+02  0.12870422746E+03  0.12509000000E+03 0.  0.
<mgrwt>
<rscale>  2 0.45242977E+03</rscale>
<asrwt>0</asrwt>
<pdfrwt beam="1">  1       21 0.13974802E-01 0.45242977E+03</pdfrwt>
<pdfrwt beam="2">  1       21 0.79191557E-01 0.45242977E+03</pdfrwt>
<totfact> 0.57824552E+04</totfact>
</mgrwt>
</event>
<event>
 7    0  0.4712189E-002  0.4770335E+03  0.7546771E-02  0.1019954E+00
         21   -1    0    0  502  501  0.00000000000E+00  0.00000000000E+00  0.24103132505E+03  0.24103132505E+03  0.00000000000E+00 0.  1.
         21   -1    0    0  501  502 -0.00000000000E+00 -0.00000000000E+00 -0.23602837931E+03  0.23602837931E+03  0.00000000000E+00 0.  1.
      99926    2    1    2    0    0  0.00000000000E+00  0.00000000000E+00  0.50029457378E+01  0.47705970437E+03  0.47703347059E+03 0.  0.
      99925    2    3    3    0    0 -0.60533485354E+01  0.49188130724E+02  0.12629795708E+03  0.29590754979E+03  0.26297146010E+03 0.  0.
         25    1    3    3    0    0  0.60533485354E+01 -0.49188130724E+02 -0.12129501134E+03  0.18115215458E+03  0.12509000000E+03 0.  0.
         25    1    4    4    0    0  0.28037957129E+02  0.14783222922E+02  0.88734444238E+02  0.15660772782E+03  0.12509000000E+03 0.  0.
         25    1    4    4    0    0 -0.34091305665E+02  0.34404907802E+02  0.37563512838E+02  0.13929982197E+03  0.12509000000E+03 0.  0.
<mgrwt>
<rscale>  2 0.47703347E+03</rscale>
<asrwt>0</asrwt>
<pdfrwt beam="1">  1       21 0.35445783E-01 0.47703347E+03</pdfrwt>
<pdfrwt beam="2">  1       21 0.34710056E-01 0.47703347E+03</pdfrwt>
<totfact> 0.56376564E+04</totfact>
</mgrwt>
</event>
<event>
 7    0  0.4712189E-002  0.4593886E+03  0.7546771E-02  0.1024959E+00
         21   -1    0    0  502  501  0.00000000000E+00  0.00000000000E+00  0.45805720812E+03  0.45805720812E+03  0.00000000000E+00 0.  1.
         21   -1    0    0  501  502 -0.00000000000E+00 -0.00000000000E+00 -0.11518094562E+03  0.11518094562E+03  0.00000000000E+00 0.  1.
      99926    2    1    2    0    0  0.00000000000E+00  0.00000000000E+00  0.34287626250E+03  0.57323815374E+03  0.45938856050E+03 0.  0.
      99925    2    3    3    0    0 -0.10141551003E+03  0.45844012911E+02  0.26092841993E+03  0.38682534250E+03  0.26298940298E+03 0.  0.
         25    1    4    4    0    0 -0.89886070342E+02  0.84070048300E+01  0.13339775483E+03  0.20394276762E+03  0.12509000000E+03 0.  0.
         25    1    3    3    0    0  0.10141551003E+03 -0.45844012911E+02  0.81947842571E+02  0.18641281124E+03  0.12509000000E+03 0.  0.
         25    1    4    4    0    0 -0.11529439684E+02  0.37437008081E+02  0.12753066510E+03  0.18288257488E+03  0.12509000000E+03 0.  0.
<mgrwt>
<rscale>  2 0.45938856E+03</rscale>
<asrwt>0</asrwt>
<pdfrwt beam="1">  1       21 0.67361354E-01 0.45938856E+03</pdfrwt>
<pdfrwt beam="2">  1       21 0.16938375E-01 0.45938856E+03</pdfrwt>
<totfact> 0.58306706E+04</totfact>
</mgrwt>
</event>
<event>
 7    0  0.4712189E-002  0.4778806E+03  0.7546771E-02  0.1019719E+00
         21   -1    0    0  502  501  0.00000000000E+00  0.00000000000E+00  0.85409036548E+03  0.85409036548E+03  0.00000000000E+00 0.  1.
         21   -1    0    0  501  502 -0.00000000000E+00 -0.00000000000E+00 -0.66845930922E+02  0.66845930922E+02  0.00000000000E+00 0.  1.
      99926    2    1    2    0    0  0.00000000000E+00  0.00000000000E+00  0.78724443456E+03  0.92093629640E+03  0.47788059418E+03 0.  0.
      99925    2    3    3    0    0  0.76694598762E+02 -0.13503435253E+02  0.27714756172E+03  0.38998363183E+03  0.26308184635E+03 0.  0.
         25    1    4    4    0    0  0.77901741529E+02 -0.20163008521E+02  0.14052330132E+03  0.20462046467E+03  0.12509000000E+03 0.  0.
         25    1    3    3    0    0 -0.76694598762E+02  0.13503435253E+02  0.51009687284E+03  0.53095266458E+03  0.12509000000E+03 0.  0.
         25    1    4    4    0    0 -0.12071427670E+01  0.66595732677E+01  0.13662426040E+03  0.18536316716E+03  0.12509000000E+03 0.  0.
<mgrwt>
<rscale>  2 0.47788059E+03</rscale>
<asrwt>0</asrwt>
<pdfrwt beam="1">  1       21 0.12560152E+00 0.47788059E+03</pdfrwt>
<pdfrwt beam="2">  1       21 0.98302845E-02 0.47788059E+03</pdfrwt>
<totfact> 0.35535960E+04</totfact>
</mgrwt>
</event>
<event>
 7    0  0.4712189E-002  0.4511559E+03  0.7546771E-02  0.1027378E+00
         21   -1    0    0  502  501  0.00000000000E+00  0.00000000000E+00  0.51846969440E+03  0.51846969440E+03  0.00000000000E+00 0.  1.
         21   -1    0    0  501  502 -0.00000000000E+00 -0.00000000000E+00 -0.98145372694E+02  0.98145372694E+02  0.00000000000E+00 0.  1.
      99926    2    1    2    0    0  0.00000000000E+00  0.00000000000E+00  0.42032432171E+03  0.61661506710E+03  0.45115585506E+03 0.  0.
      99925    2    3    3    0    0 -0.43628737800E+02  0.97487482794E+02  0.29521889601E+03  0.40996039935E+03  0.26364001291E+03 0.  0.
         25    1    3    3    0    0  0.43628737800E+02 -0.97487482794E+02  0.12510542569E+03  0.20665466775E+03  0.12509000000E+03 0.  0.
         25    1    4    4    0    0 -0.11776681148E+02  0.83888573783E+01  0.10951863448E+03  0.16688589678E+03  0.12509000000E+03 0.  0.
         25    1    4    4    0    0 -0.31852056652E+02  0.89098625415E+02  0.18570026153E+03  0.24307450257E+03  0.12509000000E+03 0.  0.
<mgrwt>
<rscale>  2 0.45115586E+03</rscale>
<asrwt>0</asrwt>
<pdfrwt beam="1">  1       21 0.76245542E-01 0.45115586E+03</pdfrwt>
<pdfrwt beam="2">  1       21 0.14433143E-01 0.45115586E+03</pdfrwt>
<totfact> 0.59451414E+04</totfact>
</mgrwt>
</event>
<event>
 7    0  0.4712189E-002  0.4608791E+03  0.7546771E-02  0.1024527E+00
         21   -1    0    0  502  501  0.00000000000E+00  0.00000000000E+00  0.10235255812E+03  0.10235255812E+03  0.00000000000E+00 0.  1.
         21   -1    0    0  501  502 -0.00000000000E+00 -0.00000000000E+00 -0.51881842834E+03  0.51881842834E+03  0.00000000000E+00 0.  1.
      99926    2    1    2    0    0  0.00000000000E+00 -0.17763568394E-14 -0.41646587022E+03  0.62117098646E+03  0.46087913096E+03 0.  0.
      99925    2    3    3    0    0 -0.51526198751E+02  0.89993529050E+01 -0.11747989394E+03  0.29287834318E+03  0.26313544215E+03 0.  0.
         25    1    3    3    0    0  0.51526198751E+02 -0.89993529050E+01 -0.29898597629E+03  0.32829264327E+03  0.12509000000E+03 0.  0.
         25    1    4    4    0    0 -0.35117488427E+02 -0.10924036489E+02 -0.19356219723E+02  0.13181329185E+03  0.12509000000E+03 0.  0.
         25    1    4    4    0    0 -0.16408710323E+02  0.19923389394E+02 -0.98123674217E+02  0.16106505133E+03  0.12509000000E+03 0.  0.
<mgrwt>
<rscale>  2 0.46087913E+03</rscale>
<asrwt>0</asrwt>
<pdfrwt beam="1">  1       21 0.15051847E-01 0.46087913E+03</pdfrwt>
<pdfrwt beam="2">  1       21 0.76296827E-01 0.46087913E+03</pdfrwt>
<totfact> 0.54804741E+04</totfact>
</mgrwt>
</event>
<event>
 7    0  0.4712189E-002  0.4372502E+03  0.7546771E-02  0.1031594E+00
         21   -1    0    0  502  501  0.00000000000E+00  0.00000000000E+00  0.97387077799E+02  0.97387077799E+02  0.00000000000E+00 0. -1.
         21   -1    0    0  501  502 -0.00000000000E+00 -0.00000000000E+00 -0.49079341831E+03  0.49079341831E+03  0.00000000000E+00 0. -1.
      99926    2    1    2    0    0  0.26645352591E-14  0.00000000000E+00 -0.39340634051E+03  0.58818049611E+03  0.43725021126E+03 0.  0.
      99925    2    3    3    0    0  0.38393065378E+01  0.19172683851E+02 -0.12594199400E+03  0.29226324951E+03  0.26300967488E+03 0.  0.
         25    1    4    4    0    0  0.22845409094E+02  0.43140046849E+02 -0.53779693453E+02  0.14464694911E+03  0.12509000000E+03 0.  0.
         25    1    3    3    0    0 -0.38393065378E+01 -0.19172683851E+02 -0.26746434651E+03  0.29591724660E+03  0.12509000000E+03 0.  0.
         25    1    4    4    0    0 -0.19006102557E+02 -0.23967362998E+02 -0.72162300547E+02  0.14761630040E+03  0.12509000000E+03 0.  0.
<mgrwt>
<rscale>  2 0.43725021E+03</rscale>
<asrwt>0</asrwt>
<pdfrwt beam="1">  1       21 0.14321630E-01 0.43725021E+03</pdfrwt>
<pdfrwt beam="2">  1       21 0.72175501E-01 0.43725021E+03</pdfrwt>
<totfact> 0.68531367E+04</totfact>
</mgrwt>
</event>
<event>
 7    0  0.4712189E-002  0.4612004E+03  0.7546771E-02  0.1024434E+00
         21   -1    0    0  502  501  0.00000000000E+00  0.00000000000E+00  0.29098122813E+03  0.29098122813E+03  0.00000000000E+00 0. -1.
         21   -1    0    0  501  502 -0.00000000000E+00 -0.00000000000E+00 -0.18274877631E+03  0.18274877631E+03  0.00000000000E+00 0. -1.
      99926    2    1    2    0    0  0.00000000000E+00  0.00000000000E+00  0.10823245183E+03  0.47373000444E+03  0.46120044827E+03 0.  0.
      99925    2    3    3    0    0 -0.43700902073E+02  0.72832439537E+02  0.15334704455E+03  0.31594164091E+03  0.26284876126E+03 0.  0.
         25    1    3    3    0    0  0.43700902073E+02 -0.72832439537E+02 -0.45114592720E+02  0.15778836354E+03  0.12509000000E+03 0.  0.
         25    1    4    4    0    0 -0.30010378005E+02 -0.24478781700E+00  0.91312276584E+02  0.15775336023E+03  0.12509000000E+03 0.  0.
         25    1    4    4    0    0 -0.13690524068E+02  0.73077227354E+02  0.62034767964E+02  0.15818828068E+03  0.12509000000E+03 0.  0.
<mgrwt>
<rscale>  2 0.46120045E+03</rscale>
<asrwt>0</asrwt>
<pdfrwt beam="1">  1       21 0.42791357E-01 0.46120045E+03</pdfrwt>
<pdfrwt beam="2">  1       21 0.26874820E-01 0.46120045E+03</pdfrwt>
<totfact> 0.63955266E+04</totfact>
</mgrwt>
</event>
<event>
 7    0  0.4712189E-002  0.4532315E+03  0.7546771E-02  0.1026763E+00
         21   -1    0    0  502  501  0.00000000000E+00  0.00000000000E+00  0.13540819320E+04  0.13540819320E+04  0.00000000000E+00 0. -1.
         21   -1    0    0  501  502 -0.00000000000E+00 -0.00000000000E+00 -0.37925838261E+02  0.37925838261E+02  0.00000000000E+00 0. -1.
      99926    2    1    2    0    0  0.00000000000E+00  0.00000000000E+00  0.13161560938E+04  0.13920077703E+04  0.45323147440E+03 0.  0.
      99925    2    3    3    0    0 -0.38264522820E+02  0.10485385980E+03  0.83132020084E+03  0.87900498590E+03  0.26286495257E+03 0.  0.
         25    1    3    3    0    0  0.38264522820E+02 -0.10485385980E+03  0.48483589291E+03  0.51300278438E+03  0.12509000000E+03 0.  0.
         25    1    4    4    0    0 -0.10541091676E+02  0.86129642133E+02  0.52007166097E+03  0.54189618057E+03  0.12509000000E+03 0.  0.
         25    1    4    4    0    0 -0.27723431144E+02  0.18724217668E+02  0.31124853987E+03  0.33710880534E+03  0.12509000000E+03 0.  0.
<mgrwt>
<rscale>  2 0.45323147E+03</rscale>
<asrwt>0</asrwt>
<pdfrwt beam="1">  1       21 0.19912966E+00 0.45323147E+03</pdfrwt>
<pdfrwt beam="2">  1       21 0.55773300E-02 0.45323147E+03</pdfrwt>
<totfact> 0.26913772E+04</totfact>
</mgrwt>
</event>
<event>
 7    0  0.4712189E-002  0.4504746E+03  0.7546771E-02  0.1027581E+00
         21   -1    0    0  502  501  0.00000000000E+00  0.00000000000E+00  0.54709616150E+02  0.54709616150E+02  0.00000000000E+00 0.  1.
         21   -1    0    0  501  502 -0.00000000000E+00 -0.00000000000E+00 -0.92729292413E+03  0.92729292413E+03  0.00000000000E+00 0.  1.
      99926    2    1    2    0    0  0.14210854715E-13  0.71054273576E-14 -0.87258330798E+03  0.98200254028E+03  0.45047459390E+03 0.  0.
      99925    2    3    3    0    0 -0.65721495181E+02 -0.41500428785E+02 -0.71752068316E+03  0.76814855684E+03  0.26301078703E+03 0.  0.
         25    1    4    4    0    0  0.14031121801E+01  0.11056388157E+01 -0.36020706976E+03  0.38131329948E+03  0.12509000000E+03 0.  0.
         25    1    3    3    0    0  0.65721495181E+02  0.41500428785E+02 -0.15506262483E+03  0.21385398345E+03  0.12509000000E+03 0.  0.
         25    1    4    4    0    0 -0.67124607361E+02 -0.42606067601E+02 -0.35731361340E+03  0.38683525735E+03  0.12509000000E+03 0.  0.
<mgrwt>
<rscale>  2 0.45047459E+03</rscale>
<asrwt>0</asrwt>
<pdfrwt beam="1">  1       21 0.80455329E-02 0.45047459E+03</pdfrwt>
<pdfrwt beam="2">  1       21 0.13636659E+00 0.45047459E+03</pdfrwt>
<totfact> 0.41313350E+04</totfact>
</mgrwt>
</event>
<event>
 7    0  0.4712189E-002  0.4567416E+03  0.7546771E-02  0.1025730E+00
         21   -1    0    0  502  501  0.00000000000E+00  0.00000000000E+00  0.29539557144E+03  0.29539557144E+03  0.00000000000E+00 0. -1.
         21   -1    0    0  501  502 -0.00000000000E+00 -0.00000000000E+00 -0.17655385563E+03  0.17655385563E+03  0.00000000000E+00 0. -1.
      99926    2    1    2    0    0  0.00000000000E+00  0.00000000000E+00  0.11884171582E+03  0.47194942707E+03  0.45674162094E+03 0.  0.
      99925    2    3    3    0    0 -0.10733110638E+02  0.10936463788E+03  0.44115469295E+02  0.28944643066E+03  0.26411595542E+03 0.  0.
         25    1    3    3    0    0  0.10733110638E+02 -0.10936463788E+03  0.74726246521E+02  0.18250299642E+03  0.12509000000E+03 0.  0.
         25    1    4    4    0    0 -0.15607166049E+02  0.32135718147E+02 -0.14934115595E+02  0.13094588165E+03  0.12509000000E+03 0.  0.
         25    1    4    4    0    0  0.48740554107E+01  0.77228919732E+02  0.59049584890E+02  0.15850054900E+03  0.12509000000E+03 0.  0.
<mgrwt>
<rscale>  2 0.45674162E+03</rscale>
<asrwt>0</asrwt>
<pdfrwt beam="1">  1       21 0.43440525E-01 0.45674162E+03</pdfrwt>
<pdfrwt beam="2">  1       21 0.25963802E-01 0.45674162E+03</pdfrwt>
<totfact> 0.66369244E+04</totfact>
</mgrwt>
</event>
<event>
 7    0  0.4712189E-002  0.4480213E+03  0.7546771E-02  0.1028314E+00
         21   -1    0    0  502  501  0.00000000000E+00  0.00000000000E+00  0.32083705295E+03  0.32083705295E+03  0.00000000000E+00 0. -1.
         21   -1    0    0  501  502 -0.00000000000E+00 -0.00000000000E+00 -0.15640579334E+03  0.15640579334E+03  0.00000000000E+00 0. -1.
      99926    2    1    2    0    0  0.17763568394E-14 -0.14210854715E-13  0.16443125961E+03  0.47724284629E+03  0.44802131110E+03 0.  0.
      99925    2    3    3    0    0  0.89795609215E+01 -0.86797970663E+02  0.39134303380E+02  0.27985653581E+03  0.26300887192E+03 0.  0.
         25    1    4    4    0    0 -0.27177780361E+02 -0.55026841886E+02 -0.29757629071E+01  0.13936623816E+03  0.12509000000E+03 0.  0.
         25    1    4    4    0    0  0.36157341282E+02 -0.31771128778E+02  0.42110066288E+02  0.14049029765E+03  0.12509000000E+03 0.  0.
         25    1    3    3    0    0 -0.89795609215E+01  0.86797970663E+02  0.12529695623E+03  0.19738631048E+03  0.12509000000E+03 0.  0.
<mgrwt>
<rscale>  2 0.44802131E+03</rscale>
<asrwt>0</asrwt>
<pdfrwt beam="1">  1       21 0.47181920E-01 0.44802131E+03</pdfrwt>
<pdfrwt beam="2">  1       21 0.23000852E-01 0.44802131E+03</pdfrwt>
<totfact> 0.70739481E+04</totfact>
</mgrwt>
</event>
<event>
 7    0  0.4712189E-002  0.4226497E+03  0.7546771E-02  0.1036207E+00
         21   -1    0    0  502  501  0.00000000000E+00  0.00000000000E+00  0.11456260432E+03  0.11456260432E+03  0.00000000000E+00 0.  1.
         21   -1    0    0  501  502 -0.00000000000E+00 -0.00000000000E+00 -0.38981472272E+03  0.38981472272E+03  0.00000000000E+00 0.  1.
      99926    2    1    2    0    0 -0.71054273576E-14  0.00000000000E+00 -0.27525211840E+03  0.50437732704E+03  0.42264968869E+03 0.  0.
      99925    2    3    3    0    0  0.61237165840E+02 -0.26435887207E+02 -0.22937943392E+03  0.35537847505E+03  0.26311611356E+03 0.  0.
         25    1    3    3    0    0 -0.61237165840E+02  0.26435887207E+02 -0.45872684483E+02  0.14899885199E+03  0.12509000000E+03 0.  0.
         25    1    4    4    0    0  0.35262475923E+02 -0.52008286731E+02 -0.10236052716E+03  0.17341709753E+03  0.12509000000E+03 0.  0.
         25    1    4    4    0    0  0.25974689918E+02  0.25572399524E+02 -0.12701890676E+03  0.18196137752E+03  0.12509000000E+03 0.  0.
<mgrwt>
<rscale>  2 0.42264969E+03</rscale>
<asrwt>0</asrwt>
<pdfrwt beam="1">  1       21 0.16847442E-01 0.42264969E+03</pdfrwt>
<pdfrwt beam="2">  1       21 0.57325694E-01 0.42264969E+03</pdfrwt>
<totfact> 0.84689198E+04</totfact>
</mgrwt>
</event>
<event>
 7    0  0.4712189E-002  0.4520441E+03  0.7546771E-02  0.1027114E+00
         21   -1    0    0  502  501  0.00000000000E+00  0.00000000000E+00  0.72052634104E+03  0.72052634104E+03  0.00000000000E+00 0.  1.
         21   -1    0    0  501  502 -0.00000000000E+00 -0.00000000000E+00 -0.70900904558E+02  0.70900904558E+02  0.00000000000E+00 0.  1.
      99926    2    1    2    0    0 -0.14210854715E-13  0.00000000000E+00  0.64962543648E+03  0.79142724560E+03  0.45204410996E+03 0.  0.
      99925    2    3    3    0    0 -0.99388012736E+02  0.12327182628E+02  0.32741142168E+03  0.43156711173E+03  0.26272037679E+03 0.  0.
         25    1    3    3    0    0  0.99388012736E+02 -0.12327182628E+02  0.32221401481E+03  0.35986013387E+03  0.12509000000E+03 0.  0.
         25    1    4    4    0    0 -0.81100354606E+02  0.27178789581E+02  0.15005421999E+03  0.21325977388E+03  0.12509000000E+03 0.  0.
         25    1    4    4    0    0 -0.18287658130E+02 -0.14851606953E+02  0.17735720169E+03  0.21830733785E+03  0.12509000000E+03 0.  0.
<mgrwt>
<rscale>  2 0.45204411E+03</rscale>
<asrwt>0</asrwt>
<pdfrwt beam="1">  1       21 0.10595975E+00 0.45204411E+03</pdfrwt>
<pdfrwt beam="2">  1       21 0.10426604E-01 0.45204411E+03</pdfrwt>
<totfact> 0.49316449E+04</totfact>
</mgrwt>
</event>
<event>
 7    0  0.4712189E-002  0.4518951E+03  0.7546771E-02  0.1027158E+00
         21   -1    0    0  502  501  0.00000000000E+00  0.00000000000E+00  0.85525886856E+03  0.85525886856E+03  0.00000000000E+00 0.  1.
         21   -1    0    0  501  502 -0.00000000000E+00 -0.00000000000E+00 -0.59692205154E+02  0.59692205154E+02  0.00000000000E+00 0.  1.
      99926    2    1    2    0    0 -0.71054273576E-14  0.00000000000E+00  0.79556666341E+03  0.91495107372E+03  0.45189506677E+03 0.  0.
      99925    2    3    3    0    0 -0.62663695565E+02 -0.77878164109E+02  0.40702650307E+03  0.49470981981E+03  0.26282215362E+03 0.  0.
         25    1    4    4    0    0 -0.26401690494E+02  0.29898659091E+01  0.18647418441E+03  0.22611085359E+03  0.12509000000E+03 0.  0.
         25    1    3    3    0    0  0.62663695565E+02  0.77878164109E+02  0.38854016034E+03  0.42024125391E+03  0.12509000000E+03 0.  0.
         25    1    4    4    0    0 -0.36262005071E+02 -0.80868030018E+02  0.22055231866E+03  0.26859896622E+03  0.12509000000E+03 0.  0.
<mgrwt>
<rscale>  2 0.45189507E+03</rscale>
<asrwt>0</asrwt>
<pdfrwt beam="1">  1       21 0.12577336E+00 0.45189507E+03</pdfrwt>
<pdfrwt beam="2">  1       21 0.87782660E-02 0.45189507E+03</pdfrwt>
<totfact> 0.43644182E+04</totfact>
</mgrwt>
</event>
<event>
 7    0  0.4712189E-002  0.4558775E+03  0.7546771E-02  0.1025984E+00
         21   -1    0    0  502  501  0.00000000000E+00  0.00000000000E+00  0.72285182341E+03  0.72285182341E+03  0.00000000000E+00 0.  1.
         21   -1    0    0  501  502 -0.00000000000E+00 -0.00000000000E+00 -0.71876518729E+02  0.71876518729E+02  0.00000000000E+00 0.  1.
      99926    2    1    2    0    0  0.00000000000E+00  0.14210854715E-13  0.65097530468E+03  0.79472834214E+03  0.45587749505E+03 0.  0.
      99925    2    3    3    0    0  0.10599667380E+02  0.10825750946E+03  0.34848402675E+03  0.44979280812E+03  0.26275542247E+03 0.  0.
         25    1    3    3    0    0 -0.10599667380E+02 -0.10825750946E+03  0.30249127793E+03  0.34493553401E+03  0.12509000000E+03 0.  0.
         25    1    4    4    0    0 -0.20841991518E+02  0.86657221780E+02  0.18645209398E+03  0.24156935681E+03  0.12509000000E+03 0.  0.
         25    1    4    4    0    0  0.31441658898E+02  0.21600287677E+02  0.16203193277E+03  0.20822345132E+03  0.12509000000E+03 0.  0.
<mgrwt>
<rscale>  2 0.45587750E+03</rscale>
<asrwt>0</asrwt>
<pdfrwt beam="1">  1       21 0.10630173E+00 0.45587750E+03</pdfrwt>
<pdfrwt beam="2">  1       21 0.10570077E-01 0.45587750E+03</pdfrwt>
<totfact> 0.47691572E+04</totfact>
</mgrwt>
</event>
<event>
 7    0  0.4712189E-002  0.4554262E+03  0.7546771E-02  0.1026116E+00
         21   -1    0    0  502  501  0.00000000000E+00  0.00000000000E+00  0.13546994873E+03  0.13546994873E+03  0.00000000000E+00 0.  1.
         21   -1    0    0  501  502 -0.00000000000E+00 -0.00000000000E+00 -0.38276572062E+03  0.38276572062E+03  0.00000000000E+00 0.  1.
      99926    2    1    2    0    0  0.00000000000E+00  0.00000000000E+00 -0.24729577189E+03  0.51823566935E+03  0.45542618523E+03 0.  0.
      99925    2    3    3    0    0 -0.56389870831E+02 -0.98588004858E+02 -0.15558779803E+03  0.32599292488E+03  0.26299127731E+03 0.  0.
         25    1    4    4    0    0 -0.17221399404E+02 -0.56343522010E+02 -0.12162162329E+03  0.18414802856E+03  0.12509000000E+03 0.  0.
         25    1    4    4    0    0 -0.39168471427E+02 -0.42244482848E+02 -0.33966174737E+02  0.14184489632E+03  0.12509000000E+03 0.  0.
         25    1    3    3    0    0  0.56389870831E+02  0.98588004858E+02 -0.91707973858E+02  0.19224274448E+03  0.12509000000E+03 0.  0.
<mgrwt>
<rscale>  2 0.45542619E+03</rscale>
<asrwt>0</asrwt>
<pdfrwt beam="1">  1       21 0.19922051E-01 0.45542619E+03</pdfrwt>
<pdfrwt beam="2">  1       21 0.56289078E-01 0.45542619E+03</pdfrwt>
<totfact> 0.63791655E+04</totfact>
</mgrwt>
</event>
<event>
 7    0  0.4712189E-002  0.4580280E+03  0.7546771E-02  0.1025355E+00
         21   -1    0    0  502  501  0.00000000000E+00  0.00000000000E+00  0.77197824846E+03  0.77197824846E+03  0.00000000000E+00 0. -1.
         21   -1    0    0  501  502 -0.00000000000E+00 -0.00000000000E+00 -0.67938974259E+02  0.67938974259E+02  0.00000000000E+00 0. -1.
      99926    2    1    2    0    0  0.00000000000E+00  0.00000000000E+00  0.70403927420E+03  0.83991722272E+03  0.45802799194E+03 0.  0.
      99925    2    3    3    0    0 -0.71509466259E+02  0.44195574071E+02  0.29568944869E+03  0.40464266496E+03  0.26312845477E+03 0.  0.
         25    1    4    4    0    0 -0.35403079811E+02  0.23010164170E+02  0.88207812002E+02  0.15877963318E+03  0.12509000000E+03 0.  0.
         25    1    4    4    0    0 -0.36106386447E+02  0.21185409901E+02  0.20748163669E+03  0.24586303178E+03  0.12509000000E+03 0.  0.
         25    1    3    3    0    0  0.71509466259E+02 -0.44195574071E+02  0.40834982551E+03  0.43527455775E+03  0.12509000000E+03 0.  0.
<mgrwt>
<rscale>  2 0.45802799E+03</rscale>
<asrwt>0</asrwt>
<pdfrwt beam="1">  1       21 0.11352621E+00 0.45802799E+03</pdfrwt>
<pdfrwt beam="2">  1       21 0.99910261E-02 0.45802799E+03</pdfrwt>
<totfact> 0.44819587E+04</totfact>
</mgrwt>
</event>
<event>
 7    0  0.4712189E-002  0.4500746E+03  0.7546771E-02  0.1027700E+00
         21   -1    0    0  502  501  0.00000000000E+00  0.00000000000E+00  0.29985982135E+03  0.29985982135E+03  0.00000000000E+00 0. -1.
         21   -1    0    0  501  502 -0.00000000000E+00 -0.00000000000E+00 -0.16888483880E+03  0.16888483880E+03  0.00000000000E+00 0. -1.
      99926    2    1    2    0    0  0.00000000000E+00 -0.14210854715E-13  0.13097498255E+03  0.46874466015E+03  0.45007456089E+03 0.  0.
      99925    2    3    3    0    0  0.28736265650E+02 -0.10287758128E+03  0.63579377899E+02  0.29098289452E+03  0.26309530196E+03 0.  0.
         25    1    4    4    0    0  0.10346247122E+02 -0.71531794856E+02 -0.34003206977E+01  0.14450921350E+03  0.12509000000E+03 0.  0.
         25    1    3    3    0    0 -0.28736265650E+02  0.10287758128E+03  0.67395604649E+02  0.17776176563E+03  0.12509000000E+03 0.  0.
         25    1    4    4    0    0  0.18390018528E+02 -0.31345786422E+02  0.66979698596E+02  0.14647368102E+03  0.12509000000E+03 0.  0.
<mgrwt>
<rscale>  2 0.45007456E+03</rscale>
<asrwt>0</asrwt>
<pdfrwt beam="1">  1       21 0.44097033E-01 0.45007456E+03</pdfrwt>
<pdfrwt beam="2">  1       21 0.24836006E-01 0.45007456E+03</pdfrwt>
<totfact> 0.70233934E+04</totfact>
</mgrwt>
</event>
<event>
 7    0  0.4712189E-002  0.4613535E+03  0.7546771E-02  0.1024389E+00
         21   -1    0    0  502  501  0.00000000000E+00  0.00000000000E+00  0.14886528954E+04  0.14886528954E+04  0.00000000000E+00 0. -1.
         21   -1    0    0  501  502 -0.00000000000E+00 -0.00000000000E+00 -0.35744910312E+02  0.35744910312E+02  0.00000000000E+00 0. -1.
      99926    2    1    2    0    0  0.00000000000E+00  0.00000000000E+00  0.14529079851E+04  0.15243978057E+04  0.46135350538E+03 0.  0.
      99925    2    3    3    0    0 -0.69639040050E+02  0.96019556476E+02  0.87845944094E+03  0.92464119749E+03  0.26306083632E+03 0.  0.
         25    1    3    3    0    0  0.69639040050E+02 -0.96019556476E+02  0.57444854412E+03  0.59975660819E+03  0.12509000000E+03 0.  0.
         25    1    4    4    0    0 -0.32265842828E+01  0.28444020302E+02  0.46578542084E+03  0.48313873733E+03  0.12509000000E+03 0.  0.
         25    1    4    4    0    0 -0.66412455767E+02  0.67575536174E+02  0.41267402009E+03  0.44150246016E+03  0.12509000000E+03 0.  0.
<mgrwt>
<rscale>  2 0.46135351E+03</rscale>
<asrwt>0</asrwt>
<pdfrwt beam="1">  1       21 0.21891950E+00 0.46135351E+03</pdfrwt>
<pdfrwt beam="2">  1       21 0.52566054E-02 0.46135351E+03</pdfrwt>
<totfact> 0.22077753E+04</totfact>
</mgrwt>
</event>
<event>
 7    0  0.4712189E-002  0.4561861E+03  0.7546771E-02  0.1025893E+00
         21   -1    0    0  502  501  0.00000000000E+00  0.00000000000E+00  0.37254676438E+03  0.37254676438E+03  0.00000000000E+00 0.  1.
         21   -1    0    0  501  502 -0.00000000000E+00 -0.00000000000E+00 -0.13965075149E+03  0.13965075149E+03  0.00000000000E+00 0.  1.
      99926    2    1    2    0    0 -0.17763568394E-14  0.00000000000E+00  0.23289601288E+03  0.51219751587E+03  0.45618608313E+03 0.  0.
      99925    2    3    3    0    0  0.15475024362E+02 -0.93905543564E+02  0.21733193938E+03  0.35424981574E+03  0.26306279210E+03 0.  0.
         25    1    4    4    0    0  0.35977417062E+02 -0.44850105240E+02  0.72372750219E+02  0.15553530002E+03  0.12509000000E+03 0.  0.
         25    1    4    4    0    0 -0.20502392700E+02 -0.49055438324E+02  0.14495918916E+03  0.19871451572E+03  0.12509000000E+03 0.  0.
         25    1    3    3    0    0 -0.15475024362E+02  0.93905543564E+02  0.15564073501E+02  0.15794770013E+03  0.12509000000E+03 0.  0.
<mgrwt>
<rscale>  2 0.45618608E+03</rscale>
<asrwt>0</asrwt>
<pdfrwt beam="1">  1       21 0.54786289E-01 0.45618608E+03</pdfrwt>
<pdfrwt beam="2">  1       21 0.20536875E-01 0.45618608E+03</pdfrwt>
<totfact> 0.63819137E+04</totfact>
</mgrwt>
</event>
<event>
 7    0  0.4712189E-002  0.4110502E+03  0.7546771E-02  0.1040019E+00
         21   -1    0    0  502  501  0.00000000000E+00  0.00000000000E+00  0.21068831545E+03  0.21068831545E+03  0.00000000000E+00 0.  1.
         21   -1    0    0  501  502 -0.00000000000E+00 -0.00000000000E+00 -0.20048842075E+03  0.20048842075E+03  0.00000000000E+00 0.  1.
      99926    2    1    2    0    0  0.35527136788E-14  0.00000000000E+00  0.10199894700E+02  0.41117673621E+03  0.41105020441E+03 0.  0.
      99925    2    3    3    0    0 -0.24171722268E+02 -0.38707510076E+02 -0.37985649157E+02  0.26957201090E+03  0.26295173706E+03 0.  0.
         25    1    3    3    0    0  0.24171722268E+02  0.38707510076E+02  0.48185543857E+02  0.14160472531E+03  0.12509000000E+03 0.  0.
         25    1    4    4    0    0 -0.50872059572E+02 -0.22000729716E+02 -0.31592629969E+02  0.14041937516E+03  0.12509000000E+03 0.  0.
         25    1    4    4    0    0  0.26700337304E+02 -0.16706780360E+02 -0.63930191878E+01  0.12915263573E+03  0.12509000000E+03 0.  0.
<mgrwt>
<rscale>  2 0.41105020E+03</rscale>
<asrwt>0</asrwt>
<pdfrwt beam="1">  1       21 0.30983576E-01 0.41105020E+03</pdfrwt>
<pdfrwt beam="2">  1       21 0.29483591E-01 0.41105020E+03</pdfrwt>
<totfact> 0.10377231E+05</totfact>
</mgrwt>
</event>
<event>
 7    0  0.4712189E-002  0.4415680E+03  0.7546771E-02  0.1030267E+00
         21   -1    0    0  502  501  0.00000000000E+00  0.00000000000E+00  0.16510817290E+03  0.16510817290E+03  0.00000000000E+00 0.  1.
         21   -1    0    0  501  502 -0.00000000000E+00 -0.00000000000E+00 -0.29523422369E+03  0.29523422369E+03  0.00000000000E+00 0.  1.
      99926    2    1    2    0    0  0.00000000000E+00  0.00000000000E+00 -0.13012605079E+03  0.46034239659E+03  0.44156803893E+03 0.  0.
      99925    2    3    3    0    0 -0.53057968957E+02 -0.73932270858E+02 -0.39324918506E+02  0.28097271558E+03  0.26290319309E+03 0.  0.
         25    1    4    4    0    0  0.28370224276E+01 -0.62883511827E+02 -0.97653038784E+01  0.14037540388E+03  0.12509000000E+03 0.  0.
         25    1    3    3    0    0  0.53057968957E+02  0.73932270858E+02 -0.90801132285E+02  0.17936968102E+03  0.12509000000E+03 0.  0.
         25    1    4    4    0    0 -0.55894991384E+02 -0.11048759030E+02 -0.29559614628E+02  0.14059731169E+03  0.12509000000E+03 0.  0.
<mgrwt>
<rscale>  2 0.44156804E+03</rscale>
<asrwt>0</asrwt>
<pdfrwt beam="1">  1       21 0.24280614E-01 0.44156804E+03</pdfrwt>
<pdfrwt beam="2">  1       21 0.43416797E-01 0.44156804E+03</pdfrwt>
<totfact> 0.75935505E+04</totfact>
</mgrwt>
</event>
<event>
 7    0  0.4712189E-002  0.4565628E+03  0.7546771E-02  0.1025783E+00
         21   -1    0    0  502  501  0.00000000000E+00  0.00000000000E+00  0.80232932818E+02  0.80232932818E+02  0.00000000000E+00 0.  1.
         21   -1    0    0  501  502 -0.00000000000E+00 -0.00000000000E+00 -0.64951375515E+03  0.64951375515E+03  0.00000000000E+00 0.  1.
      99926    2    1    2    0    0  0.00000000000E+00  0.00000000000E+00 -0.56928082233E+03  0.72974668797E+03  0.45656278202E+03 0.  0.
      99925    2    3    3    0    0  0.58898534617E+02 -0.34335184126E+02 -0.21032494325E+03  0.34355402429E+03  0.26295407129E+03 0.  0.
         25    1    4    4    0    0  0.43025029087E+02  0.62498249851E+01 -0.14321765457E+03  0.19506157521E+03  0.12509000000E+03 0.  0.
         25    1    3    3    0    0 -0.58898534617E+02  0.34335184126E+02 -0.35895587908E+03  0.38619266368E+03  0.12509000000E+03 0.  0.
         25    1    4    4    0    0  0.15873505531E+02 -0.40585009111E+02 -0.67107288679E+02  0.14849244909E+03  0.12509000000E+03 0.  0.
<mgrwt>
<rscale>  2 0.45656278E+03</rscale>
<asrwt>0</asrwt>
<pdfrwt beam="1">  1       21 0.11798960E-01 0.45656278E+03</pdfrwt>
<pdfrwt beam="2">  1       21 0.95516732E-01 0.45656278E+03</pdfrwt>
<totfact> 0.50691687E+04</totfact>
</mgrwt>
</event>
<event>
 7    0  0.4712189E-002  0.4629363E+03  0.7546771E-02  0.1023933E+00
         21   -1    0    0  502  501  0.00000000000E+00  0.00000000000E+00  0.27623816716E+03  0.27623816716E+03  0.00000000000E+00 0.  1.
         21   -1    0    0  501  502 -0.00000000000E+00 -0.00000000000E+00 -0.19395401498E+03  0.19395401498E+03  0.00000000000E+00 0.  1.
      99926    2    1    2    0    0  0.00000000000E+00  0.00000000000E+00  0.82284152180E+02  0.47019218214E+03  0.46293628767E+03 0.  0.
      99925    2    3    3    0    0 -0.91022102196E+02 -0.45538342029E+02 -0.13971546048E+02  0.28238528337E+03  0.26303513165E+03 0.  0.
         25    1    3    3    0    0  0.91022102196E+02  0.45538342029E+02  0.96255698228E+02  0.18780689877E+03  0.12509000000E+03 0.  0.
         25    1    4    4    0    0 -0.66937491019E+02 -0.44453814273E+01 -0.36716425362E+02  0.14661511897E+03  0.12509000000E+03 0.  0.
         25    1    4    4    0    0 -0.24084611177E+02 -0.41092960602E+02  0.22744879313E+02  0.13577016440E+03  0.12509000000E+03 0.  0.
<mgrwt>
<rscale>  2 0.46293629E+03</rscale>
<asrwt>0</asrwt>
<pdfrwt beam="1">  1       21 0.40623260E-01 0.46293629E+03</pdfrwt>
<pdfrwt beam="2">  1       21 0.28522649E-01 0.46293629E+03</pdfrwt>
<totfact> 0.63335426E+04</totfact>
</mgrwt>
</event>
<event>
 7    0  0.4712189E-002  0.4347172E+03  0.7546771E-02  0.1032380E+00
         21   -1    0    0  502  501  0.00000000000E+00  0.00000000000E+00  0.98376092819E+02  0.98376092819E+02  0.00000000000E+00 0.  1.
         21   -1    0    0  501  502 -0.00000000000E+00 -0.00000000000E+00 -0.48024645236E+03  0.48024645236E+03  0.00000000000E+00 0.  1.
      99926    2    1    2    0    0  0.00000000000E+00 -0.14210854715E-13 -0.38187035954E+03  0.57862254518E+03  0.43471723947E+03 0.  0.
      99925    2    3    3    0    0 -0.47853672477E+02 -0.79510109961E+02 -0.25033838237E+03  0.37475984463E+03  0.26299012131E+03 0.  0.
         25    1    4    4    0    0 -0.34311282407E+02 -0.81059373530E+02 -0.14225364759E+03  0.20888153219E+03  0.12509000000E+03 0.  0.
         25    1    3    3    0    0  0.47853672477E+02  0.79510109961E+02 -0.13153197717E+03  0.20386270055E+03  0.12509000000E+03 0.  0.
         25    1    4    4    0    0 -0.13542390070E+02  0.15492635689E+01 -0.10808473478E+03  0.16587831244E+03  0.12509000000E+03 0.  0.
<mgrwt>
<rscale>  2 0.43471724E+03</rscale>
<asrwt>0</asrwt>
<pdfrwt beam="1">  1       21 0.14467072E-01 0.43471724E+03</pdfrwt>
<pdfrwt beam="2">  1       21 0.70624479E-01 0.43471724E+03</pdfrwt>
<totfact> 0.70683972E+04</totfact>
</mgrwt>
</event>
<event>
 7    0  0.4712189E-002  0.4550671E+03  0.7546771E-02  0.1026222E+00
         21   -1    0    0  502  501  0.00000000000E+00  0.00000000000E+00  0.13538586296E+04  0.13538586296E+04  0.00000000000E+00 0. -1.
         21   -1    0    0  501  502 -0.00000000000E+00 -0.00000000000E+00 -0.38239980493E+02  0.38239980493E+02  0.00000000000E+00 0. -1.
      99926    2    1    2    0    0  0.00000000000E+00  0.35527136788E-14  0.13156186491E+04  0.13920986101E+04  0.45506714928E+03 0.  0.
      99925    2    3    3    0    0 -0.71489713163E+02  0.26123105855E+02  0.10842842636E+04  0.11183171247E+04  0.26299739785E+03 0.  0.
         25    1    3    3    0    0  0.71489713163E+02 -0.26123105855E+02  0.23133438551E+03  0.27378148543E+03  0.12509000000E+03 0.  0.
         25    1    4    4    0    0 -0.44958833390E+02  0.18208592532E+02  0.71397857688E+03  0.72647489006E+03  0.12509000000E+03 0.  0.
         25    1    4    4    0    0 -0.26530879773E+02  0.79145133231E+01  0.37030568675E+03  0.39184223463E+03  0.12509000000E+03 0.  0.
<mgrwt>
<rscale>  2 0.45506715E+03</rscale>
<asrwt>0</asrwt>
<pdfrwt beam="1">  1       21 0.19909683E+00 0.45506715E+03</pdfrwt>
<pdfrwt beam="2">  1       21 0.56235274E-02 0.45506715E+03</pdfrwt>
<totfact> 0.26529478E+04</totfact>
</mgrwt>
</event>
<event>
 7    0  0.4712189E-002  0.4499485E+03  0.7546771E-02  0.1027737E+00
         21   -1    0    0  502  501  0.00000000000E+00  0.00000000000E+00  0.65956183884E+02  0.65956183884E+02  0.00000000000E+00 0. -1.
         21   -1    0    0  501  502 -0.00000000000E+00 -0.00000000000E+00 -0.76737939121E+03  0.76737939121E+03  0.00000000000E+00 0. -1.
      99926    2    1    2    0    0  0.00000000000E+00  0.71054273576E-14 -0.70142320733E+03  0.83333557509E+03  0.44994851366E+03 0.  0.
      99925    2    3    3    0    0  0.57344180888E+02  0.50672350721E+02 -0.58559991167E+03  0.64647042017E+03  0.26294620247E+03 0.  0.
         25    1    3    3    0    0 -0.57344180888E+02 -0.50672350721E+02 -0.11582329566E+03  0.18686515493E+03  0.12509000000E+03 0.  0.
         25    1    4    4    0    0  0.69179199494E+02  0.21250102432E+02 -0.29442136233E+03  0.32797679063E+03  0.12509000000E+03 0.  0.
         25    1    4    4    0    0 -0.11835018606E+02  0.29422248289E+02 -0.29117854933E+03  0.31849362953E+03  0.12509000000E+03 0.  0.
<mgrwt>
<rscale>  2 0.44994851E+03</rscale>
<asrwt>0</asrwt>
<pdfrwt beam="1">  1       21 0.96994390E-02 0.44994851E+03</pdfrwt>
<pdfrwt beam="2">  1       21 0.11284991E+00 0.44994851E+03</pdfrwt>
<totfact> 0.48071363E+04</totfact>
</mgrwt>
</event>
<event>
 7    0  0.4712189E-002  0.4343249E+03  0.7546771E-02  0.1032502E+00
         21   -1    0    0  502  501  0.00000000000E+00  0.00000000000E+00  0.67960886885E+03  0.67960886885E+03  0.00000000000E+00 0.  1.
         21   -1    0    0  501  502 -0.00000000000E+00 -0.00000000000E+00 -0.69392148469E+02  0.69392148469E+02  0.00000000000E+00 0.  1.
      99926    2    1    2    0    0  0.00000000000E+00  0.88817841970E-15  0.61021672038E+03  0.74900101732E+03  0.43432485321E+03 0.  0.
      99925    2    3    3    0    0 -0.69803674327E+02  0.74282109999E+01  0.28839575184E+03  0.39666030841E+03  0.26313410899E+03 0.  0.
         25    1    3    3    0    0  0.69803674327E+02 -0.74282109999E+01  0.32182096854E+03  0.35234070891E+03  0.12509000000E+03 0.  0.
         25    1    4    4    0    0 -0.40462757902E+02  0.55900064273E+01  0.86955375538E+02  0.15772516725E+03  0.12509000000E+03 0.  0.
         25    1    4    4    0    0 -0.29340916425E+02  0.18382045726E+01  0.20144037631E+03  0.23893514116E+03  0.12509000000E+03 0.  0.
<mgrwt>
<rscale>  2 0.43432485E+03</rscale>
<asrwt>0</asrwt>
<pdfrwt beam="1">  1       21 0.99942477E-01 0.43432485E+03</pdfrwt>
<pdfrwt beam="2">  1       21 0.10204728E-01 0.43432485E+03</pdfrwt>
<totfact> 0.59402079E+04</totfact>
</mgrwt>
</event>
<event>
 7    0  0.4712189E-002  0.4527248E+03  0.7546771E-02  0.1026913E+00
         21   -1    0    0  502  501  0.00000000000E+00  0.00000000000E+00  0.21743013806E+03  0.21743013806E+03  0.00000000000E+00 0. -1.
         21   -1    0    0  501  502 -0.00000000000E+00 -0.00000000000E+00 -0.23566162303E+03  0.23566162303E+03  0.00000000000E+00 0. -1.
      99926    2    1    2    0    0  0.00000000000E+00  0.00000000000E+00 -0.18231484973E+02  0.45309176108E+03  0.45272481368E+03 0.  0.
      99925    2    3    3    0    0 -0.84060115654E+02  0.70447218721E+02  0.55292454645E+01  0.28504119108E+03  0.26303800939E+03 0.  0.
         25    1    4    4    0    0 -0.41853270333E+02  0.14269342302E+01 -0.21448021107E+02  0.13364601785E+03  0.12509000000E+03 0.  0.
         25    1    3    3    0    0  0.84060115654E+02 -0.70447218721E+02 -0.23760730438E+02  0.16805057001E+03  0.12509000000E+03 0.  0.
         25    1    4    4    0    0 -0.42206845321E+02  0.69020284491E+02  0.26977266572E+02  0.15139517322E+03  0.12509000000E+03 0.  0.
<mgrwt>
<rscale>  2 0.45272481E+03</rscale>
<asrwt>0</asrwt>
<pdfrwt beam="1">  1       21 0.31975020E-01 0.45272481E+03</pdfrwt>
<pdfrwt beam="2">  1       21 0.34656121E-01 0.45272481E+03</pdfrwt>
<totfact> 0.69947017E+04</totfact>
</mgrwt>
</event>
<event>
 7    0  0.4712189E-002  0.4543735E+03  0.7546771E-02  0.1026426E+00
         21   -1    0    0  502  501  0.00000000000E+00  0.00000000000E+00  0.96395571556E+02  0.96395571556E+02  0.00000000000E+00 0.  1.
         21   -1    0    0  501  502 -0.00000000000E+00 -0.00000000000E+00 -0.53543762751E+03  0.53543762751E+03  0.00000000000E+00 0.  1.
      99926    2    1    2    0    0 -0.17763568394E-14  0.00000000000E+00 -0.43904205596E+03  0.63183319907E+03  0.45437348574E+03 0.  0.
      99925    2    3    3    0    0 -0.99207308981E+01 -0.31891168453E+02 -0.12697121261E+03  0.29397052446E+03  0.26302378769E+03 0.  0.
         25    1    3    3    0    0  0.99207308981E+01  0.31891168453E+02 -0.31207084335E+03  0.33786267461E+03  0.12509000000E+03 0.  0.
         25    1    4    4    0    0  0.20621641308E+02  0.28980469670E+01 -0.33701343935E+02  0.13121333564E+03  0.12509000000E+03 0.  0.
         25    1    4    4    0    0 -0.30542372206E+02 -0.34789215420E+02 -0.93269868671E+02  0.16275718882E+03  0.12509000000E+03 0.  0.
<mgrwt>
<rscale>  2 0.45437349E+03</rscale>
<asrwt>0</asrwt>
<pdfrwt beam="1">  1       21 0.14175819E-01 0.45437349E+03</pdfrwt>
<pdfrwt beam="2">  1       21 0.78740829E-01 0.45437349E+03</pdfrwt>
<totfact> 0.57041984E+04</totfact>
</mgrwt>
</event>
<event>
 7    0  0.4712189E-002  0.4693544E+03  0.7546771E-02  0.1022103E+00
         21   -1    0    0  502  501  0.00000000000E+00  0.00000000000E+00  0.22496054954E+03  0.22496054954E+03  0.00000000000E+00 0. -1.
         21   -1    0    0  501  502 -0.00000000000E+00 -0.00000000000E+00 -0.24481357003E+03  0.24481357003E+03  0.00000000000E+00 0. -1.
      99926    2    1    2    0    0  0.00000000000E+00  0.00000000000E+00 -0.19853020494E+02  0.46977411957E+03  0.46935443004E+03 0.  0.
      99925    2    3    3    0    0 -0.10702564061E+03  0.20730448869E+02 -0.75950971146E+02  0.29462067991E+03  0.26296112974E+03 0.  0.
         25    1    3    3    0    0  0.10702564061E+03 -0.20730448869E+02  0.56097950653E+02  0.17515343966E+03  0.12509000000E+03 0.  0.
         25    1    4    4    0    0 -0.85214855752E+02 -0.94731225712E+01 -0.21386276702E+02  0.15315414661E+03  0.12509000000E+03 0.  0.
         25    1    4    4    0    0 -0.21810784856E+02  0.30203571440E+02 -0.54564694445E+02  0.14146653330E+03  0.12509000000E+03 0.  0.
<mgrwt>
<rscale>  2 0.46935443E+03</rscale>
<asrwt>0</asrwt>
<pdfrwt beam="1">  1       21 0.33082434E-01 0.46935443E+03</pdfrwt>
<pdfrwt beam="2">  1       21 0.36001995E-01 0.46935443E+03</pdfrwt>
<totfact> 0.60272143E+04</totfact>
</mgrwt>
</event>
<event>
 7    0  0.4712189E-002  0.4613173E+03  0.7546771E-02  0.1024400E+00
         21   -1    0    0  502  501  0.00000000000E+00  0.00000000000E+00  0.33860400764E+02  0.33860400764E+02  0.00000000000E+00 0.  1.
         21   -1    0    0  501  502 -0.00000000000E+00 -0.00000000000E+00 -0.15712574623E+04  0.15712574623E+04  0.00000000000E+00 0.  1.
      99926    2    1    2    0    0  0.88817841970E-15 -0.14210854715E-13 -0.15373970616E+04  0.16051178631E+04  0.46131727641E+03 0.  0.
      99925    2    3    3    0    0  0.24644597667E+01 -0.85617828570E+02 -0.67445054097E+03  0.72895538293E+03  0.26297515465E+03 0.  0.
         25    1    3    3    0    0 -0.24644597667E+01  0.85617828570E+02 -0.86294652061E+03  0.87616248018E+03  0.12509000000E+03 0.  0.
         25    1    4    4    0    0 -0.28129377964E+02 -0.71441196023E+02 -0.37347022723E+03  0.40127624540E+03  0.12509000000E+03 0.  0.
         25    1    4    4    0    0  0.30593837731E+02 -0.14176632548E+02 -0.30098031374E+03  0.32767913753E+03  0.12509000000E+03 0.  0.
<mgrwt>
<rscale>  2 0.46131728E+03</rscale>
<asrwt>0</asrwt>
<pdfrwt beam="1">  1       21 0.49794714E-02 0.46131728E+03</pdfrwt>
<pdfrwt beam="2">  1       21 0.23106724E+00 0.46131728E+03</pdfrwt>
<totfact> 0.20300214E+04</totfact>
</mgrwt>
</event>
<event>
 7    0  0.4712189E-002  0.4561600E+03  0.7546771E-02  0.1025901E+00
         21   -1    0    0  502  501  0.00000000000E+00  0.00000000000E+00  0.32855477764E+02  0.32855477764E+02  0.00000000000E+00 0.  1.
         21   -1    0    0  501  502 -0.00000000000E+00 -0.00000000000E+00 -0.15833125634E+04  0.15833125634E+04  0.00000000000E+00 0.  1.
      99926    2    1    2    0    0  0.00000000000E+00  0.00000000000E+00 -0.15504570856E+04  0.16161680411E+04  0.45616001894E+03 0.  0.
      99925    2    3    3    0    0 -0.10150963688E+03  0.32365580957E+02 -0.11203826114E+04  0.11557733207E+04  0.26306469836E+03 0.  0.
         25    1    3    3    0    0  0.10150963688E+03 -0.32365580957E+02 -0.43007447417E+03  0.46039472048E+03  0.12509000000E+03 0.  0.
         25    1    4    4    0    0 -0.42878740600E+02  0.36670821567E+02 -0.41890378762E+03  0.44080747150E+03  0.12509000000E+03 0.  0.
         25    1    4    4    0    0 -0.58630896282E+02 -0.43052406102E+01 -0.70147882383E+03  0.71496584917E+03  0.12509000000E+03 0.  0.
<mgrwt>
<rscale>  2 0.45616002E+03</rscale>
<asrwt>0</asrwt>
<pdfrwt beam="1">  1       21 0.48316873E-02 0.45616002E+03</pdfrwt>
<pdfrwt beam="2">  1       21 0.23284011E+00 0.45616002E+03</pdfrwt>
<totfact> 0.20878187E+04</totfact>
</mgrwt>
</event>
<event>
 7    0  0.4712189E-002  0.4521501E+03  0.7546771E-02  0.1027083E+00
         21   -1    0    0  502  501  0.00000000000E+00  0.00000000000E+00  0.11427444295E+04  0.11427444295E+04  0.00000000000E+00 0.  1.
         21   -1    0    0  501  502 -0.00000000000E+00 -0.00000000000E+00 -0.44725597711E+02  0.44725597711E+02  0.00000000000E+00 0.  1.
      99926    2    1    2    0    0  0.00000000000E+00  0.00000000000E+00  0.10980188318E+04  0.11874700272E+04  0.45215009739E+03 0.  0.
      99925    2    3    3    0    0  0.58491701300E+02  0.76031952302E+02  0.83498251774E+03  0.88081427967E+03  0.26350683758E+03 0.  0.
         25    1    4    4    0    0  0.61337154770E+02  0.59152101467E+02  0.51645430796E+03  0.53817634469E+03  0.12509000000E+03 0.  0.
         25    1    4    4    0    0 -0.28454534702E+01  0.16879850835E+02  0.31852820978E+03  0.34263793499E+03  0.12509000000E+03 0.  0.
         25    1    3    3    0    0 -0.58491701300E+02 -0.76031952302E+02  0.26303631407E+03  0.30665574756E+03  0.12509000000E+03 0.  0.
<mgrwt>
<rscale>  2 0.45215010E+03</rscale>
<asrwt>0</asrwt>
<pdfrwt beam="1">  1       21 0.16805063E+00 0.45215010E+03</pdfrwt>
<pdfrwt beam="2">  1       21 0.65772945E-02 0.45215010E+03</pdfrwt>
<totfact> 0.33288613E+04</totfact>
</mgrwt>
</event>
<event>
 7    0  0.4712189E-002  0.4552535E+03  0.7546771E-02  0.1026167E+00
         21   -1    0    0  502  501  0.00000000000E+00  0.00000000000E+00  0.30169680953E+03  0.30169680953E+03  0.00000000000E+00 0. -1.
         21   -1    0    0  501  502 -0.00000000000E+00 -0.00000000000E+00 -0.17174176416E+03  0.17174176416E+03  0.00000000000E+00 0. -1.
      99926    2    1    2    0    0  0.00000000000E+00  0.00000000000E+00  0.12995504537E+03  0.47343857369E+03  0.45525352194E+03 0.  0.
      99925    2    3    3    0    0 -0.10289440398E+03 -0.85241360680E+01  0.13038047558E+03  0.31124237042E+03  0.26308330518E+03 0.  0.
         25    1    4    4    0    0 -0.92408153524E+02 -0.18790553238E+02  0.70538420038E+02  0.17180083972E+03  0.12509000000E+03 0.  0.
         25    1    3    3    0    0  0.10289440398E+03  0.85241360680E+01 -0.42543020867E+00  0.16219620327E+03  0.12509000000E+03 0.  0.
         25    1    4    4    0    0 -0.10486250453E+02  0.10266417170E+02  0.59842055540E+02  0.13944153069E+03  0.12509000000E+03 0.  0.
<mgrwt>
<rscale>  2 0.45525352E+03</rscale>
<asrwt>0</asrwt>
<pdfrwt beam="1">  1       21 0.44367178E-01 0.45525352E+03</pdfrwt>
<pdfrwt beam="2">  1       21 0.25256142E-01 0.45525352E+03</pdfrwt>
<totfact> 0.67045967E+04</totfact>
</mgrwt>
</event>
<event>
 7    0  0.4712189E-002  0.4330004E+03  0.7546771E-02  0.1032916E+00
         21   -1    0    0  502  501  0.00000000000E+00  0.00000000000E+00  0.62722950035E+03  0.62722950035E+03  0.00000000000E+00 0. -1.
         21   -1    0    0  501  502 -0.00000000000E+00 -0.00000000000E+00 -0.74729175942E+02  0.74729175942E+02  0.00000000000E+00 0. -1.
      99926    2    1    2    0    0  0.00000000000E+00  0.00000000000E+00  0.55250032441E+03  0.70195867629E+03  0.43300043274E+03 0.  0.
      99925    2    3    3    0    0  0.80897637520E+02 -0.39614679944E+02  0.37794803312E+03  0.46908583306E+03  0.26283655075E+03 0.  0.
         25    1    4    4    0    0  0.17900671120E+02 -0.48802353795E+02  0.15741436375E+03  0.20767497147E+03  0.12509000000E+03 0.  0.
         25    1    4    4    0    0  0.62996966400E+02  0.91876738516E+01  0.22053366937E+03  0.26141086158E+03  0.12509000000E+03 0.  0.
         25    1    3    3    0    0 -0.80897637520E+02  0.39614679944E+02  0.17455229129E+03  0.23287284324E+03  0.12509000000E+03 0.  0.
<mgrwt>
<rscale>  2 0.43300043E+03</rscale>
<asrwt>0</asrwt>
<pdfrwt beam="1">  1       21 0.92239629E-01 0.43300043E+03</pdfrwt>
<pdfrwt beam="2">  1       21 0.10989585E-01 0.43300043E+03</pdfrwt>
<totfact> 0.63018107E+04</totfact>
</mgrwt>
</event>
<event>
 7    0  0.4712189E-002  0.4637196E+03  0.7546771E-02  0.1023708E+00
         21   -1    0    0  502  501  0.00000000000E+00  0.00000000000E+00  0.42288409238E+03  0.42288409238E+03  0.00000000000E+00 0.  1.
         21   -1    0    0  501  502 -0.00000000000E+00 -0.00000000000E+00 -0.12712460924E+03  0.12712460924E+03  0.00000000000E+00 0.  1.
      99926    2    1    2    0    0  0.14210854715E-13  0.00000000000E+00  0.29575948313E+03  0.55000870162E+03  0.46371963511E+03 0.  0.
      99925    2    3    3    0    0  0.11453993417E+03 -0.39521781149E+02  0.19219008634E+03  0.34738714363E+03  0.26279161054E+03 0.  0.
         25    1    4    4    0    0  0.54600176999E+02 -0.14509019644E+02  0.47112481809E+02  0.14511645331E+03  0.12509000000E+03 0.  0.
         25    1    3    3    0    0 -0.11453993417E+03  0.39521781149E+02  0.10356939680E+03  0.20262155798E+03  0.12509000000E+03 0.  0.
         25    1    4    4    0    0  0.59939757176E+02 -0.25012761505E+02  0.14507760453E+03  0.20227069032E+03  0.12509000000E+03 0.  0.
<mgrwt>
<rscale>  2 0.46371964E+03</rscale>
<asrwt>0</asrwt>
<pdfrwt beam="1">  1       21 0.62188837E-01 0.46371964E+03</pdfrwt>
<pdfrwt beam="2">  1       21 0.18694796E-01 0.46371964E+03</pdfrwt>
<totfact> 0.57775589E+04</totfact>
</mgrwt>
</event>
<event>
 7    0  0.4712189E-002  0.4518411E+03  0.7546771E-02  0.1027174E+00
         21   -1    0    0  502  501  0.00000000000E+00  0.00000000000E+00  0.18780219069E+03  0.18780219069E+03  0.00000000000E+00 0.  1.
         21   -1    0    0  501  502 -0.00000000000E+00 -0.00000000000E+00 -0.27177585016E+03  0.27177585016E+03  0.00000000000E+00 0.  1.
      99926    2    1    2    0    0 -0.35527136788E-14  0.00000000000E+00 -0.83973659473E+02  0.45957804085E+03  0.45184112269E+03 0.  0.
      99925    2    3    3    0    0 -0.19018923504E+02  0.89810978395E+02  0.88962037593E+01  0.27874648695E+03  0.26304511068E+03 0.  0.
         25    1    3    3    0    0  0.19018923504E+02 -0.89810978395E+02 -0.92869863233E+02  0.18083155391E+03  0.12509000000E+03 0.  0.
         25    1    4    4    0    0  0.12495585751E+02  0.77971399753E+02  0.17274760568E+02  0.14893489952E+03  0.12509000000E+03 0.  0.
         25    1    4    4    0    0 -0.31514509254E+02  0.11839578643E+02 -0.83785568090E+01  0.12981158743E+03  0.12509000000E+03 0.  0.
<mgrwt>
<rscale>  2 0.45184112E+03</rscale>
<asrwt>0</asrwt>
<pdfrwt beam="1">  1       21 0.27617969E-01 0.45184112E+03</pdfrwt>
<pdfrwt beam="2">  1       21 0.39967037E-01 0.45184112E+03</pdfrwt>
<totfact> 0.69954727E+04</totfact>
</mgrwt>
</event>
<event>
 7    0  0.4712189E-002  0.4285450E+03  0.7546771E-02  0.1034321E+00
         21   -1    0    0  502  501  0.00000000000E+00  0.00000000000E+00  0.76740248528E+02  0.76740248528E+02  0.00000000000E+00 0.  1.
         21   -1    0    0  501  502 -0.00000000000E+00 -0.00000000000E+00 -0.59828711947E+03  0.59828711947E+03  0.00000000000E+00 0.  1.
      99926    2    1    2    0    0  0.00000000000E+00 -0.35527136788E-14 -0.52154687094E+03  0.67502736799E+03  0.42854499058E+03 0.  0.
      99925    2    3    3    0    0 -0.66876470856E+02  0.31751240352E+02 -0.26811519541E+03  0.38287034535E+03  0.26310328717E+03 0.  0.
         25    1    4    4    0    0 -0.60851592829E+01 -0.13927646270E+02 -0.13975913634E+03  0.18817845994E+03  0.12509000000E+03 0.  0.
         25    1    3    3    0    0  0.66876470856E+02 -0.31751240352E+02 -0.25343167553E+03  0.29215702265E+03  0.12509000000E+03 0.  0.
         25    1    4    4    0    0 -0.60791311573E+02  0.45678886621E+02 -0.12835605907E+03  0.19469188541E+03  0.12509000000E+03 0.  0.
<mgrwt>
<rscale>  2 0.42854499E+03</rscale>
<asrwt>0</asrwt>
<pdfrwt beam="1">  1       21 0.11285330E-01 0.42854499E+03</pdfrwt>
<pdfrwt beam="2">  1       21 0.87983403E-01 0.42854499E+03</pdfrwt>
<totfact> 0.67229582E+04</totfact>
</mgrwt>
</event>
<event>
 7    0  0.4712189E-002  0.4517161E+03  0.7546771E-02  0.1027212E+00
         21   -1    0    0  502  501  0.00000000000E+00  0.00000000000E+00  0.26480970380E+03  0.26480970380E+03  0.00000000000E+00 0.  1.
         21   -1    0    0  501  502 -0.00000000000E+00 -0.00000000000E+00 -0.19263592014E+03  0.19263592014E+03  0.00000000000E+00 0.  1.
      99926    2    1    2    0    0  0.14210854715E-13  0.17763568394E-14  0.72173783666E+02  0.45744562394E+03  0.45171610975E+03 0.  0.
      99925    2    3    3    0    0 -0.10525758953E+03 -0.11366884167E+02  0.75907317460E+02  0.29352548001E+03  0.26303406692E+03 0.  0.
         25    1    4    4    0    0 -0.56421864081E+02  0.20832873043E+02  0.69647042944E+02  0.15529215703E+03  0.12509000000E+03 0.  0.
         25    1    3    3    0    0  0.10525758953E+03  0.11366884167E+02 -0.37335337947E+01  0.16392014392E+03  0.12509000000E+03 0.  0.
         25    1    4    4    0    0 -0.48835725451E+02 -0.32199757210E+02  0.62602745168E+01  0.13823332298E+03  0.12509000000E+03 0.  0.
<mgrwt>
<rscale>  2 0.45171611E+03</rscale>
<asrwt>0</asrwt>
<pdfrwt beam="1">  1       21 0.38942603E-01 0.45171611E+03</pdfrwt>
<pdfrwt beam="2">  1       21 0.28328812E-01 0.45171611E+03</pdfrwt>
<totfact> 0.70187188E+04</totfact>
</mgrwt>
</event>
<event>
 7    0  0.4712189E-002  0.4686108E+03  0.7546771E-02  0.1022313E+00
         21   -1    0    0  502  501  0.00000000000E+00  0.00000000000E+00  0.48739760211E+03  0.48739760211E+03  0.00000000000E+00 0. -1.
         21   -1    0    0  501  502 -0.00000000000E+00 -0.00000000000E+00 -0.11263701399E+03  0.11263701399E+03  0.00000000000E+00 0. -1.
      99926    2    1    2    0    0  0.00000000000E+00  0.35527136788E-14  0.37476058812E+03  0.60003461610E+03  0.46861075758E+03 0.  0.
      99925    2    3    3    0    0 -0.12065231270E+03 -0.15742554891E+02  0.27243337269E+03  0.39773984180E+03  0.26300614176E+03 0.  0.
         25    1    4    4    0    0 -0.37025792021E+02  0.12395917267E+02  0.87033492589E+02  0.15731149027E+03  0.12509000000E+03 0.  0.
         25    1    4    4    0    0 -0.83626520679E+02 -0.28138472157E+02  0.18539988010E+03  0.24042835152E+03  0.12509000000E+03 0.  0.
         25    1    3    3    0    0  0.12065231270E+03  0.15742554891E+02  0.10232721543E+03  0.20229477431E+03  0.12509000000E+03 0.  0.
<mgrwt>
<rscale>  2 0.46861076E+03</rscale>
<asrwt>0</asrwt>
<pdfrwt beam="1">  1       21 0.71676117E-01 0.46861076E+03</pdfrwt>
<pdfrwt beam="2">  1       21 0.16564267E-01 0.46861076E+03</pdfrwt>
<totfact> 0.52767843E+04</totfact>
</mgrwt>
</event>
<event>
 7    0  0.4712189E-002  0.4534873E+03  0.7546771E-02  0.1026687E+00
         21   -1    0    0  502  501  0.00000000000E+00  0.00000000000E+00  0.13410448690E+03  0.13410448690E+03  0.00000000000E+00 0. -1.
         21   -1    0    0  501  502 -0.00000000000E+00 -0.00000000000E+00 -0.38337772268E+03  0.38337772268E+03  0.00000000000E+00 0. -1.
      99926    2    1    2    0    0  0.00000000000E+00  0.00000000000E+00 -0.24927323578E+03  0.51748220958E+03  0.45348725577E+03 0.  0.
      99925    2    3    3    0    0  0.68419445619E+02  0.76897257794E+02 -0.20650698262E+03  0.34993857554E+03  0.26309212072E+03 0.  0.
         25    1    4    4    0    0  0.19519646323E+02  0.10918926910E+02 -0.13032642101E+03  0.18202396455E+03  0.12509000000E+03 0.  0.
         25    1    3    3    0    0 -0.68419445619E+02 -0.76897257794E+02 -0.42766253162E+02  0.16754363403E+03  0.12509000000E+03 0.  0.
         25    1    4    4    0    0  0.48899799296E+02  0.65978330884E+02 -0.76180561613E+02  0.16791461099E+03  0.12509000000E+03 0.  0.
<mgrwt>
<rscale>  2 0.45348726E+03</rscale>
<asrwt>0</asrwt>
<pdfrwt beam="1">  1       21 0.19721248E-01 0.45348726E+03</pdfrwt>
<pdfrwt beam="2">  1       21 0.56379077E-01 0.45348726E+03</pdfrwt>
<totfact> 0.64833812E+04</totfact>
</mgrwt>
</event>
<event>
 7    0  0.4712189E-002  0.4363405E+03  0.7546771E-02  0.1031876E+00
         21   -1    0    0  502  501  0.00000000000E+00  0.00000000000E+00  0.20377833593E+03  0.20377833593E+03  0.00000000000E+00 0. -1.
         21   -1    0    0  501  502 -0.00000000000E+00 -0.00000000000E+00 -0.23357859889E+03  0.23357859889E+03  0.00000000000E+00 0. -1.
      99926    2    1    2    0    0  0.71054273576E-14 -0.71054273576E-14 -0.29800262969E+02  0.43735693482E+03  0.43634050094E+03 0.  0.
      99925    2    3    3    0    0 -0.63277339434E+02 -0.39585476665E+02 -0.77257561064E+02  0.28415531965E+03  0.26306745009E+03 0.  0.
         25    1    4    4    0    0 -0.32385282161E+02 -0.59982246362E+02 -0.49245104793E+02  0.15072911074E+03  0.12509000000E+03 0.  0.
         25    1    4    4    0    0 -0.30892057273E+02  0.20396769697E+02 -0.28012456271E+02  0.13342620891E+03  0.12509000000E+03 0.  0.
         25    1    3    3    0    0  0.63277339434E+02  0.39585476665E+02  0.47457298095E+02  0.15320161517E+03  0.12509000000E+03 0.  0.
<mgrwt>
<rscale>  2 0.43634050E+03</rscale>
<asrwt>0</asrwt>
<pdfrwt beam="1">  1       21 0.29967402E-01 0.43634050E+03</pdfrwt>
<pdfrwt beam="2">  1       21 0.34349794E-01 0.43634050E+03</pdfrwt>
<totfact> 0.81305206E+04</totfact>
</mgrwt>
</event>
<event>
 7    0  0.4712189E-002  0.4373579E+03  0.7546771E-02  0.1031561E+00
         21   -1    0    0  502  501  0.00000000000E+00  0.00000000000E+00  0.11279984728E+03  0.11279984728E+03  0.00000000000E+00 0. -1.
         21   -1    0    0  501  502 -0.00000000000E+00 -0.00000000000E+00 -0.42394109521E+03  0.42394109521E+03  0.00000000000E+00 0. -1.
      99926    2    1    2    0    0  0.00000000000E+00  0.00000000000E+00 -0.31114124794E+03  0.53674094249E+03  0.43735793485E+03 0.  0.
      99925    2    3    3    0    0 -0.64614374607E+02 -0.64046100986E+02 -0.16329017786E+03  0.32276812300E+03  0.26313239744E+03 0.  0.
         25    1    4    4    0    0 -0.31915856593E+02  0.98667220492E+01 -0.74356833804E+02  0.14930646650E+03  0.12509000000E+03 0.  0.
         25    1    3    3    0    0  0.64614374607E+02  0.64046100986E+02 -0.14785107008E+03  0.21397281949E+03  0.12509000000E+03 0.  0.
         25    1    4    4    0    0 -0.32698518014E+02 -0.73912823035E+02 -0.88933344052E+02  0.17346165649E+03  0.12509000000E+03 0.  0.
<mgrwt>
<rscale>  2 0.43735793E+03</rscale>
<asrwt>0</asrwt>
<pdfrwt beam="1">  1       21 0.16588213E-01 0.43735793E+03</pdfrwt>
<pdfrwt beam="2">  1       21 0.62344278E-01 0.43735793E+03</pdfrwt>
<totfact> 0.72334306E+04</totfact>
</mgrwt>
</event>
<event>
 7    0  0.4712189E-002  0.4096294E+03  0.7546771E-02  0.1040495E+00
         21   -1    0    0  502  501  0.00000000000E+00  0.00000000000E+00  0.24718183637E+03  0.24718183637E+03  0.00000000000E+00 0. -1.
         21   -1    0    0  501  502 -0.00000000000E+00 -0.00000000000E+00 -0.16970929063E+03  0.16970929063E+03  0.00000000000E+00 0. -1.
      99926    2    1    2    0    0  0.00000000000E+00  0.00000000000E+00  0.77472545742E+02  0.41689112699E+03  0.40962936470E+03 0.  0.
      99925    2    3    3    0    0 -0.33910570417E+02  0.51983710992E+02  0.46231553259E+02  0.27379765857E+03  0.26263200172E+03 0.  0.
         25    1    4    4    0    0 -0.16964177409E+02 -0.87005271242E+01  0.43191524865E+02  0.13370302318E+03  0.12509000000E+03 0.  0.
         25    1    3    3    0    0  0.33910570417E+02 -0.51983710992E+02  0.31240992483E+02  0.14309346842E+03  0.12509000000E+03 0.  0.
         25    1    4    4    0    0 -0.16946393008E+02  0.60684238116E+02  0.30400283943E+01  0.14009463539E+03  0.12509000000E+03 0.  0.
<mgrwt>
<rscale>  2 0.40962936E+03</rscale>
<asrwt>0</asrwt>
<pdfrwt beam="1">  1       21 0.36350270E-01 0.40962936E+03</pdfrwt>
<pdfrwt beam="2">  1       21 0.24957249E-01 0.40962936E+03</pdfrwt>
<totfact> 0.10439059E+05</totfact>
</mgrwt>
</event>
<event>
 7    0  0.4712189E-002  0.4691663E+03  0.7546771E-02  0.1022156E+00
         21   -1    0    0  502  501  0.00000000000E+00  0.00000000000E+00  0.36377437042E+03  0.36377437042E+03  0.00000000000E+00 0.  1.
         21   -1    0    0  501  502 -0.00000000000E+00 -0.00000000000E+00 -0.15127304387E+03  0.15127304387E+03  0.00000000000E+00 0.  1.
      99926    2    1    2    0    0 -0.71054273576E-14  0.00000000000E+00  0.21250132655E+03  0.51504741428E+03  0.46916630865E+03 0.  0.
      99925    2    3    3    0    0  0.36237736796E+02  0.44526253650E+02  0.25519253177E+03  0.37094395168E+03  0.26302172188E+03 0.  0.
         25    1    4    4    0    0  0.36364741757E+01  0.57584168958E+02  0.11153692114E+03  0.17724884580E+03  0.12509000000E+03 0.  0.
         25    1    3    3    0    0 -0.36237736796E+02 -0.44526253650E+02 -0.42691205216E+02  0.14410346261E+03  0.12509000000E+03 0.  0.
         25    1    4    4    0    0  0.32601262621E+02 -0.13057915308E+02  0.14365561063E+03  0.19369510588E+03  0.12509000000E+03 0.  0.
<mgrwt>
<rscale>  2 0.46916631E+03</rscale>
<asrwt>0</asrwt>
<pdfrwt beam="1">  1       21 0.53496231E-01 0.46916631E+03</pdfrwt>
<pdfrwt beam="2">  1       21 0.22246036E-01 0.46916631E+03</pdfrwt>
<totfact> 0.57485472E+04</totfact>
</mgrwt>
</event>
<event>
 7    0  0.4712189E-002  0.4492351E+03  0.7546771E-02  0.1027950E+00
         21   -1    0    0  502  501  0.00000000000E+00  0.00000000000E+00  0.13214520360E+03  0.13214520360E+03  0.00000000000E+00 0. -1.
         21   -1    0    0  501  502 -0.00000000000E+00 -0.00000000000E+00 -0.38179996585E+03  0.38179996585E+03  0.00000000000E+00 0. -1.
      99926    2    1    2    0    0  0.00000000000E+00  0.14210854715E-13 -0.24965476225E+03  0.51394516945E+03  0.44923505750E+03 0.  0.
      99925    2    3    3    0    0  0.32238307652E+02 -0.89317881308E+02 -0.21625718701E+03  0.35338397073E+03  0.26286130837E+03 0.  0.
         25    1    4    4    0    0  0.23507291811E+02 -0.76806369343E+02 -0.84198947324E+02  0.17084724748E+03  0.12509000000E+03 0.  0.
         25    1    3    3    0    0 -0.32238307652E+02  0.89317881308E+02 -0.33397575242E+02  0.16056119872E+03  0.12509000000E+03 0.  0.
         25    1    4    4    0    0  0.87310158410E+01 -0.12511511965E+02 -0.13205823968E+03  0.18253672326E+03  0.12509000000E+03 0.  0.
<mgrwt>
<rscale>  2 0.44923506E+03</rscale>
<asrwt>0</asrwt>
<pdfrwt beam="1">  1       21 0.19433118E-01 0.44923506E+03</pdfrwt>
<pdfrwt beam="2">  1       21 0.56147055E-01 0.44923506E+03</pdfrwt>
<totfact> 0.67329107E+04</totfact>
</mgrwt>
</event>
<event>
 7    0  0.4712189E-002  0.4492335E+03  0.7546771E-02  0.1027951E+00
         21   -1    0    0  502  501  0.00000000000E+00  0.00000000000E+00  0.35865616066E+02  0.35865616066E+02  0.00000000000E+00 0.  1.
         21   -1    0    0  501  502 -0.00000000000E+00 -0.00000000000E+00 -0.14067144879E+04  0.14067144879E+04  0.00000000000E+00 0.  1.
      99926    2    1    2    0    0  0.00000000000E+00  0.00000000000E+00 -0.13708488719E+04  0.14425801040E+04  0.44923348824E+03 0.  0.
      99925    2    3    3    0    0  0.34538587848E+02  0.66379401166E+02 -0.61887848866E+03  0.67661267370E+03  0.26304940134E+03 0.  0.
         25    1    4    4    0    0  0.17665416798E+02  0.16683292127E+02 -0.39286678099E+03  0.41301599835E+03  0.12509000000E+03 0.  0.
         25    1    3    3    0    0 -0.34538587848E+02 -0.66379401166E+02 -0.75197038322E+03  0.76596743031E+03  0.12509000000E+03 0.  0.
         25    1    4    4    0    0  0.16873171050E+02  0.49696109040E+02 -0.22601170767E+03  0.26359667536E+03  0.12509000000E+03 0.  0.
<mgrwt>
<rscale>  2 0.44923349E+03</rscale>
<asrwt>0</asrwt>
<pdfrwt beam="1">  1       21 0.52743547E-02 0.44923349E+03</pdfrwt>
<pdfrwt beam="2">  1       21 0.20686980E+00 0.44923349E+03</pdfrwt>
<totfact> 0.26381457E+04</totfact>
</mgrwt>
</event>
<event>
 6    0  0.4712189E-002  0.4766678E+03  0.7546771E-02  0.1020055E+00
         21   -1    0    0  502  501  0.00000000000E+00  0.00000000000E+00  0.11075051559E+04  0.11075051559E+04  0.00000000000E+00 0.  1.
         21   -1    0    0  501  502 -0.00000000000E+00 -0.00000000000E+00 -0.51289191497E+02  0.51289191497E+02  0.00000000000E+00 0.  1.
      99926    2    1    2    0    0  0.00000000000E+00 -0.35527136788E-14  0.10562159644E+04  0.11587943474E+04  0.47666778378E+03 0.  0.
         25    1    3    3    0    0  0.42583367999E+02 -0.31279212779E+02  0.54114117719E+03  0.55791846549E+03  0.12509000000E+03 0.  0.
         25    1    3    3    0    0  0.55020501657E+02  0.22716091275E+02  0.32395616261E+03  0.35233276856E+03  0.12509000000E+03 0.  0.
         25    1    3    3    0    0 -0.97603869656E+02  0.85631215039E+01  0.19111862458E+03  0.24854311333E+03  0.12509000000E+03 0.  0.
<mgrwt>
<rscale>  2 0.47666778E+03</rscale>
<asrwt>0</asrwt>
<pdfrwt beam="1">  1       21 0.16286839E+00 0.47666778E+03</pdfrwt>
<pdfrwt beam="2">  1       21 0.75425288E-02 0.47666778E+03</pdfrwt>
<totfact> 0.28385372E+04</totfact>
</mgrwt>
</event>
<event>
 7    0  0.4712189E-002  0.4552176E+03  0.7546771E-02  0.1026177E+00
         21   -1    0    0  502  501  0.00000000000E+00  0.00000000000E+00  0.20873175168E+03  0.20873175168E+03  0.00000000000E+00 0.  1.
         21   -1    0    0  501  502 -0.00000000000E+00 -0.00000000000E+00 -0.24819300817E+03  0.24819300817E+03  0.00000000000E+00 0.  1.
      99926    2    1    2    0    0  0.00000000000E+00  0.00000000000E+00 -0.39461256481E+02  0.45692475985E+03  0.45521758028E+03 0.  0.
      99925    2    3    3    0    0  0.63474711112E+02 -0.18339698520E+02  0.67640628722E+02  0.27948827711E+03  0.26300771642E+03 0.  0.
         25    1    4    4    0    0  0.25007394116E+02  0.31065521908E+02  0.32548030039E+02  0.13526758212E+03  0.12509000000E+03 0.  0.
         25    1    4    4    0    0  0.38467316996E+02 -0.49405220428E+02  0.35092598684E+02  0.14422069499E+03  0.12509000000E+03 0.  0.
         25    1    3    3    0    0 -0.63474711112E+02  0.18339698520E+02 -0.10710188520E+03  0.17743648274E+03  0.12509000000E+03 0.  0.
<mgrwt>
<rscale>  2 0.45521758E+03</rscale>
<asrwt>0</asrwt>
<pdfrwt beam="1">  1       21 0.30695846E-01 0.45521758E+03</pdfrwt>
<pdfrwt beam="2">  1       21 0.36498971E-01 0.45521758E+03</pdfrwt>
<totfact> 0.68286418E+04</totfact>
</mgrwt>
</event>
<event>
 7    0  0.4712189E-002  0.4599031E+03  0.7546771E-02  0.1024809E+00
         21   -1    0    0  502  501  0.00000000000E+00  0.00000000000E+00  0.33954188956E+03  0.33954188956E+03  0.00000000000E+00 0. -1.
         21   -1    0    0  501  502 -0.00000000000E+00 -0.00000000000E+00 -0.15573254196E+03  0.15573254196E+03  0.00000000000E+00 0. -1.
      99926    2    1    2    0    0  0.00000000000E+00  0.00000000000E+00  0.18380934760E+03  0.49527443153E+03  0.45990312704E+03 0.  0.
      99925    2    3    3    0    0  0.10876840629E+03 -0.44401947804E+02  0.10887401117E+03  0.30801815815E+03  0.26309605901E+03 0.  0.
         25    1    4    4    0    0  0.14828639682E+02 -0.89469081706E+01  0.32710093039E+02  0.13045073402E+03  0.12509000000E+03 0.  0.
         25    1    3    3    0    0 -0.10876840629E+03  0.44401947804E+02  0.74935336427E+02  0.18725627338E+03  0.12509000000E+03 0.  0.
         25    1    4    4    0    0  0.93939766603E+02 -0.35455039634E+02  0.76163918135E+02  0.17756742413E+03  0.12509000000E+03 0.  0.
<mgrwt>
<rscale>  2 0.45990313E+03</rscale>
<asrwt>0</asrwt>
<pdfrwt beam="1">  1       21 0.49932631E-01 0.45990313E+03</pdfrwt>
<pdfrwt beam="2">  1       21 0.22901844E-01 0.45990313E+03</pdfrwt>
<totfact> 0.63111372E+04</totfact>
</mgrwt>
</event>
<event>
 7    0  0.4712189E-002  0.4524366E+03  0.7546771E-02  0.1026998E+00
         21   -1    0    0  502  501  0.00000000000E+00  0.00000000000E+00  0.15149034301E+03  0.15149034301E+03  0.00000000000E+00 0. -1.
         21   -1    0    0  501  502 -0.00000000000E+00 -0.00000000000E+00 -0.33780852991E+03  0.33780852991E+03  0.00000000000E+00 0. -1.
      99926    2    1    2    0    0  0.13600232052E-14  0.00000000000E+00 -0.18631818690E+03  0.48929887291E+03  0.45243664779E+03 0.  0.
      99925    2    3    3    0    0 -0.43787205750E-01  0.10698379400E+03 -0.14849579416E+03  0.32040963232E+03  0.26299391153E+03 0.  0.
         25    1    3    3    0    0  0.43787205750E-01 -0.10698379400E+03 -0.37822392735E+02  0.16888924059E+03  0.12509000000E+03 0.  0.
         25    1    4    4    0    0 -0.23926051953E+02  0.81121017073E+02 -0.56632628826E+02  0.16126945812E+03  0.12509000000E+03 0.  0.
         25    1    4    4    0    0  0.23882264747E+02  0.25862776928E+02 -0.91863165338E+02  0.15914017420E+03  0.12509000000E+03 0.  0.
<mgrwt>
<rscale>  2 0.45243665E+03</rscale>
<asrwt>0</asrwt>
<pdfrwt beam="1">  1       21 0.22277992E-01 0.45243665E+03</pdfrwt>
<pdfrwt beam="2">  1       21 0.49677725E-01 0.45243665E+03</pdfrwt>
<totfact> 0.67390145E+04</totfact>
</mgrwt>
</event>
<event>
 7    0  0.4712189E-002  0.4526487E+03  0.7546771E-02  0.1026935E+00
         21   -1    0    0  502  501  0.00000000000E+00  0.00000000000E+00  0.18142804737E+03  0.18142804737E+03  0.00000000000E+00 0. -1.
         21   -1    0    0  501  502 -0.00000000000E+00 -0.00000000000E+00 -0.28233077043E+03  0.28233077043E+03  0.00000000000E+00 0. -1.
      99926    2    1    2    0    0  0.00000000000E+00  0.00000000000E+00 -0.10090272306E+03  0.46375881780E+03  0.45264873971E+03 0.  0.
      99925    2    3    3    0    0  0.60161985374E+02  0.32162425569E+02  0.25942579840E+02  0.27299423757E+03  0.26305693337E+03 0.  0.
         25    1    4    4    0    0  0.59441678748E+02 -0.88615060186E+01  0.26810875017E+02  0.14134415651E+03  0.12509000000E+03 0.  0.
         25    1    3    3    0    0 -0.60161985374E+02 -0.32162425569E+02 -0.12684530290E+03  0.19076458023E+03  0.12509000000E+03 0.  0.
         25    1    4    4    0    0  0.72030662550E+00  0.41023931588E+02 -0.86829517729E+00  0.13165008105E+03  0.12509000000E+03 0.  0.
<mgrwt>
<rscale>  2 0.45264874E+03</rscale>
<asrwt>0</asrwt>
<pdfrwt beam="1">  1       21 0.26680596E-01 0.45264874E+03</pdfrwt>
<pdfrwt beam="2">  1       21 0.41519230E-01 0.45264874E+03</pdfrwt>
<totfact> 0.69184497E+04</totfact>
</mgrwt>
</event>
<event>
 7    0  0.4712189E-002  0.4482959E+03  0.7546771E-02  0.1028231E+00
         21   -1    0    0  502  501  0.00000000000E+00  0.00000000000E+00  0.10191096662E+03  0.10191096662E+03  0.00000000000E+00 0.  1.
         21   -1    0    0  501  502 -0.00000000000E+00 -0.00000000000E+00 -0.49300183400E+03  0.49300183400E+03  0.00000000000E+00 0.  1.
      99926    2    1    2    0    0  0.00000000000E+00 -0.71054273576E-14 -0.39109086738E+03  0.59491280061E+03  0.44829585520E+03 0.  0.
      99925    2    3    3    0    0 -0.81864290264E+02  0.62744269250E+02 -0.21097391666E+03  0.35257372126E+03  0.26298218584E+03 0.  0.
         25    1    4    4    0    0 -0.23574952963E+02  0.36616336535E+02 -0.57107139956E+02  0.14424031351E+03  0.12509000000E+03 0.  0.
         25    1    4    4    0    0 -0.58289337301E+02  0.26127932716E+02 -0.15386677670E+03  0.20833340775E+03  0.12509000000E+03 0.  0.
         25    1    3    3    0    0  0.81864290264E+02 -0.62744269250E+02 -0.18011695072E+03  0.24233907935E+03  0.12509000000E+03 0.  0.
<mgrwt>
<rscale>  2 0.44829586E+03</rscale>
<asrwt>0</asrwt>
<pdfrwt beam="1">  1       21 0.14986907E-01 0.44829586E+03</pdfrwt>
<pdfrwt beam="2">  1       21 0.72500269E-01 0.44829586E+03</pdfrwt>
<totfact> 0.62224020E+04</totfact>
</mgrwt>
</event>
<event>
 7    0  0.4712189E-002  0.4536428E+03  0.7546771E-02  0.1026641E+00
         21   -1    0    0  502  501  0.00000000000E+00  0.00000000000E+00  0.15217763472E+03  0.15217763472E+03  0.00000000000E+00 0.  1.
         21   -1    0    0  501  502 -0.00000000000E+00 -0.00000000000E+00 -0.33807829907E+03  0.33807829907E+03  0.00000000000E+00 0.  1.
      99926    2    1    2    0    0 -0.35527136788E-14  0.00000000000E+00 -0.18590066435E+03  0.49025593379E+03  0.45364283705E+03 0.  0.
      99925    2    3    3    0    0  0.23848308342E+02  0.51735163222E+02 -0.22137428469E+03  0.34830117070E+03  0.26279623792E+03 0.  0.
         25    1    4    4    0    0  0.31372444496E+01  0.47519708928E+02 -0.70840798679E+02  0.15143940008E+03  0.12509000000E+03 0.  0.
         25    1    3    3    0    0 -0.23848308342E+02 -0.51735163222E+02  0.35473620332E+02  0.14195476309E+03  0.12509000000E+03 0.  0.
         25    1    4    4    0    0  0.20711063893E+02  0.42154542943E+01 -0.15053348601E+03  0.19686177062E+03  0.12509000000E+03 0.  0.
<mgrwt>
<rscale>  2 0.45364284E+03</rscale>
<asrwt>0</asrwt>
<pdfrwt beam="1">  1       21 0.22379064E-01 0.45364284E+03</pdfrwt>
<pdfrwt beam="2">  1       21 0.49717396E-01 0.45364284E+03</pdfrwt>
<totfact> 0.66676264E+04</totfact>
</mgrwt>
</event>
<event>
 7    0  0.4712189E-002  0.4793314E+03  0.7546771E-02  0.1019319E+00
         21   -1    0    0  502  501  0.00000000000E+00  0.00000000000E+00  0.30961740572E+03  0.30961740572E+03  0.00000000000E+00 0. -1.
         21   -1    0    0  501  502 -0.00000000000E+00 -0.00000000000E+00 -0.18551816610E+03  0.18551816610E+03  0.00000000000E+00 0. -1.
      99926    2    1    2    0    0  0.00000000000E+00  0.00000000000E+00  0.12409923963E+03  0.49513557182E+03  0.47933142314E+03 0.  0.
      99925    2    3    3    0    0  0.12094529787E+03  0.58558194528E+02  0.85417730218E+02  0.30751735710E+03  0.26308536459E+03 0.  0.
         25    1    4    4    0    0  0.37512300094E+02  0.62335617219E+02  0.48803541800E+02  0.15271606210E+03  0.12509000000E+03 0.  0.
         25    1    3    3    0    0 -0.12094529787E+03 -0.58558194528E+02  0.38681509411E+02  0.18761821472E+03  0.12509000000E+03 0.  0.
         25    1    4    4    0    0  0.83432997775E+02 -0.37774226908E+01  0.36614188419E+02  0.15480129500E+03  0.12509000000E+03 0.  0.
<mgrwt>
<rscale>  2 0.47933142E+03</rscale>
<asrwt>0</asrwt>
<pdfrwt beam="1">  1       21 0.45531972E-01 0.47933142E+03</pdfrwt>
<pdfrwt beam="2">  1       21 0.27282083E-01 0.47933142E+03</pdfrwt>
<totfact> 0.54336697E+04</totfact>
</mgrwt>
</event>
<event>
 7    0  0.4712189E-002  0.4572872E+03  0.7546771E-02  0.1025571E+00
         21   -1    0    0  502  501  0.00000000000E+00  0.00000000000E+00  0.11002573242E+03  0.11002573242E+03  0.00000000000E+00 0. -1.
         21   -1    0    0  501  502 -0.00000000000E+00 -0.00000000000E+00 -0.47514239679E+03  0.47514239679E+03  0.00000000000E+00 0. -1.
      99926    2    1    2    0    0  0.00000000000E+00  0.00000000000E+00 -0.36511666437E+03  0.58516812921E+03  0.45728717546E+03 0.  0.
      99925    2    3    3    0    0  0.68847990677E+02 -0.68442014974E+02 -0.30889624279E+03  0.41714253849E+03  0.26299553869E+03 0.  0.
         25    1    3    3    0    0 -0.68847990677E+02  0.68442014974E+02 -0.56220421582E+02  0.16802559072E+03  0.12509000000E+03 0.  0.
         25    1    4    4    0    0  0.14863431371E+02  0.33620562985E+01 -0.14896803101E+03  0.19511844448E+03  0.12509000000E+03 0.  0.
         25    1    4    4    0    0  0.53984559306E+02 -0.71804071272E+02 -0.15992821178E+03  0.22202409400E+03  0.12509000000E+03 0.  0.
<mgrwt>
<rscale>  2 0.45728718E+03</rscale>
<asrwt>0</asrwt>
<pdfrwt beam="1">  1       21 0.16180255E-01 0.45728718E+03</pdfrwt>
<pdfrwt beam="2">  1       21 0.69873881E-01 0.45728718E+03</pdfrwt>
<totfact> 0.58535146E+04</totfact>
</mgrwt>
</event>
<event>
 7    0  0.4712189E-002  0.4582423E+03  0.7546771E-02  0.1025292E+00
         21   -1    0    0  502  501  0.00000000000E+00  0.00000000000E+00  0.13966241154E+03  0.13966241154E+03  0.00000000000E+00 0.  1.
         21   -1    0    0  501  502 -0.00000000000E+00 -0.00000000000E+00 -0.37588134117E+03  0.37588134117E+03  0.00000000000E+00 0.  1.
      99926    2    1    2    0    0  0.00000000000E+00  0.00000000000E+00 -0.23621892962E+03  0.51554375271E+03  0.45824227025E+03 0.  0.
      99925    2    3    3    0    0 -0.71078947857E+02 -0.91936300287E+02 -0.14737918893E+03  0.32307425443E+03  0.26296739039E+03 0.  0.
         25    1    3    3    0    0  0.71078947857E+02  0.91936300287E+02 -0.88839740694E+02  0.19246949827E+03  0.12509000000E+03 0.  0.
         25    1    4    4    0    0 -0.30884963013E+01 -0.30721096970E+02 -0.92734340015E+02  0.15874662367E+03  0.12509000000E+03 0.  0.
         25    1    4    4    0    0 -0.67990451556E+02 -0.61215203317E+02 -0.54644848915E+02  0.16432763076E+03  0.12509000000E+03 0.  0.
<mgrwt>
<rscale>  2 0.45824227E+03</rscale>
<asrwt>0</asrwt>
<pdfrwt beam="1">  1       21 0.20538590E-01 0.45824227E+03</pdfrwt>
<pdfrwt beam="2">  1       21 0.55276667E-01 0.45824227E+03</pdfrwt>
<totfact> 0.62566569E+04</totfact>
</mgrwt>
</event>
<event>
 7    0  0.4712189E-002  0.4574859E+03  0.7546771E-02  0.1025513E+00
         21   -1    0    0  502  501  0.00000000000E+00  0.00000000000E+00  0.46307703169E+03  0.46307703169E+03  0.00000000000E+00 0. -1.
         21   -1    0    0  501  502 -0.00000000000E+00 -0.00000000000E+00 -0.11299056871E+03  0.11299056871E+03  0.00000000000E+00 0. -1.
      99926    2    1    2    0    0 -0.35527136788E-14 -0.14210854715E-13  0.35008646297E+03  0.57606760040E+03  0.45748589997E+03 0.  0.
      99925    2    3    3    0    0 -0.20575406575E+02 -0.98723500089E+02  0.29071941474E+03  0.40477360944E+03  0.26297189956E+03 0.  0.
         25    1    3    3    0    0  0.20575406575E+02  0.98723500089E+02  0.59367048229E+02  0.17129399097E+03  0.12509000000E+03 0.  0.
         25    1    4    4    0    0 -0.28451141063E+02 -0.81885748985E+02  0.12920863326E+03  0.19964248627E+03  0.12509000000E+03 0.  0.
         25    1    4    4    0    0  0.78757344880E+01 -0.16837751103E+02  0.16151078148E+03  0.20513112316E+03  0.12509000000E+03 0.  0.
<mgrwt>
<rscale>  2 0.45748590E+03</rscale>
<asrwt>0</asrwt>
<pdfrwt beam="1">  1       21 0.68099563E-01 0.45748590E+03</pdfrwt>
<pdfrwt beam="2">  1       21 0.16616260E-01 0.45748590E+03</pdfrwt>
<totfact> 0.59007714E+04</totfact>
</mgrwt>
</event>
<event>
 7    0  0.4712189E-002  0.4496491E+03  0.7546771E-02  0.1027827E+00
         21   -1    0    0  502  501  0.00000000000E+00  0.00000000000E+00  0.35913674975E+02  0.35913674975E+02  0.00000000000E+00 0.  1.
         21   -1    0    0  501  502 -0.00000000000E+00 -0.00000000000E+00 -0.14074328012E+04  0.14074328012E+04  0.00000000000E+00 0.  1.
      99926    2    1    2    0    0  0.00000000000E+00  0.00000000000E+00 -0.13715191262E+04  0.14433464762E+04  0.44964912619E+03 0.  0.
      99925    2    3    3    0    0  0.35178126216E+02  0.10012882209E+03 -0.80211713210E+03  0.85078473206E+03  0.26301993293E+03 0.  0.
         25    1    4    4    0    0  0.15095072935E+02  0.85836622978E+02 -0.50385789301E+03  0.52641815273E+03  0.12509000000E+03 0.  0.
         25    1    3    3    0    0 -0.35178126216E+02 -0.10012882209E+03 -0.56940199411E+03  0.59256174411E+03  0.12509000000E+03 0.  0.
         25    1    4    4    0    0  0.20083053280E+02  0.14292199113E+02 -0.29825923909E+03  0.32436657933E+03  0.12509000000E+03 0.  0.
<mgrwt>
<rscale>  2 0.44964913E+03</rscale>
<asrwt>0</asrwt>
<pdfrwt beam="1">  1       21 0.52814237E-02 0.44964913E+03</pdfrwt>
<pdfrwt beam="2">  1       21 0.20697538E+00 0.44964913E+03</pdfrwt>
<totfact> 0.26274988E+04</totfact>
</mgrwt>
</event>
<event>
 7    0  0.4712189E-002  0.4541171E+03  0.7546771E-02  0.1026501E+00
         21   -1    0    0  502  501  0.00000000000E+00  0.00000000000E+00  0.36586793284E+02  0.36586793284E+02  0.00000000000E+00 0. -1.
         21   -1    0    0  501  502 -0.00000000000E+00 -0.00000000000E+00 -0.14091309644E+04  0.14091309644E+04  0.00000000000E+00 0. -1.
      99926    2    1    2    0    0  0.00000000000E+00  0.35527136788E-14 -0.13725441711E+04  0.14457177577E+04  0.45411709197E+03 0.  0.
      99925    2    3    3    0    0 -0.91320024122E+02 -0.19062160347E+02 -0.10633796097E+04  0.10994043925E+04  0.26308004711E+03 0.  0.
         25    1    4    4    0    0 -0.69602148496E+02 -0.43959643547E+02 -0.56789615306E+03  0.58730780524E+03  0.12509000000E+03 0.  0.
         25    1    4    4    0    0 -0.21717875626E+02  0.24897483200E+02 -0.49548345663E+03  0.51209658726E+03  0.12509000000E+03 0.  0.
         25    1    3    3    0    0  0.91320024122E+02  0.19062160347E+02 -0.30916456144E+03  0.34631336519E+03  0.12509000000E+03 0.  0.
<mgrwt>
<rscale>  2 0.45411709E+03</rscale>
<asrwt>0</asrwt>
<pdfrwt beam="1">  1       21 0.53804104E-02 0.45411709E+03</pdfrwt>
<pdfrwt beam="2">  1       21 0.20722516E+00 0.45411709E+03</pdfrwt>
<totfact> 0.25311954E+04</totfact>
</mgrwt>
</event>
<event>
 7    0  0.4712189E-002  0.4543741E+03  0.7546771E-02  0.1026426E+00
         21   -1    0    0  502  501  0.00000000000E+00  0.00000000000E+00  0.55778640073E+03  0.55778640073E+03  0.00000000000E+00 0. -1.
         21   -1    0    0  501  502 -0.00000000000E+00 -0.00000000000E+00 -0.92533529719E+02  0.92533529719E+02  0.00000000000E+00 0. -1.
      99926    2    1    2    0    0  0.00000000000E+00  0.00000000000E+00  0.46525287101E+03  0.65031993045E+03  0.45437405070E+03 0.  0.
      99925    2    3    3    0    0  0.85563990636E+02 -0.58760391745E+02  0.35501337378E+03  0.45391668460E+03  0.26311951820E+03 0.  0.
         25    1    3    3    0    0 -0.85563990636E+02  0.58760391745E+02  0.11023949722E+03  0.19640324585E+03  0.12509000000E+03 0.  0.
         25    1    4    4    0    0  0.12509062145E+02 -0.30503746552E+02  0.12028487101E+03  0.17664346431E+03  0.12509000000E+03 0.  0.
         25    1    4    4    0    0  0.73054928491E+02 -0.28256645193E+02  0.23472850277E+03  0.27727322029E+03  0.12509000000E+03 0.  0.
<mgrwt>
<rscale>  2 0.45437405E+03</rscale>
<asrwt>0</asrwt>
<pdfrwt beam="1">  1       21 0.82027411E-01 0.45437405E+03</pdfrwt>
<pdfrwt beam="2">  1       21 0.13607872E-01 0.45437405E+03</pdfrwt>
<totfact> 0.55958878E+04</totfact>
</mgrwt>
</event>
<event>
 7    0  0.4712189E-002  0.4524235E+03  0.7546771E-02  0.1027002E+00
         21   -1    0    0  502  501  0.00000000000E+00  0.00000000000E+00  0.43467683493E+03  0.43467683493E+03  0.00000000000E+00 0.  1.
         21   -1    0    0  501  502 -0.00000000000E+00 -0.00000000000E+00 -0.11772369073E+03  0.11772369073E+03  0.00000000000E+00 0.  1.
      99926    2    1    2    0    0  0.00000000000E+00  0.00000000000E+00  0.31695314419E+03  0.55240052566E+03  0.45242352407E+03 0.  0.
      99925    2    3    3    0    0  0.94248708640E+01 -0.27620746669E+02  0.69497616191E+02  0.27359327992E+03  0.26300500057E+03 0.  0.
         25    1    4    4    0    0 -0.48057449922E+01 -0.31592056562E+02 -0.12740565706E+01  0.12911345609E+03  0.12509000000E+03 0.  0.
         25    1    4    4    0    0  0.14230615856E+02  0.39713098922E+01  0.70771672762E+02  0.14447982384E+03  0.12509000000E+03 0.  0.
         25    1    3    3    0    0 -0.94248708640E+01  0.27620746669E+02  0.24745552800E+03  0.27880724574E+03  0.12509000000E+03 0.  0.
<mgrwt>
<rscale>  2 0.45242352E+03</rscale>
<asrwt>0</asrwt>
<pdfrwt beam="1">  1       21 0.63923063E-01 0.45242352E+03</pdfrwt>
<pdfrwt beam="2">  1       21 0.17312308E-01 0.45242352E+03</pdfrwt>
<totfact> 0.62982173E+04</totfact>
</mgrwt>
</event>
<event>
 7    0  0.4712189E-002  0.4517419E+03  0.7546771E-02  0.1027204E+00
         21   -1    0    0  502  501  0.00000000000E+00  0.00000000000E+00  0.10467764251E+03  0.10467764251E+03  0.00000000000E+00 0. -1.
         21   -1    0    0  501  502 -0.00000000000E+00 -0.00000000000E+00 -0.48737893158E+03  0.48737893158E+03  0.00000000000E+00 0. -1.
      99926    2    1    2    0    0  0.26645352591E-14 -0.14210854715E-13 -0.38270128908E+03  0.59205657409E+03  0.45174186242E+03 0.  0.
      99925    2    3    3    0    0  0.65233513425E+01 -0.50691453501E+02 -0.36919747192E+03  0.45625510595E+03  0.26315351197E+03 0.  0.
         25    1    3    3    0    0 -0.65233513425E+01  0.50691453501E+02 -0.13503817158E+02  0.13580146814E+03  0.12509000000E+03 0.  0.
         25    1    4    4    0    0 -0.33400681342E+02 -0.18446067853E+02 -0.15319382005E+03  0.20142422281E+03  0.12509000000E+03 0.  0.
         25    1    4    4    0    0  0.39924032684E+02 -0.32245385648E+02 -0.21600365187E+03  0.25483088314E+03  0.12509000000E+03 0.  0.
<mgrwt>
<rscale>  2 0.45174186E+03</rscale>
<asrwt>0</asrwt>
<pdfrwt beam="1">  1       21 0.15393771E-01 0.45174186E+03</pdfrwt>
<pdfrwt beam="2">  1       21 0.71673373E-01 0.45174186E+03</pdfrwt>
<totfact> 0.60718278E+04</totfact>
</mgrwt>
</event>
<event>
 7    0  0.4712189E-002  0.4562451E+03  0.7546771E-02  0.1025876E+00
         21   -1    0    0  502  501  0.00000000000E+00  0.00000000000E+00  0.73411161338E+03  0.73411161338E+03  0.00000000000E+00 0.  1.
         21   -1    0    0  501  502 -0.00000000000E+00 -0.00000000000E+00 -0.70888255627E+02  0.70888255627E+02  0.00000000000E+00 0.  1.
      99926    2    1    2    0    0  0.00000000000E+00 -0.35527136788E-14  0.66322335775E+03  0.80499986900E+03  0.45624507321E+03 0.  0.
      99925    2    3    3    0    0 -0.90097653654E+01  0.19706583491E+02  0.21895502310E+03  0.34294858767E+03  0.26306445283E+03 0.  0.
         25    1    4    4    0    0 -0.31366545283E+02 -0.19441034166E+02  0.97162478326E+02  0.16263415775E+03  0.12509000000E+03 0.  0.
         25    1    4    4    0    0  0.22356779918E+02  0.39147617656E+02  0.12179254477E+03  0.18031442992E+03  0.12509000000E+03 0.  0.
         25    1    3    3    0    0  0.90097653654E+01 -0.19706583491E+02  0.44426833465E+03  0.46205128133E+03  0.12509000000E+03 0.  0.
<mgrwt>
<rscale>  2 0.45624507E+03</rscale>
<asrwt>0</asrwt>
<pdfrwt beam="1">  1       21 0.10795759E+00 0.45624507E+03</pdfrwt>
<pdfrwt beam="2">  1       21 0.10424744E-01 0.45624507E+03</pdfrwt>
<totfact> 0.47062399E+04</totfact>
</mgrwt>
</event>
<event>
 7    0  0.4712189E-002  0.4591451E+03  0.7546771E-02  0.1025029E+00
         21   -1    0    0  502  501  0.00000000000E+00  0.00000000000E+00  0.42147439259E+03  0.42147439259E+03  0.00000000000E+00 0.  1.
         21   -1    0    0  501  502 -0.00000000000E+00 -0.00000000000E+00 -0.12504568123E+03  0.12504568123E+03  0.00000000000E+00 0.  1.
      99926    2    1    2    0    0 -0.14210854715E-13  0.00000000000E+00  0.29642871136E+03  0.54652007382E+03  0.45914508619E+03 0.  0.
      99925    2    3    3    0    0 -0.66750821501E+02  0.21228442273E+02  0.29717356220E+03  0.40315207936E+03  0.26327391457E+03 0.  0.
         25    1    3    3    0    0  0.66750821501E+02 -0.21228442273E+02 -0.74485083777E+00  0.14336799446E+03  0.12509000000E+03 0.  0.
         25    1    4    4    0    0 -0.43369455916E+02  0.13136520037E+02  0.92621880667E+02  0.16211045230E+03  0.12509000000E+03 0.  0.
         25    1    4    4    0    0 -0.23381365585E+02  0.80919222356E+01  0.20455168153E+03  0.24104162707E+03  0.12509000000E+03 0.  0.
<mgrwt>
<rscale>  2 0.45914509E+03</rscale>
<asrwt>0</asrwt>
<pdfrwt beam="1">  1       21 0.61981528E-01 0.45914509E+03</pdfrwt>
<pdfrwt beam="2">  1       21 0.18389071E-01 0.45914509E+03</pdfrwt>
<totfact> 0.60101412E+04</totfact>
</mgrwt>
</event>
<event>
 7    0  0.4712189E-002  0.4566076E+03  0.7546771E-02  0.1025770E+00
         21   -1    0    0  502  501  0.00000000000E+00  0.00000000000E+00  0.12615745033E+03  0.12615745033E+03  0.00000000000E+00 0. -1.
         21   -1    0    0  501  502 -0.00000000000E+00 -0.00000000000E+00 -0.41315538077E+03  0.41315538077E+03  0.00000000000E+00 0. -1.
      99926    2    1    2    0    0  0.71054273576E-14  0.00000000000E+00 -0.28699793044E+03  0.53931283110E+03  0.45660761899E+03 0.  0.
      99925    2    3    3    0    0  0.58592174397E+02  0.80820977897E+02 -0.11330170476E+03  0.30312866507E+03  0.26283956688E+03 0.  0.
         25    1    4    4    0    0  0.54626765862E+02  0.70067986217E+02 -0.80668322738E+02  0.17334501041E+03  0.12509000000E+03 0.  0.
         25    1    4    4    0    0  0.39654085351E+01  0.10752991681E+02 -0.32633382019E+02  0.12978365466E+03  0.12509000000E+03 0.  0.
         25    1    3    3    0    0 -0.58592174397E+02 -0.80820977897E+02 -0.17369622568E+03  0.23618416603E+03  0.12509000000E+03 0.  0.
<mgrwt>
<rscale>  2 0.45660762E+03</rscale>
<asrwt>0</asrwt>
<pdfrwt beam="1">  1       21 0.18552566E-01 0.45660762E+03</pdfrwt>
<pdfrwt beam="2">  1       21 0.60758144E-01 0.45660762E+03</pdfrwt>
<totfact> 0.61788416E+04</totfact>
</mgrwt>
</event>
<event>
 7    0  0.4712189E-002  0.4659575E+03  0.7546771E-02  0.1023067E+00
         21   -1    0    0  502  501  0.00000000000E+00  0.00000000000E+00  0.15521614768E+03  0.15521614768E+03  0.00000000000E+00 0.  1.
         21   -1    0    0  501  502 -0.00000000000E+00 -0.00000000000E+00 -0.34970004301E+03  0.34970004301E+03  0.00000000000E+00 0.  1.
      99926    2    1    2    0    0  0.00000000000E+00  0.00000000000E+00 -0.19448389532E+03  0.50491619069E+03  0.46595748098E+03 0.  0.
      99925    2    3    3    0    0  0.74184974289E+02 -0.13641087293E+02 -0.15663965929E+02  0.27401888685E+03  0.26296672955E+03 0.  0.
         25    1    3    3    0    0 -0.74184974289E+02  0.13641087293E+02 -0.17881992939E+03  0.23089730384E+03  0.12509000000E+03 0.  0.
         25    1    4    4    0    0  0.26049677336E+02 -0.26308500116E+02 -0.41575889294E+02  0.13691890132E+03  0.12509000000E+03 0.  0.
         25    1    4    4    0    0  0.48135296953E+02  0.12667412823E+02  0.25911923365E+02  0.13709998553E+03  0.12509000000E+03 0.  0.
<mgrwt>
<rscale>  2 0.46595748E+03</rscale>
<asrwt>0</asrwt>
<pdfrwt beam="1">  1       21 0.22825904E-01 0.46595748E+03</pdfrwt>
<pdfrwt beam="2">  1       21 0.51426476E-01 0.46595748E+03</pdfrwt>
<totfact> 0.59573706E+04</totfact>
</mgrwt>
</event>
<event>
 7    0  0.4712189E-002  0.4570133E+03  0.7546771E-02  0.1025651E+00
         21   -1    0    0  502  501  0.00000000000E+00  0.00000000000E+00  0.22647753006E+03  0.22647753006E+03  0.00000000000E+00 0.  1.
         21   -1    0    0  501  502 -0.00000000000E+00 -0.00000000000E+00 -0.23055398562E+03  0.23055398562E+03  0.00000000000E+00 0.  1.
      99926    2    1    2    0    0  0.00000000000E+00  0.00000000000E+00 -0.40764555585E+01  0.45703151568E+03  0.45701333551E+03 0.  0.
      99925    2    3    3    0    0  0.75983788549E+02  0.86318292496E+02 -0.94688019299E+00  0.28708538867E+03  0.26304512933E+03 0.  0.
         25    1    4    4    0    0  0.76133187861E+02  0.58368275039E+02  0.12885390323E+02  0.15816655528E+03  0.12509000000E+03 0.  0.
         25    1    4    4    0    0 -0.14939931179E+00  0.27950017457E+02 -0.13832270516E+02  0.12891883339E+03  0.12509000000E+03 0.  0.
         25    1    3    3    0    0 -0.75983788549E+02 -0.86318292496E+02 -0.31295753655E+01  0.16994612700E+03  0.12509000000E+03 0.  0.
<mgrwt>
<rscale>  2 0.45701334E+03</rscale>
<asrwt>0</asrwt>
<pdfrwt beam="1">  1       21 0.33305519E-01 0.45701334E+03</pdfrwt>
<pdfrwt beam="2">  1       21 0.33904998E-01 0.45701334E+03</pdfrwt>
<totfact> 0.67309423E+04</totfact>
</mgrwt>
</event>
<event>
 7    0  0.4712189E-002  0.4465139E+03  0.7546771E-02  0.1028767E+00
         21   -1    0    0  502  501  0.00000000000E+00  0.00000000000E+00  0.21714745736E+04  0.21714745736E+04  0.00000000000E+00 0. -1.
         21   -1    0    0  501  502 -0.00000000000E+00 -0.00000000000E+00 -0.22953837317E+02  0.22953837317E+02  0.00000000000E+00 0. -1.
      99926    2    1    2    0    0  0.00000000000E+00  0.88817841970E-15  0.21485207362E+04  0.21944284109E+04  0.44651393752E+03 0.  0.
      99925    2    3    3    0    0  0.10451815766E+03  0.59889480289E+01  0.13241607030E+04  0.13540850970E+04  0.26303035869E+03 0.  0.
         25    1    3    3    0    0 -0.10451815766E+03 -0.59889480289E+01  0.82436003320E+03  0.84034331390E+03  0.12509000000E+03 0.  0.
         25    1    4    4    0    0  0.57523321879E+02 -0.33468230653E+02  0.58570831241E+03  0.60260334413E+03  0.12509000000E+03 0.  0.
         25    1    4    4    0    0  0.46994835778E+02  0.39457178682E+02  0.73845239062E+03  0.75148175284E+03  0.12509000000E+03 0.  0.
<mgrwt>
<rscale>  2 0.44651394E+03</rscale>
<asrwt>0</asrwt>
<pdfrwt beam="1">  1       21 0.31933436E+00 0.44651394E+03</pdfrwt>
<pdfrwt beam="2">  1       21 0.33755658E-02 0.44651394E+03</pdfrwt>
<totfact> 0.11528802E+04</totfact>
</mgrwt>
</event>
<event>
 7    0  0.4712189E-002  0.4587156E+03  0.7546771E-02  0.1025154E+00
         21   -1    0    0  502  501  0.00000000000E+00  0.00000000000E+00  0.38735892840E+03  0.38735892840E+03  0.00000000000E+00 0. -1.
         21   -1    0    0  501  502 -0.00000000000E+00 -0.00000000000E+00 -0.13580428566E+03  0.13580428566E+03  0.00000000000E+00 0. -1.
      99926    2    1    2    0    0  0.35527136788E-14  0.00000000000E+00  0.25155464274E+03  0.52316321406E+03  0.45871560935E+03 0.  0.
      99925    2    3    3    0    0 -0.22502822988E+02  0.96146567734E+02  0.88100397720E+02  0.29487537416E+03  0.26351331404E+03 0.  0.
         25    1    4    4    0    0 -0.43872760510E+02  0.63645615630E+02  0.23851049639E+02  0.14896967535E+03  0.12509000000E+03 0.  0.
         25    1    3    3    0    0  0.22502822988E+02 -0.96146567734E+02  0.16345424502E+03  0.22828783990E+03  0.12509000000E+03 0.  0.
         25    1    4    4    0    0  0.21369937522E+02  0.32500952103E+02  0.64249348081E+02  0.14590569881E+03  0.12509000000E+03 0.  0.
<mgrwt>
<rscale>  2 0.45871561E+03</rscale>
<asrwt>0</asrwt>
<pdfrwt beam="1">  1       21 0.56964548E-01 0.45871561E+03</pdfrwt>
<pdfrwt beam="2">  1       21 0.19971219E-01 0.45871561E+03</pdfrwt>
<totfact> 0.61829438E+04</totfact>
</mgrwt>
</event>
<event>
 7    0  0.4712189E-002  0.4570633E+03  0.7546771E-02  0.1025636E+00
         21   -1    0    0  502  501  0.00000000000E+00  0.00000000000E+00  0.29720543108E+03  0.29720543108E+03  0.00000000000E+00 0. -1.
         21   -1    0    0  501  502 -0.00000000000E+00 -0.00000000000E+00 -0.17572601088E+03  0.17572601088E+03  0.00000000000E+00 0. -1.
      99926    2    1    2    0    0  0.00000000000E+00  0.00000000000E+00  0.12147942020E+03  0.47293144195E+03  0.45706334272E+03 0.  0.
      99925    2    3    3    0    0 -0.65262947275E+02 -0.94145680440E+02  0.69833080645E+02  0.29562517043E+03  0.26342915709E+03 0.  0.
         25    1    4    4    0    0 -0.11091892415E+02 -0.76791689869E+02  0.56091159857E+02  0.15752371258E+03  0.12509000000E+03 0.  0.
         25    1    4    4    0    0 -0.54171054859E+02 -0.17353990572E+02  0.13741920788E+02  0.13810145785E+03  0.12509000000E+03 0.  0.
         25    1    3    3    0    0  0.65262947275E+02  0.94145680440E+02  0.51646339558E+02  0.17730627153E+03  0.12509000000E+03 0.  0.
<mgrwt>
<rscale>  2 0.45706334E+03</rscale>
<asrwt>0</asrwt>
<pdfrwt beam="1">  1       21 0.43706681E-01 0.45706334E+03</pdfrwt>
<pdfrwt beam="2">  1       21 0.25842060E-01 0.45706334E+03</pdfrwt>
<totfact> 0.66129169E+04</totfact>
</mgrwt>
</event>
<event>
 7    0  0.4712189E-002  0.4533215E+03  0.7546771E-02  0.1026736E+00
         21   -1    0    0  502  501  0.00000000000E+00  0.00000000000E+00  0.72805814405E+02  0.72805814405E+02  0.00000000000E+00 0.  1.
         21   -1    0    0  501  502 -0.00000000000E+00 -0.00000000000E+00 -0.70564552262E+03  0.70564552262E+03  0.00000000000E+00 0.  1.
      99926    2    1    2    0    0 -0.39968028887E-14  0.00000000000E+00 -0.63283970821E+03  0.77845133703E+03  0.45332150602E+03 0.  0.
      99925    2    3    3    0    0  0.10448456375E+01 -0.31006608541E+02 -0.21660809463E+03  0.34272347961E+03  0.26377607046E+03 0.  0.
         25    1    3    3    0    0 -0.10448456375E+01  0.31006608541E+02 -0.41623161359E+03  0.43572785741E+03  0.12509000000E+03 0.  0.
         25    1    4    4    0    0  0.39217411762E+02 -0.26017506368E+02 -0.12475188253E+03  0.18282630095E+03  0.12509000000E+03 0.  0.
         25    1    4    4    0    0 -0.38172566124E+02 -0.49891021731E+01 -0.91856212101E+02  0.15989717867E+03  0.12509000000E+03 0.  0.
<mgrwt>
<rscale>  2 0.45332151E+03</rscale>
<asrwt>0</asrwt>
<pdfrwt beam="1">  1       21 0.10706738E-01 0.45332151E+03</pdfrwt>
<pdfrwt beam="2">  1       21 0.10377140E+00 0.45332151E+03</pdfrwt>
<totfact> 0.49473393E+04</totfact>
</mgrwt>
</event>
<event>
 7    0  0.4712189E-002  0.4816322E+03  0.7546771E-02  0.1018688E+00
         21   -1    0    0  502  501  0.00000000000E+00  0.00000000000E+00  0.86589601151E+02  0.86589601151E+02  0.00000000000E+00 0.  1.
         21   -1    0    0  501  502 -0.00000000000E+00 -0.00000000000E+00 -0.66973851029E+03  0.66973851029E+03  0.00000000000E+00 0.  1.
      99926    2    1    2    0    0  0.00000000000E+00  0.00000000000E+00 -0.58314890914E+03  0.75632811144E+03  0.48163218531E+03 0.  0.
      99925    2    3    3    0    0 -0.13563181855E+02 -0.11373934272E+03 -0.24017014395E+03  0.37370226357E+03  0.26239490424E+03 0.  0.
         25    1    3    3    0    0  0.13563181855E+02  0.11373934272E+03 -0.34297876520E+03  0.38262584787E+03  0.12509000000E+03 0.  0.
         25    1    4    4    0    0 -0.27661433413E+02 -0.26966642600E+02 -0.13549752425E+03  0.18841295574E+03  0.12509000000E+03 0.  0.
         25    1    4    4    0    0  0.14098251557E+02 -0.86772700123E+02 -0.10467261970E+03  0.18528930783E+03  0.12509000000E+03 0.  0.
<mgrwt>
<rscale>  2 0.48163219E+03</rscale>
<asrwt>0</asrwt>
<pdfrwt beam="1">  1       21 0.12733765E-01 0.48163219E+03</pdfrwt>
<pdfrwt beam="2">  1       21 0.98490954E-01 0.48163219E+03</pdfrwt>
<totfact> 0.40730997E+04</totfact>
</mgrwt>
</event>
<event>
 7    0  0.4712189E-002  0.4565092E+03  0.7546771E-02  0.1025799E+00
         21   -1    0    0  502  501  0.00000000000E+00  0.00000000000E+00  0.28246312942E+03  0.28246312942E+03  0.00000000000E+00 0. -1.
         21   -1    0    0  501  502 -0.00000000000E+00 -0.00000000000E+00 -0.18444943872E+03  0.18444943872E+03  0.00000000000E+00 0. -1.
      99926    2    1    2    0    0  0.00000000000E+00 -0.14210854715E-13  0.98013690691E+02  0.46691256814E+03  0.45650921428E+03 0.  0.
      99925    2    3    3    0    0  0.32038633907E+02  0.10905557182E+03  0.76452069442E+02  0.29652476512E+03  0.26298750085E+03 0.  0.
         25    1    4    4    0    0 -0.46715653451E+01  0.84249004235E+02  0.61651542113E+02  0.16299735882E+03  0.12509000000E+03 0.  0.
         25    1    4    4    0    0  0.36710199252E+02  0.24806567581E+02  0.14800527330E+02  0.13352740630E+03  0.12509000000E+03 0.  0.
         25    1    3    3    0    0 -0.32038633907E+02 -0.10905557182E+03  0.21561621249E+02  0.17038780302E+03  0.12509000000E+03 0.  0.
<mgrwt>
<rscale>  2 0.45650921E+03</rscale>
<asrwt>0</asrwt>
<pdfrwt beam="1">  1       21 0.41538696E-01 0.45650921E+03</pdfrwt>
<pdfrwt beam="2">  1       21 0.27124917E-01 0.45650921E+03</pdfrwt>
<totfact> 0.66862590E+04</totfact>
</mgrwt>
</event>
<event>
 7    0  0.4712189E-002  0.4514827E+03  0.7546771E-02  0.1027281E+00
         21   -1    0    0  502  501  0.00000000000E+00  0.00000000000E+00  0.40859465629E+03  0.40859465629E+03  0.00000000000E+00 0.  1.
         21   -1    0    0  501  502 -0.00000000000E+00 -0.00000000000E+00 -0.12471813659E+03  0.12471813659E+03  0.00000000000E+00 0.  1.
      99926    2    1    2    0    0  0.00000000000E+00  0.00000000000E+00  0.28387651970E+03  0.53331279288E+03  0.45148273124E+03 0.  0.
      99925    2    3    3    0    0 -0.10228565367E+03 -0.24250337700E+02  0.21655120719E+03  0.35659086546E+03  0.26308209017E+03 0.  0.
         25    1    4    4    0    0 -0.27110841647E+02  0.17818715822E+02  0.77605555508E+02  0.15074028895E+03  0.12509000000E+03 0.  0.
         25    1    4    4    0    0 -0.75174812023E+02 -0.42069053523E+02  0.13894565169E+03  0.20585057651E+03  0.12509000000E+03 0.  0.
         25    1    3    3    0    0  0.10228565367E+03  0.24250337700E+02  0.67325312509E+02  0.17672192742E+03  0.12509000000E+03 0.  0.
<mgrwt>
<rscale>  2 0.45148273E+03</rscale>
<asrwt>0</asrwt>
<pdfrwt beam="1">  1       21 0.60087449E-01 0.45148273E+03</pdfrwt>
<pdfrwt beam="2">  1       21 0.18340903E-01 0.45148273E+03</pdfrwt>
<totfact> 0.64767238E+04</totfact>
</mgrwt>
</event>
<event>
 7    0  0.4712189E-002  0.4515977E+03  0.7546771E-02  0.1027247E+00
         21   -1    0    0  502  501  0.00000000000E+00  0.00000000000E+00  0.23512881589E+03  0.23512881589E+03  0.00000000000E+00 0. -1.
         21   -1    0    0  501  502 -0.00000000000E+00 -0.00000000000E+00 -0.21683908613E+03  0.21683908613E+03  0.00000000000E+00 0. -1.
      99926    2    1    2    0    0  0.14210854715E-13  0.00000000000E+00  0.18289729756E+02  0.45196790202E+03  0.45159768627E+03 0.  0.
      99925    2    3    3    0    0  0.99704833484E+02 -0.35577162118E+02 -0.13563812932E+02  0.28502795903E+03  0.26429183136E+03 0.  0.
         25    1    4    4    0    0  0.30244507024E+02 -0.42250674062E+02 -0.35731275957E+02  0.14008598019E+03  0.12509000000E+03 0.  0.
         25    1    4    4    0    0  0.69460326460E+02  0.66735119438E+01  0.22167463024E+02  0.14494197884E+03  0.12509000000E+03 0.  0.
         25    1    3    3    0    0 -0.99704833484E+02  0.35577162118E+02  0.31853542688E+02  0.16693994299E+03  0.12509000000E+03 0.  0.
<mgrwt>
<rscale>  2 0.45159769E+03</rscale>
<asrwt>0</asrwt>
<pdfrwt beam="1">  1       21 0.34577767E-01 0.45159769E+03</pdfrwt>
<pdfrwt beam="2">  1       21 0.31888101E-01 0.45159769E+03</pdfrwt>
<totfact> 0.70667507E+04</totfact>
</mgrwt>
</event>
<event>
 7    0  0.4712189E-002  0.4761755E+03  0.7546771E-02  0.1020192E+00
         21   -1    0    0  502  501  0.00000000000E+00  0.00000000000E+00  0.15886167752E+03  0.15886167752E+03  0.00000000000E+00 0. -1.
         21   -1    0    0  501  502 -0.00000000000E+00 -0.00000000000E+00 -0.35682480920E+03  0.35682480920E+03  0.00000000000E+00 0. -1.
      99926    2    1    2    0    0 -0.14210854715E-13 -0.14210854715E-13 -0.19796313168E+03  0.51568648673E+03  0.47617554650E+03 0.  0.
      99925    2    3    3    0    0 -0.91888447550E+02 -0.92274916230E+02 -0.14408173733E+03  0.32724854013E+03  0.26338928040E+03 0.  0.
         25    1    4    4    0    0 -0.16194502009E+02 -0.17995070547E+02 -0.83923288546E+02  0.15256707023E+03  0.12509000000E+03 0.  0.
         25    1    3    3    0    0  0.91888447550E+02  0.92274916230E+02 -0.53881394351E+02  0.18843794659E+03  0.12509000000E+03 0.  0.
         25    1    4    4    0    0 -0.75693945541E+02 -0.74279845683E+02 -0.60158448784E+02  0.17468146990E+03  0.12509000000E+03 0.  0.
<mgrwt>
<rscale>  2 0.47617555E+03</rscale>
<asrwt>0</asrwt>
<pdfrwt beam="1">  1       21 0.23362012E-01 0.47617555E+03</pdfrwt>
<pdfrwt beam="2">  1       21 0.52474236E-01 0.47617555E+03</pdfrwt>
<totfact> 0.54440190E+04</totfact>
</mgrwt>
</event>
<event>
 7    0  0.4712189E-002  0.4557645E+03  0.7546771E-02  0.1026017E+00
         21   -1    0    0  502  501  0.00000000000E+00  0.00000000000E+00  0.12920872531E+03  0.12920872531E+03  0.00000000000E+00 0. -1.
         21   -1    0    0  501  502 -0.00000000000E+00 -0.00000000000E+00 -0.40191026861E+03  0.40191026861E+03  0.00000000000E+00 0. -1.
      99926    2    1    2    0    0 -0.35527136788E-14 -0.14210854715E-13 -0.27270154330E+03  0.53111899392E+03  0.45576447205E+03 0.  0.
      99925    2    3    3    0    0 -0.23951845643E+02 -0.82318077112E+02 -0.84093738711E+02  0.28910583564E+03  0.26298378387E+03 0.  0.
         25    1    4    4    0    0  0.17215040136E+02 -0.68134788651E+02 -0.53801782461E+02  0.15323461400E+03  0.12509000000E+03 0.  0.
         25    1    3    3    0    0  0.23951845643E+02  0.82318077112E+02 -0.18860780459E+03  0.24201315828E+03  0.12509000000E+03 0.  0.
         25    1    4    4    0    0 -0.41166885780E+02 -0.14183288462E+02 -0.30291956250E+02  0.13587122164E+03  0.12509000000E+03 0.  0.
<mgrwt>
<rscale>  2 0.45576447E+03</rscale>
<asrwt>0</asrwt>
<pdfrwt beam="1">  1       21 0.19001283E-01 0.45576447E+03</pdfrwt>
<pdfrwt beam="2">  1       21 0.59104453E-01 0.45576447E+03</pdfrwt>
<totfact> 0.62749767E+04</totfact>
</mgrwt>
</event>
<event>
 7    0  0.4712189E-002  0.4530242E+03  0.7546771E-02  0.1026824E+00
         21   -1    0    0  502  501  0.00000000000E+00  0.00000000000E+00  0.27976958598E+03  0.27976958598E+03  0.00000000000E+00 0. -1.
         21   -1    0    0  501  502 -0.00000000000E+00 -0.00000000000E+00 -0.18339283484E+03  0.18339283484E+03  0.00000000000E+00 0. -1.
      99926    2    1    2    0    0  0.00000000000E+00  0.71054273576E-14  0.96376751144E+02  0.46316242082E+03  0.45302422661E+03 0.  0.
      99925    2    3    3    0    0  0.10237338798E+03  0.42524506053E+02  0.48992519162E+02  0.28943442157E+03  0.26283716114E+03 0.  0.
         25    1    4    4    0    0  0.75833736687E+02  0.36475311662E+02  0.56977897957E+02  0.16116821317E+03  0.12509000000E+03 0.  0.
         25    1    4    4    0    0  0.26539651290E+02  0.60491943912E+01 -0.79853787952E+01  0.12826620840E+03  0.12509000000E+03 0.  0.
         25    1    3    3    0    0 -0.10237338798E+03 -0.42524506053E+02  0.47384231982E+02  0.17372799924E+03  0.12509000000E+03 0.  0.
<mgrwt>
<rscale>  2 0.45302423E+03</rscale>
<asrwt>0</asrwt>
<pdfrwt beam="1">  1       21 0.41142586E-01 0.45302423E+03</pdfrwt>
<pdfrwt beam="2">  1       21 0.26969534E-01 0.45302423E+03</pdfrwt>
<totfact> 0.69023710E+04</totfact>
</mgrwt>
</event>
<event>
 7    0  0.4712189E-002  0.4292444E+03  0.7546771E-02  0.1034099E+00
         21   -1    0    0  502  501  0.00000000000E+00  0.00000000000E+00  0.34507115364E+02  0.34507115364E+02  0.00000000000E+00 0. -1.
         21   -1    0    0  501  502 -0.00000000000E+00 -0.00000000000E+00 -0.13348749491E+04  0.13348749491E+04  0.00000000000E+00 0. -1.
      99926    2    1    2    0    0  0.00000000000E+00  0.71054273576E-14 -0.13003678337E+04  0.13693820644E+04  0.42924437731E+03 0.  0.
      99925    2    3    3    0    0 -0.34857006307E+02  0.58863514494E+02 -0.66808226233E+03  0.72122122320E+03  0.26295668719E+03 0.  0.
         25    1    4    4    0    0 -0.24746434221E+02  0.54518031478E+02 -0.43351672126E+03  0.45515805769E+03  0.12509000000E+03 0.  0.
         25    1    4    4    0    0 -0.10110572086E+02  0.43454830161E+01 -0.23456554106E+03  0.26606316551E+03  0.12509000000E+03 0.  0.
         25    1    3    3    0    0  0.34857006307E+02 -0.58863514494E+02 -0.63228557137E+03  0.64816084122E+03  0.12509000000E+03 0.  0.
<mgrwt>
<rscale>  2 0.42924438E+03</rscale>
<asrwt>0</asrwt>
<pdfrwt beam="1">  1       21 0.50745761E-02 0.42924438E+03</pdfrwt>
<pdfrwt beam="2">  1       21 0.19630513E+00 0.42924438E+03</pdfrwt>
<totfact> 0.33353389E+04</totfact>
</mgrwt>
</event>
<event>
 7    0  0.4712189E-002  0.4592111E+03  0.7546771E-02  0.1025010E+00
         21   -1    0    0  502  501  0.00000000000E+00  0.00000000000E+00  0.15174855255E+04  0.15174855255E+04  0.00000000000E+00 0.  1.
         21   -1    0    0  501  502 -0.00000000000E+00 -0.00000000000E+00 -0.34740829480E+02  0.34740829480E+02  0.00000000000E+00 0.  1.
      99926    2    1    2    0    0  0.00000000000E+00  0.00000000000E+00  0.14827446960E+04  0.15522263550E+04  0.45921108819E+03 0.  0.
      99925    2    3    3    0    0  0.26018764222E+02 -0.75479163063E+02  0.63974979670E+03  0.69626958707E+03  0.26294002235E+03 0.  0.
         25    1    4    4    0    0  0.43506647073E+02 -0.22616128137E+02  0.37241930217E+03  0.39591408452E+03  0.12509000000E+03 0.  0.
         25    1    4    4    0    0 -0.17487882851E+02 -0.52863034926E+02  0.26733049452E+03  0.30035550255E+03  0.12509000000E+03 0.  0.
         25    1    3    3    0    0 -0.26018764222E+02  0.75479163063E+02  0.84299489931E+03  0.85595676790E+03  0.12509000000E+03 0.  0.
<mgrwt>
<rscale>  2 0.45921109E+03</rscale>
<asrwt>0</asrwt>
<pdfrwt beam="1">  1       21 0.22315959E+00 0.45921109E+03</pdfrwt>
<pdfrwt beam="2">  1       21 0.51089465E-02 0.45921109E+03</pdfrwt>
<totfact> 0.21805799E+04</totfact>
</mgrwt>
</event>
<event>
 7    0  0.4712189E-002  0.4586112E+03  0.7546771E-02  0.1025185E+00
         21   -1    0    0  502  501  0.00000000000E+00  0.00000000000E+00  0.12078294548E+03  0.12078294548E+03  0.00000000000E+00 0.  1.
         21   -1    0    0  501  502 -0.00000000000E+00 -0.00000000000E+00 -0.43533515105E+03  0.43533515105E+03  0.00000000000E+00 0.  1.
      99926    2    1    2    0    0  0.35527136788E-14  0.00000000000E+00 -0.31455220557E+03  0.55611809652E+03  0.45861121579E+03 0.  0.
      99925    2    3    3    0    0 -0.18731508872E+02  0.10098042259E+03 -0.26403771278E+03  0.38656828893E+03  0.26300420732E+03 0.  0.
         25    1    4    4    0    0 -0.11405377688E+01  0.44580282918E+02 -0.18343095273E+03  0.22645777745E+03  0.12509000000E+03 0.  0.
         25    1    4    4    0    0 -0.17590971104E+02  0.56400139675E+02 -0.80606760052E+02  0.16011051148E+03  0.12509000000E+03 0.  0.
         25    1    3    3    0    0  0.18731508872E+02 -0.10098042259E+03 -0.50514492795E+02  0.16954980759E+03  0.12509000000E+03 0.  0.
<mgrwt>
<rscale>  2 0.45861122E+03</rscale>
<asrwt>0</asrwt>
<pdfrwt beam="1">  1       21 0.17762198E-01 0.45861122E+03</pdfrwt>
<pdfrwt beam="2">  1       21 0.64019876E-01 0.45861122E+03</pdfrwt>
<totfact> 0.59739057E+04</totfact>
</mgrwt>
</event>
<event>
 7    0  0.4712189E-002  0.4556348E+03  0.7546771E-02  0.1026055E+00
         21   -1    0    0  502  501  0.00000000000E+00  0.00000000000E+00  0.15389931811E+04  0.15389931811E+04  0.00000000000E+00 0.  1.
         21   -1    0    0  501  502 -0.00000000000E+00 -0.00000000000E+00 -0.33723839042E+02  0.33723839042E+02  0.00000000000E+00 0.  1.
      99926    2    1    2    0    0  0.00000000000E+00  0.17763568394E-14  0.15052693421E+04  0.15727170202E+04  0.45563475867E+03 0.  0.
      99925    2    3    3    0    0 -0.85079102277E+02  0.10782188068E+02  0.68929474047E+03  0.74276716156E+03  0.26309904566E+03 0.  0.
         25    1    4    4    0    0 -0.30280775334E+02  0.36381699263E+02  0.40142353226E+03  0.42311808488E+03  0.12509000000E+03 0.  0.
         25    1    4    4    0    0 -0.54798326943E+02 -0.25599511195E+02  0.28787120821E+03  0.31964907668E+03  0.12509000000E+03 0.  0.
         25    1    3    3    0    0  0.85079102277E+02 -0.10782188068E+02  0.81597460163E+03  0.82994985862E+03  0.12509000000E+03 0.  0.
<mgrwt>
<rscale>  2 0.45563476E+03</rscale>
<asrwt>0</asrwt>
<pdfrwt beam="1">  1       21 0.22632248E+00 0.45563476E+03</pdfrwt>
<pdfrwt beam="2">  1       21 0.49593891E-02 0.45563476E+03</pdfrwt>
<totfact> 0.21943530E+04</totfact>
</mgrwt>
</event>
<event>
 7    0  0.4712189E-002  0.4659914E+03  0.7546771E-02  0.1023058E+00
         21   -1    0    0  502  501  0.00000000000E+00  0.00000000000E+00  0.43469086869E+02  0.43469086869E+02  0.00000000000E+00 0. -1.
         21   -1    0    0  501  502 -0.00000000000E+00 -0.00000000000E+00 -0.12488644057E+04  0.12488644057E+04  0.00000000000E+00 0. -1.
      99926    2    1    2    0    0  0.17763568394E-14  0.00000000000E+00 -0.12053953188E+04  0.12923334926E+04  0.46599139623E+03 0.  0.
      99925    2    3    3    0    0 -0.84167310725E+01  0.56870530464E+02 -0.10534673966E+04  0.10873098348E+04  0.26295251007E+03 0.  0.
         25    1    4    4    0    0  0.13392355558E+02  0.45199706672E+02 -0.66975210552E+03  0.68296248771E+03  0.12509000000E+03 0.  0.
         25    1    3    3    0    0  0.84167310725E+01 -0.56870530464E+02 -0.15192792228E+03  0.20502365782E+03  0.12509000000E+03 0.  0.
         25    1    4    4    0    0 -0.21809086631E+02  0.11670823791E+02 -0.38371529103E+03  0.40434734704E+03  0.12509000000E+03 0.  0.
<mgrwt>
<rscale>  2 0.46599140E+03</rscale>
<asrwt>0</asrwt>
<pdfrwt beam="1">  1       21 0.63925130E-02 0.46599140E+03</pdfrwt>
<pdfrwt beam="2">  1       21 0.18365653E+00 0.46599140E+03</pdfrwt>
<totfact> 0.26957806E+04</totfact>
</mgrwt>
</event>
<event>
 7    0  0.4712189E-002  0.4498119E+03  0.7546771E-02  0.1027778E+00
         21   -1    0    0  502  501  0.00000000000E+00  0.00000000000E+00  0.16780392180E+03  0.16780392180E+03  0.00000000000E+00 0. -1.
         21   -1    0    0  501  502 -0.00000000000E+00 -0.00000000000E+00 -0.30143927529E+03  0.30143927529E+03  0.00000000000E+00 0. -1.
      99926    2    1    2    0    0  0.00000000000E+00 -0.14210854715E-13 -0.13363535348E+03  0.46924319709E+03  0.44981192772E+03 0.  0.
      99925    2    3    3    0    0 -0.52709274096E+02 -0.70957380149E+02 -0.14983764303E+03  0.31521969350E+03  0.26286673149E+03 0.  0.
         25    1    3    3    0    0  0.52709274096E+02  0.70957380149E+02  0.16202289552E+02  0.15402350360E+03  0.12509000000E+03 0.  0.
         25    1    4    4    0    0 -0.41406470385E+01 -0.69345222997E+02 -0.74408405198E+02  0.16127623438E+03  0.12509000000E+03 0.  0.
         25    1    4    4    0    0 -0.48568627057E+02 -0.16121571513E+01 -0.75429237837E+02  0.15394345912E+03  0.12509000000E+03 0.  0.
<mgrwt>
<rscale>  2 0.44981193E+03</rscale>
<asrwt>0</asrwt>
<pdfrwt beam="1">  1       21 0.24677048E-01 0.44981193E+03</pdfrwt>
<pdfrwt beam="2">  1       21 0.44329305E-01 0.44981193E+03</pdfrwt>
<totfact> 0.70343327E+04</totfact>
</mgrwt>
</event>
<event>
 7    0  0.4712189E-002  0.4545265E+03  0.7546771E-02  0.1026381E+00
         21   -1    0    0  502  501  0.00000000000E+00  0.00000000000E+00  0.17485446678E+04  0.17485446678E+04  0.00000000000E+00 0. -1.
         21   -1    0    0  501  502 -0.00000000000E+00 -0.00000000000E+00 -0.29538035366E+02  0.29538035366E+02  0.00000000000E+00 0. -1.
      99926    2    1    2    0    0  0.00000000000E+00 -0.55511151231E-16  0.17190066325E+04  0.17780827032E+04  0.45452645352E+03 0.  0.
      99925    2    3    3    0    0  0.75736369893E+02  0.37121509061E+00  0.75551928449E+03  0.80356153189E+03  0.26299355651E+03 0.  0.
         25    1    4    4    0    0  0.24576292531E+02 -0.13921249230E+02  0.47267573832E+03  0.48976285795E+03  0.12509000000E+03 0.  0.
         25    1    4    4    0    0  0.51160077362E+02  0.14292464320E+02  0.28284354618E+03  0.31379867394E+03  0.12509000000E+03 0.  0.
         25    1    3    3    0    0 -0.75736369893E+02 -0.37121509061E+00  0.96348734799E+03  0.97452117132E+03  0.12509000000E+03 0.  0.
<mgrwt>
<rscale>  2 0.45452645E+03</rscale>
<asrwt>0</asrwt>
<pdfrwt beam="1">  1       21 0.25713885E+00 0.45452645E+03</pdfrwt>
<pdfrwt beam="2">  1       21 0.43438299E-02 0.45452645E+03</pdfrwt>
<totfact> 0.17749576E+04</totfact>
</mgrwt>
</event>
<event>
 7    0  0.4712189E-002  0.4671605E+03  0.7546771E-02  0.1022725E+00
         21   -1    0    0  502  501  0.00000000000E+00  0.00000000000E+00  0.11193922253E+03  0.11193922253E+03  0.00000000000E+00 0.  1.
         21   -1    0    0  501  502 -0.00000000000E+00 -0.00000000000E+00 -0.48740487527E+03  0.48740487527E+03  0.00000000000E+00 0.  1.
      99926    2    1    2    0    0  0.00000000000E+00  0.17763568394E-14 -0.37546565274E+03  0.59934409780E+03  0.46716045550E+03 0.  0.
      99925    2    3    3    0    0 -0.54243753289E+02 -0.88399684868E+01 -0.37682274911E+03  0.46270632987E+03  0.26283309084E+03 0.  0.
         25    1    4    4    0    0 -0.10748782458E+02  0.21602061719E+02 -0.22799290577E+03  0.26117132036E+03  0.12509000000E+03 0.  0.
         25    1    4    4    0    0 -0.43494970831E+02 -0.30442030206E+02 -0.14882984334E+03  0.20153500952E+03  0.12509000000E+03 0.  0.
         25    1    3    3    0    0  0.54243753289E+02  0.88399684868E+01  0.13570963770E+01  0.13663776793E+03  0.12509000000E+03 0.  0.
<mgrwt>
<rscale>  2 0.46716046E+03</rscale>
<asrwt>0</asrwt>
<pdfrwt beam="1">  1       21 0.16461651E-01 0.46716046E+03</pdfrwt>
<pdfrwt beam="2">  1       21 0.71677186E-01 0.46716046E+03</pdfrwt>
<totfact> 0.53399493E+04</totfact>
</mgrwt>
</event>
<event>
 7    0  0.4712189E-002  0.4595906E+03  0.7546771E-02  0.1024900E+00
         21   -1    0    0  502  501  0.00000000000E+00  0.00000000000E+00  0.29744226298E+03  0.29744226298E+03  0.00000000000E+00 0. -1.
         21   -1    0    0  501  502 -0.00000000000E+00 -0.00000000000E+00 -0.17753324594E+03  0.17753324594E+03  0.00000000000E+00 0. -1.
      99926    2    1    2    0    0 -0.14210854715E-13  0.17763568394E-14  0.11990901704E+03  0.47497550892E+03  0.45959064580E+03 0.  0.
      99925    2    3    3    0    0  0.11526749155E+03 -0.13939154999E+02  0.93301044640E+02  0.30224338410E+03  0.26299255436E+03 0.  0.
         25    1    4    4    0    0  0.33156001368E+02  0.55924849759E-01  0.78198128679E+02  0.15120112097E+03  0.12509000000E+03 0.  0.
         25    1    3    3    0    0 -0.11526749155E+03  0.13939154999E+02  0.26607972400E+02  0.17273212482E+03  0.12509000000E+03 0.  0.
         25    1    4    4    0    0  0.82111490184E+02 -0.13995079849E+02  0.15102915961E+02  0.15104226313E+03  0.12509000000E+03 0.  0.
<mgrwt>
<rscale>  2 0.45959065E+03</rscale>
<asrwt>0</asrwt>
<pdfrwt beam="1">  1       21 0.43741509E-01 0.45959065E+03</pdfrwt>
<pdfrwt beam="2">  1       21 0.26107830E-01 0.45959065E+03</pdfrwt>
<totfact> 0.64679533E+04</totfact>
</mgrwt>
</event>
<event>
 7    0  0.4712189E-002  0.4588731E+03  0.7546771E-02  0.1025109E+00
         21   -1    0    0  502  501  0.00000000000E+00  0.00000000000E+00  0.46404198291E+02  0.46404198291E+02  0.00000000000E+00 0.  1.
         21   -1    0    0  501  502 -0.00000000000E+00 -0.00000000000E+00 -0.11344046349E+04  0.11344046349E+04  0.00000000000E+00 0.  1.
      99926    2    1    2    0    0  0.00000000000E+00  0.00000000000E+00 -0.10880004366E+04  0.11808088332E+04  0.45887313114E+03 0.  0.
      99925    2    3    3    0    0 -0.52748570725E+02  0.64509875341E+02 -0.47180615546E+03  0.54654797523E+03  0.26300134061E+03 0.  0.
         25    1    4    4    0    0 -0.49219738661E+02  0.21360488749E+02 -0.30190151308E+03  0.33116594761E+03  0.12509000000E+03 0.  0.
         25    1    4    4    0    0 -0.35288320644E+01  0.43149386592E+02 -0.16990464238E+03  0.21538202762E+03  0.12509000000E+03 0.  0.
         25    1    3    3    0    0  0.52748570725E+02 -0.64509875341E+02 -0.61619428117E+03  0.63426085799E+03  0.12509000000E+03 0.  0.
<mgrwt>
<rscale>  2 0.45887313E+03</rscale>
<asrwt>0</asrwt>
<pdfrwt beam="1">  1       21 0.68241460E-02 0.45887313E+03</pdfrwt>
<pdfrwt beam="2">  1       21 0.16682423E+00 0.45887313E+03</pdfrwt>
<totfact> 0.31799685E+04</totfact>
</mgrwt>
</event>
<event>
 7    0  0.4712189E-002  0.4537499E+03  0.7546771E-02  0.1026610E+00
         21   -1    0    0  502  501  0.00000000000E+00  0.00000000000E+00  0.88084176910E+02  0.88084176910E+02  0.00000000000E+00 0. -1.
         21   -1    0    0  501  502 -0.00000000000E+00 -0.00000000000E+00 -0.58435292680E+03  0.58435292680E+03  0.00000000000E+00 0. -1.
      99926    2    1    2    0    0  0.00000000000E+00  0.00000000000E+00 -0.49626874989E+03  0.67243710371E+03  0.45374991607E+03 0.  0.
      99925    2    3    3    0    0  0.14178520097E+02 -0.11085835356E+03 -0.32702730653E+03  0.43414992563E+03  0.26277118130E+03 0.  0.
         25    1    4    4    0    0  0.52441357852E+01 -0.36131328145E+02 -0.10008670554E+03  0.16431016572E+03  0.12509000000E+03 0.  0.
         25    1    4    4    0    0  0.89343843123E+01 -0.74727025415E+02 -0.22694060099E+03  0.26983975991E+03  0.12509000000E+03 0.  0.
         25    1    3    3    0    0 -0.14178520097E+02  0.11085835356E+03 -0.16924144336E+03  0.23828717808E+03  0.12509000000E+03 0.  0.
<mgrwt>
<rscale>  2 0.45374992E+03</rscale>
<asrwt>0</asrwt>
<pdfrwt beam="1">  1       21 0.12953555E-01 0.45374992E+03</pdfrwt>
<pdfrwt beam="2">  1       21 0.85934255E-01 0.45374992E+03</pdfrwt>
<totfact> 0.54964971E+04</totfact>
</mgrwt>
</event>
<event>
 7    0  0.4712189E-002  0.4613997E+03  0.7546771E-02  0.1024376E+00
         21   -1    0    0  502  501  0.00000000000E+00  0.00000000000E+00  0.43602382010E+03  0.43602382010E+03  0.00000000000E+00 0. -1.
         21   -1    0    0  501  502 -0.00000000000E+00 -0.00000000000E+00 -0.12206311950E+03  0.12206311950E+03  0.00000000000E+00 0. -1.
      99926    2    1    2    0    0  0.00000000000E+00  0.00000000000E+00  0.31396070059E+03  0.55808693960E+03  0.46139972977E+03 0.  0.
      99925    2    3    3    0    0  0.55181361846E+02 -0.44352086082E+02  0.80658661408E+02  0.28406241547E+03  0.26300864242E+03 0.  0.
         25    1    3    3    0    0 -0.55181361846E+02  0.44352086082E+02  0.23330203919E+03  0.27402452413E+03  0.12509000000E+03 0.  0.
         25    1    4    4    0    0 -0.76410702218E+00 -0.37373633324E+02  0.13358653212E+02  0.13123770054E+03  0.12509000000E+03 0.  0.
         25    1    4    4    0    0  0.55945468868E+02 -0.69784527574E+01  0.67300008196E+02  0.15282471493E+03  0.12509000000E+03 0.  0.
<mgrwt>
<rscale>  2 0.46139973E+03</rscale>
<asrwt>0</asrwt>
<pdfrwt beam="1">  1       21 0.64121149E-01 0.46139973E+03</pdfrwt>
<pdfrwt beam="2">  1       21 0.17950459E-01 0.46139973E+03</pdfrwt>
<totfact> 0.58325984E+04</totfact>
</mgrwt>
</event>
<event>
 7    0  0.4712189E-002  0.4597962E+03  0.7546771E-02  0.1024840E+00
         21   -1    0    0  502  501  0.00000000000E+00  0.00000000000E+00  0.43932208802E+03  0.43932208802E+03  0.00000000000E+00 0.  1.
         21   -1    0    0  501  502 -0.00000000000E+00 -0.00000000000E+00 -0.12030609965E+03  0.12030609965E+03  0.00000000000E+00 0.  1.
      99926    2    1    2    0    0  0.00000000000E+00  0.00000000000E+00  0.31901598837E+03  0.55962818767E+03  0.45979615875E+03 0.  0.
      99925    2    3    3    0    0 -0.86770830029E+02  0.36963089102E+02  0.28547070929E+03  0.39941507726E+03  0.26295138558E+03 0.  0.
         25    1    4    4    0    0 -0.27171964611E+02 -0.75581005134E+01  0.94410154242E+02  0.15923638362E+03  0.12509000000E+03 0.  0.
         25    1    3    3    0    0  0.86770830029E+02 -0.36963089102E+02  0.33545279077E+02  0.16021311041E+03  0.12509000000E+03 0.  0.
         25    1    4    4    0    0 -0.59598865418E+02  0.44521189616E+02  0.19106055505E+03  0.24017869364E+03  0.12509000000E+03 0.  0.
<mgrwt>
<rscale>  2 0.45979616E+03</rscale>
<asrwt>0</asrwt>
<pdfrwt beam="1">  1       21 0.64606189E-01 0.45979616E+03</pdfrwt>
<pdfrwt beam="2">  1       21 0.17692074E-01 0.45979616E+03</pdfrwt>
<totfact> 0.58965648E+04</totfact>
</mgrwt>
</event>
<event>
 7    0  0.4712189E-002  0.4479366E+03  0.7546771E-02  0.1028339E+00
         21   -1    0    0  502  501  0.00000000000E+00  0.00000000000E+00  0.85559264216E+02  0.85559264216E+02  0.00000000000E+00 0. -1.
         21   -1    0    0  501  502 -0.00000000000E+00 -0.00000000000E+00 -0.58628122042E+03  0.58628122042E+03  0.00000000000E+00 0. -1.
      99926    2    1    2    0    0  0.26645352591E-14  0.00000000000E+00 -0.50072195621E+03  0.67184048464E+03  0.44793655731E+03 0.  0.
      99925    2    3    3    0    0  0.19332410768E+01  0.10589799377E+03 -0.30142683671E+03  0.41380138826E+03  0.26297400733E+03 0.  0.
         25    1    4    4    0    0 -0.22193517600E+02  0.86558937845E+02 -0.18047032767E+03  0.23706971383E+03  0.12509000000E+03 0.  0.
         25    1    4    4    0    0  0.24126758677E+02  0.19339055924E+02 -0.12095650903E+03  0.17673167443E+03  0.12509000000E+03 0.  0.
         25    1    3    3    0    0 -0.19332410768E+01 -0.10589799377E+03 -0.19929511950E+03  0.25803909638E+03  0.12509000000E+03 0.  0.
<mgrwt>
<rscale>  2 0.44793656E+03</rscale>
<asrwt>0</asrwt>
<pdfrwt beam="1">  1       21 0.12582245E-01 0.44793656E+03</pdfrwt>
<pdfrwt beam="2">  1       21 0.86217825E-01 0.44793656E+03</pdfrwt>
<totfact> 0.57597488E+04</totfact>
</mgrwt>
</event>
<event>
 7    0  0.4712189E-002  0.4555362E+03  0.7546771E-02  0.1026084E+00
         21   -1    0    0  502  501  0.00000000000E+00  0.00000000000E+00  0.14737572375E+03  0.14737572375E+03  0.00000000000E+00 0.  1.
         21   -1    0    0  501  502 -0.00000000000E+00 -0.00000000000E+00 -0.35201399107E+03  0.35201399107E+03  0.00000000000E+00 0.  1.
      99926    2    1    2    0    0  0.00000000000E+00  0.00000000000E+00 -0.20463826732E+03  0.49938971482E+03  0.45553624094E+03 0.  0.
      99925    2    3    3    0    0  0.12244463495E+02  0.11300546175E+03 -0.11910218993E+03  0.30995875139E+03  0.26261937218E+03 0.  0.
         25    1    3    3    0    0 -0.12244463495E+02 -0.11300546175E+03 -0.85536077389E+02  0.18943096343E+03  0.12509000000E+03 0.  0.
         25    1    4    4    0    0 -0.10288868799E+02  0.23189841838E+02 -0.31913435389E+02  0.13156597221E+03  0.12509000000E+03 0.  0.
         25    1    4    4    0    0  0.22533332294E+02  0.89815619908E+02 -0.87188754539E+02  0.17839277918E+03  0.12509000000E+03 0.  0.
<mgrwt>
<rscale>  2 0.45553624E+03</rscale>
<asrwt>0</asrwt>
<pdfrwt beam="1">  1       21 0.21672901E-01 0.45553624E+03</pdfrwt>
<pdfrwt beam="2">  1       21 0.51766763E-01 0.45553624E+03</pdfrwt>
<totfact> 0.65036271E+04</totfact>
</mgrwt>
</event>
<event>
 7    0  0.4712189E-002  0.4496962E+03  0.7546771E-02  0.1027813E+00
         21   -1    0    0  502  501  0.00000000000E+00  0.00000000000E+00  0.19734769822E+03  0.19734769822E+03  0.00000000000E+00 0.  1.
         21   -1    0    0  501  502 -0.00000000000E+00 -0.00000000000E+00 -0.25618072382E+03  0.25618072382E+03  0.00000000000E+00 0.  1.
      99926    2    1    2    0    0  0.00000000000E+00  0.71054273576E-14 -0.58833025599E+02  0.45352842204E+03  0.44969623603E+03 0.  0.
      99925    2    3    3    0    0 -0.16051821129E+02  0.36921291621E+02  0.64005157574E+02  0.27364632154E+03  0.26299202718E+03 0.  0.
         25    1    3    3    0    0  0.16051821129E+02 -0.36921291621E+02 -0.12283818317E+03  0.17988210050E+03  0.12509000000E+03 0.  0.
         25    1    4    4    0    0 -0.12205323612E+01  0.28206937848E+01 -0.65407482035E+01  0.12529858539E+03  0.12509000000E+03 0.  0.
         25    1    4    4    0    0 -0.14831288768E+02  0.34100597836E+02  0.70545905777E+02  0.14834773615E+03  0.12509000000E+03 0.  0.
<mgrwt>
<rscale>  2 0.44969624E+03</rscale>
<asrwt>0</asrwt>
<pdfrwt beam="1">  1       21 0.29021721E-01 0.44969624E+03</pdfrwt>
<pdfrwt beam="2">  1       21 0.37673636E-01 0.44969624E+03</pdfrwt>
<totfact> 0.71637181E+04</totfact>
</mgrwt>
</event>
<event>
 7    0  0.4712189E-002  0.4508673E+03  0.7546771E-02  0.1027464E+00
         21   -1    0    0  502  501  0.00000000000E+00  0.00000000000E+00  0.32180244614E+02  0.32180244614E+02  0.00000000000E+00 0.  1.
         21   -1    0    0  501  502 -0.00000000000E+00 -0.00000000000E+00 -0.15792397843E+04  0.15792397843E+04  0.00000000000E+00 0.  1.
      99926    2    1    2    0    0  0.00000000000E+00  0.00000000000E+00 -0.15470595397E+04  0.16114200289E+04  0.45086726456E+03 0.  0.
      99925    2    3    3    0    0 -0.50252479068E+02  0.96310635709E+02 -0.10212424076E+04  0.10601195530E+04  0.26289990768E+03 0.  0.
         25    1    4    4    0    0 -0.61621810091E+01  0.78535984859E+02 -0.60978393429E+03  0.62744707188E+03  0.12509000000E+03 0.  0.
         25    1    4    4    0    0 -0.44090298059E+02  0.17774650850E+02 -0.41145847332E+03  0.43267248117E+03  0.12509000000E+03 0.  0.
         25    1    3    3    0    0  0.50252479068E+02 -0.96310635709E+02 -0.52581713211E+03  0.55130047589E+03  0.12509000000E+03 0.  0.
<mgrwt>
<rscale>  2 0.45086726E+03</rscale>
<asrwt>0</asrwt>
<pdfrwt beam="1">  1       21 0.47323882E-02 0.45086726E+03</pdfrwt>
<pdfrwt beam="2">  1       21 0.23224118E+00 0.45086726E+03</pdfrwt>
<totfact> 0.21866259E+04</totfact>
</mgrwt>
</event>
<event>
 7    0  0.4712189E-002  0.4569297E+03  0.7546771E-02  0.1025675E+00
         21   -1    0    0  502  501  0.00000000000E+00  0.00000000000E+00  0.78824041833E+02  0.78824041833E+02  0.00000000000E+00 0. -1.
         21   -1    0    0  501  502 -0.00000000000E+00 -0.00000000000E+00 -0.66218616187E+03  0.66218616187E+03  0.00000000000E+00 0. -1.
      99926    2    1    2    0    0  0.00000000000E+00 -0.35527136788E-14 -0.58336212003E+03  0.74101020370E+03  0.45692970892E+03 0.  0.
      99925    2    3    3    0    0  0.81640351042E+02 -0.20536720101E+02 -0.49340012373E+03  0.56543237859E+03  0.26302697366E+03 0.  0.
         25    1    4    4    0    0  0.35952700959E+02  0.13962301585E+02 -0.30718964306E+03  0.33391694697E+03  0.12509000000E+03 0.  0.
         25    1    4    4    0    0  0.45687650082E+02 -0.34499021686E+02 -0.18621048067E+03  0.23151543162E+03  0.12509000000E+03 0.  0.
         25    1    3    3    0    0 -0.81640351042E+02  0.20536720101E+02 -0.89961996306E+02  0.17557782511E+03  0.12509000000E+03 0.  0.
<mgrwt>
<rscale>  2 0.45692971E+03</rscale>
<asrwt>0</asrwt>
<pdfrwt beam="1">  1       21 0.11591770E-01 0.45692971E+03</pdfrwt>
<pdfrwt beam="2">  1       21 0.97380321E-01 0.45692971E+03</pdfrwt>
<totfact> 0.49969911E+04</totfact>
</mgrwt>
</event>
<event>
 7    0  0.4712189E-002  0.4218797E+03  0.7546771E-02  0.1036456E+00
         21   -1    0    0  502  501  0.00000000000E+00  0.00000000000E+00  0.13973545525E+03  0.13973545525E+03  0.00000000000E+00 0. -1.
         21   -1    0    0  501  502 -0.00000000000E+00 -0.00000000000E+00 -0.31842757602E+03  0.31842757602E+03  0.00000000000E+00 0. -1.
      99926    2    1    2    0    0 -0.71054273576E-14  0.00000000000E+00 -0.17869212077E+03  0.45816303127E+03  0.42187970939E+03 0.  0.
      99925    2    3    3    0    0 -0.41043043035E+02 -0.28172202741E+02 -0.51192271113E+02  0.27273939698E+03  0.26322599730E+03 0.  0.
         25    1    4    4    0    0 -0.35873127481E+01  0.15214338225E+02 -0.48634242857E+02  0.13511899414E+03  0.12509000000E+03 0.  0.
         25    1    4    4    0    0 -0.37455730287E+02 -0.43386540966E+02 -0.25580282566E+01  0.13762040284E+03  0.12509000000E+03 0.  0.
         25    1    3    3    0    0  0.41043043035E+02  0.28172202741E+02 -0.12749984966E+03  0.18542363429E+03  0.12509000000E+03 0.  0.
<mgrwt>
<rscale>  2 0.42187971E+03</rscale>
<asrwt>0</asrwt>
<pdfrwt beam="1">  1       21 0.20549332E-01 0.42187971E+03</pdfrwt>
<pdfrwt beam="2">  1       21 0.46827585E-01 0.42187971E+03</pdfrwt>
<totfact> 0.89680836E+04</totfact>
</mgrwt>
</event>
<event>
 7    0  0.4712189E-002  0.4397818E+03  0.7546771E-02  0.1030814E+00
         21   -1    0    0  502  501  0.00000000000E+00  0.00000000000E+00  0.52730581650E+03  0.52730581650E+03  0.00000000000E+00 0. -1.
         21   -1    0    0  501  502 -0.00000000000E+00 -0.00000000000E+00 -0.91696327349E+02  0.91696327349E+02  0.00000000000E+00 0. -1.
      99926    2    1    2    0    0  0.13322676296E-14  0.00000000000E+00  0.43560948915E+03  0.61900214385E+03  0.43978179482E+03 0.  0.
      99925    2    3    3    0    0  0.39158570381E+01 -0.76111811155E+02  0.19168736296E+03  0.33447823715E+03  0.26329319072E+03 0.  0.
         25    1    4    4    0    0 -0.28710857472E+02 -0.55946988702E+02  0.12470023587E+03  0.18748876182E+03  0.12509000000E+03 0.  0.
         25    1    4    4    0    0  0.32626714510E+02 -0.20164822453E+02  0.66987127082E+02  0.14698947533E+03  0.12509000000E+03 0.  0.
         25    1    3    3    0    0 -0.39158570381E+01  0.76111811155E+02  0.24392212620E+03  0.28452390670E+03  0.12509000000E+03 0.  0.
<mgrwt>
<rscale>  2 0.43978179E+03</rscale>
<asrwt>0</asrwt>
<pdfrwt beam="1">  1       21 0.77544972E-01 0.43978179E+03</pdfrwt>
<pdfrwt beam="2">  1       21 0.13484754E-01 0.43978179E+03</pdfrwt>
<totfact> 0.64987710E+04</totfact>
</mgrwt>
</event>
<event>
 7    0  0.5577653E-002  0.4212892E+03  0.7546771E-02  0.1036648E+00
         21   -1    0    0  502  501  0.00000000000E+00  0.00000000000E+00  0.12654552864E+03  0.12654552864E+03  0.00000000000E+00 0. -1.
         21   -1    0    0  501  502 -0.00000000000E+00 -0.00000000000E+00 -0.35063380991E+03  0.35063380991E+03  0.00000000000E+00 0. -1.
      99926    2    1    2    0    0 -0.71054273576E-14  0.00000000000E+00 -0.22408828128E+03  0.47717933855E+03  0.42128916831E+03 0.  0.
      99925    2    3    3    0    0 -0.61937032086E+02 -0.22939206486E+02 -0.18919434388E+03  0.33148274249E+03  0.26405284636E+03 0.  0.
         25    1    4    4    0    0 -0.32063207269E+01 -0.25869067185E+02 -0.55933534265E+02  0.13948317994E+03  0.12509000000E+03 0.  0.
         25    1    4    4    0    0 -0.58730711359E+02  0.29298606985E+01 -0.13326080962E+03  0.19199956255E+03  0.12509000000E+03 0.  0.
         25    1    3    3    0    0  0.61937032086E+02  0.22939206486E+02 -0.34893937394E+02  0.14569659606E+03  0.12509000000E+03 0.  0.
<mgrwt>
<rscale>  2 0.42128917E+03</rscale>
<asrwt>0</asrwt>
<pdfrwt beam="1">  1       21 0.18609636E-01 0.42128917E+03</pdfrwt>
<pdfrwt beam="2">  1       21 0.51563796E-01 0.42128917E+03</pdfrwt>
<totfact> 0.88262753E+04</totfact>
</mgrwt>
</event>
<event>
 7    0  0.4712189E-002  0.4531837E+03  0.7546771E-02  0.1026777E+00
         21   -1    0    0  502  501  0.00000000000E+00  0.00000000000E+00  0.70199927683E+03  0.70199927683E+03  0.00000000000E+00 0. -1.
         21   -1    0    0  501  502 -0.00000000000E+00 -0.00000000000E+00 -0.73139495695E+02  0.73139495695E+02  0.00000000000E+00 0. -1.
      99926    2    1    2    0    0  0.00000000000E+00  0.00000000000E+00  0.62885978113E+03  0.77513877252E+03  0.45318372912E+03 0.  0.
      99925    2    3    3    0    0  0.55079420312E+02 -0.51138853840E+02  0.25540464607E+03  0.37418344967E+03  0.26293116183E+03 0.  0.
         25    1    4    4    0    0  0.35322570365E+02 -0.41260991680E+02  0.18216658369E+03  0.22755730207E+03  0.12509000000E+03 0.  0.
         25    1    4    4    0    0  0.19756849948E+02 -0.98778621596E+01  0.73238062377E+02  0.14662614760E+03  0.12509000000E+03 0.  0.
         25    1    3    3    0    0 -0.55079420312E+02  0.51138853840E+02  0.37345513507E+03  0.40095532285E+03  0.12509000000E+03 0.  0.
<mgrwt>
<rscale>  2 0.45318373E+03</rscale>
<asrwt>0</asrwt>
<pdfrwt beam="1">  1       21 0.10323518E+00 0.45318373E+03</pdfrwt>
<pdfrwt beam="2">  1       21 0.10755809E-01 0.45318373E+03</pdfrwt>
<totfact> 0.49695580E+04</totfact>
</mgrwt>
</event>
<event>
 7    0  0.4712189E-002  0.4544069E+03  0.7546771E-02  0.1026416E+00
         21   -1    0    0  502  501  0.00000000000E+00  0.00000000000E+00  0.59320721219E+02  0.59320721219E+02  0.00000000000E+00 0.  1.
         21   -1    0    0  501  502 -0.00000000000E+00 -0.00000000000E+00 -0.87020863991E+03  0.87020863991E+03  0.00000000000E+00 0.  1.
      99926    2    1    2    0    0  0.00000000000E+00  0.00000000000E+00 -0.81088791869E+03  0.92952936113E+03  0.45440688432E+03 0.  0.
      99925    2    3    3    0    0  0.17431762376E+02  0.96381981492E+02 -0.62404916991E+03  0.68427525038E+03  0.26306253840E+03 0.  0.
         25    1    3    3    0    0 -0.17431762376E+02 -0.96381981492E+02 -0.18683874878E+03  0.24525411075E+03  0.12509000000E+03 0.  0.
         25    1    4    4    0    0 -0.57246389024E+01  0.87753027906E+02 -0.35569490856E+03  0.38716887979E+03  0.12509000000E+03 0.  0.
         25    1    4    4    0    0  0.23156401279E+02  0.86289535855E+01 -0.26835426135E+03  0.29710637059E+03  0.12509000000E+03 0.  0.
<mgrwt>
<rscale>  2 0.45440688E+03</rscale>
<asrwt>0</asrwt>
<pdfrwt beam="1">  1       21 0.87236361E-02 0.45440688E+03</pdfrwt>
<pdfrwt beam="2">  1       21 0.12797185E+00 0.45440688E+03</pdfrwt>
<totfact> 0.42176381E+04</totfact>
</mgrwt>
</event>
<event>
 7    0  0.4712189E-002  0.4578949E+03  0.7546771E-02  0.1025394E+00
         21   -1    0    0  502  501  0.00000000000E+00  0.00000000000E+00  0.24111794075E+03  0.24111794075E+03  0.00000000000E+00 0.  1.
         21   -1    0    0  501  502 -0.00000000000E+00 -0.00000000000E+00 -0.21739126634E+03  0.21739126634E+03  0.00000000000E+00 0.  1.
      99926    2    1    2    0    0  0.00000000000E+00  0.88817841970E-15  0.23726674406E+02  0.45850920709E+03  0.45789489832E+03 0.  0.
      99925    2    3    3    0    0 -0.11499215367E+03 -0.54696245326E+01  0.27870594137E+02  0.28845688464E+03  0.26301614414E+03 0.  0.
         25    1    4    4    0    0 -0.81636482607E+02  0.30871981923E+02  0.10767577692E+02  0.15290861123E+03  0.12509000000E+03 0.  0.
         25    1    3    3    0    0  0.11499215367E+03  0.54696245326E+01 -0.41439197309E+01  0.17005232245E+03  0.12509000000E+03 0.  0.
         25    1    4    4    0    0 -0.33355671065E+02 -0.36341606456E+02  0.17103016445E+02  0.13554827341E+03  0.12509000000E+03 0.  0.
<mgrwt>
<rscale>  2 0.45789490E+03</rscale>
<asrwt>0</asrwt>
<pdfrwt beam="1">  1       21 0.35458521E-01 0.45789490E+03</pdfrwt>
<pdfrwt beam="2">  1       21 0.31969304E-01 0.45789490E+03</pdfrwt>
<totfact> 0.66734693E+04</totfact>
</mgrwt>
</event>
<event>
 7    0  0.4712189E-002  0.4331921E+03  0.7546771E-02  0.1032856E+00
         21   -1    0    0  502  501  0.00000000000E+00  0.00000000000E+00  0.17763119130E+03  0.17763119130E+03  0.00000000000E+00 0. -1.
         21   -1    0    0  501  502 -0.00000000000E+00 -0.00000000000E+00 -0.26410814975E+03  0.26410814975E+03  0.00000000000E+00 0. -1.
      99926    2    1    2    0    0  0.00000000000E+00  0.00000000000E+00 -0.86476958446E+02  0.44173934105E+03  0.43319208336E+03 0.  0.
      99925    2    3    3    0    0 -0.72182056480E+02 -0.40831596623E+02 -0.16928479558E+02  0.27632480850E+03  0.26304250192E+03 0.  0.
         25    1    4    4    0    0 -0.69893318779E+02 -0.35787478103E+02  0.10768924269E+02  0.14808543962E+03  0.12509000000E+03 0.  0.
         25    1    3    3    0    0  0.72182056480E+02  0.40831596623E+02 -0.69548478888E+02  0.16541453254E+03  0.12509000000E+03 0.  0.
         25    1    4    4    0    0 -0.22887377011E+01 -0.50441185196E+01 -0.27697403827E+02  0.12823936888E+03  0.12509000000E+03 0.  0.
<mgrwt>
<rscale>  2 0.43319208E+03</rscale>
<asrwt>0</asrwt>
<pdfrwt beam="1">  1       21 0.26122234E-01 0.43319208E+03</pdfrwt>
<pdfrwt beam="2">  1       21 0.38839433E-01 0.43319208E+03</pdfrwt>
<totfact> 0.83057753E+04</totfact>
</mgrwt>
</event>
<event>
 7    0  0.4712189E-002  0.4186210E+03  0.7546771E-02  0.1037516E+00
         21   -1    0    0  502  501  0.00000000000E+00  0.00000000000E+00  0.26366536378E+02  0.26366536378E+02  0.00000000000E+00 0.  1.
         21   -1    0    0  501  502 -0.00000000000E+00 -0.00000000000E+00 -0.16616091786E+04  0.16616091786E+04  0.00000000000E+00 0.  1.
      99926    2    1    2    0    0  0.00000000000E+00  0.00000000000E+00 -0.16352426422E+04  0.16879757150E+04  0.41862096868E+03 0.  0.
      99925    2    3    3    0    0 -0.52295907926E+02 -0.46832356649E+02 -0.11607428052E+04  0.11922684072E+04  0.26315767747E+03 0.  0.
         25    1    3    3    0    0  0.52295907926E+02  0.46832356649E+02 -0.47449983703E+03  0.49570730785E+03  0.12509000000E+03 0.  0.
         25    1    4    4    0    0 -0.78397018317E+01 -0.36164585466E+02 -0.72443611041E+03  0.73608730755E+03  0.12509000000E+03 0.  0.
         25    1    4    4    0    0 -0.44456206094E+02 -0.10667771183E+02 -0.43630669481E+03  0.45618109960E+03  0.12509000000E+03 0.  0.
<mgrwt>
<rscale>  2 0.41862097E+03</rscale>
<asrwt>0</asrwt>
<pdfrwt beam="1">  1       21 0.38774310E-02 0.41862097E+03</pdfrwt>
<pdfrwt beam="2">  1       21 0.24435435E+00 0.41862097E+03</pdfrwt>
<totfact> 0.26156199E+04</totfact>
</mgrwt>
</event>
<event>
 7    0  0.4712189E-002  0.4511268E+03  0.7546771E-02  0.1027387E+00
         21   -1    0    0  502  501  0.00000000000E+00  0.00000000000E+00  0.27902702215E+03  0.27902702215E+03  0.00000000000E+00 0.  1.
         21   -1    0    0  501  502 -0.00000000000E+00 -0.00000000000E+00 -0.18234383854E+03  0.18234383854E+03  0.00000000000E+00 0.  1.
      99926    2    1    2    0    0  0.14210854715E-13  0.00000000000E+00  0.96683183611E+02  0.46137086068E+03  0.45112684812E+03 0.  0.
      99925    2    3    3    0    0 -0.87131795579E+02 -0.65700333033E+02  0.71656287420E+02  0.29349490292E+03  0.26286146723E+03 0.  0.
         25    1    4    4    0    0 -0.22978559172E+02 -0.34850338830E+02  0.70564641327E+02  0.14956415681E+03  0.12509000000E+03 0.  0.
         25    1    3    3    0    0  0.87131795579E+02  0.65700333033E+02  0.25026896192E+02  0.16787595776E+03  0.12509000000E+03 0.  0.
         25    1    4    4    0    0 -0.64153236407E+02 -0.30849994203E+02  0.10916460931E+01  0.14393074611E+03  0.12509000000E+03 0.  0.
<mgrwt>
<rscale>  2 0.45112685E+03</rscale>
<asrwt>0</asrwt>
<pdfrwt beam="1">  1       21 0.41033386E-01 0.45112685E+03</pdfrwt>
<pdfrwt beam="2">  1       21 0.26815270E-01 0.45112685E+03</pdfrwt>
<totfact> 0.70216009E+04</totfact>
</mgrwt>
</event>
<event>
 7    0  0.4712189E-002  0.4568455E+03  0.7546771E-02  0.1025700E+00
         21   -1    0    0  502  501  0.00000000000E+00  0.00000000000E+00  0.18012325800E+03  0.18012325800E+03  0.00000000000E+00 0.  1.
         21   -1    0    0  501  502 -0.00000000000E+00 -0.00000000000E+00 -0.28967358919E+03  0.28967358919E+03  0.00000000000E+00 0.  1.
      99926    2    1    2    0    0  0.00000000000E+00  0.00000000000E+00 -0.10955033119E+03  0.46979684719E+03  0.45684549091E+03 0.  0.
      99925    2    3    3    0    0 -0.11189627014E+03 -0.10106047241E+02 -0.43530192603E+02  0.28916165056E+03  0.26286246408E+03 0.  0.
         25    1    4    4    0    0 -0.47855009668E+02 -0.25729316235E+02  0.12752959804E+02  0.13697534723E+03  0.12509000000E+03 0.  0.
         25    1    3    3    0    0  0.11189627014E+03  0.10106047241E+02 -0.66020138582E+02  0.18063519663E+03  0.12509000000E+03 0.  0.
         25    1    4    4    0    0 -0.64041260472E+02  0.15623268994E+02 -0.56283152407E+02  0.15218630333E+03  0.12509000000E+03 0.  0.
<mgrwt>
<rscale>  2 0.45684549E+03</rscale>
<asrwt>0</asrwt>
<pdfrwt beam="1">  1       21 0.26488715E-01 0.45684549E+03</pdfrwt>
<pdfrwt beam="2">  1       21 0.42599057E-01 0.45684549E+03</pdfrwt>
<totfact> 0.66472464E+04</totfact>
</mgrwt>
</event>
<event>
 7    0  0.4712189E-002  0.4540511E+03  0.7546771E-02  0.1026521E+00
         21   -1    0    0  502  501  0.00000000000E+00  0.00000000000E+00  0.70005478177E+02  0.70005478177E+02  0.00000000000E+00 0.  1.
         21   -1    0    0  501  502 -0.00000000000E+00 -0.00000000000E+00 -0.73623657058E+03  0.73623657058E+03  0.00000000000E+00 0.  1.
      99926    2    1    2    0    0  0.00000000000E+00  0.00000000000E+00 -0.66623109240E+03  0.80624204875E+03  0.45405106838E+03 0.  0.
      99925    2    3    3    0    0 -0.46248563849E+02 -0.96441643450E+02 -0.47982534894E+03  0.55757655146E+03  0.26309565751E+03 0.  0.
         25    1    4    4    0    0  0.60034025872E+01 -0.22965639049E+02 -0.25405920792E+03  0.28417785038E+03  0.12509000000E+03 0.  0.
         25    1    4    4    0    0 -0.52251966436E+02 -0.73476004401E+02 -0.22576614102E+03  0.27339870108E+03  0.12509000000E+03 0.  0.
         25    1    3    3    0    0  0.46248563849E+02  0.96441643450E+02 -0.18640574346E+03  0.24866549729E+03  0.12509000000E+03 0.  0.
<mgrwt>
<rscale>  2 0.45405107E+03</rscale>
<asrwt>0</asrwt>
<pdfrwt beam="1">  1       21 0.10294924E-01 0.45405107E+03</pdfrwt>
<pdfrwt beam="2">  1       21 0.10827008E+00 0.45405107E+03</pdfrwt>
<totfact> 0.47819472E+04</totfact>
</mgrwt>
</event>
<event>
 7    0  0.4712189E-002  0.4757871E+03  0.7546771E-02  0.1020299E+00
         21   -1    0    0  502  501  0.00000000000E+00  0.00000000000E+00  0.18224018897E+03  0.18224018897E+03  0.00000000000E+00 0. -1.
         21   -1    0    0  501  502 -0.00000000000E+00 -0.00000000000E+00 -0.31054264960E+03  0.31054264960E+03  0.00000000000E+00 0. -1.
      99926    2    1    2    0    0  0.00000000000E+00  0.00000000000E+00 -0.12830246063E+03  0.49278283858E+03  0.47578714210E+03 0.  0.
      99925    2    3    3    0    0  0.40626827765E+02 -0.89223097296E+02  0.11811786821E+02  0.28090832226E+03  0.26298035475E+03 0.  0.
         25    1    4    4    0    0  0.49658508685E+02 -0.40654915715E+02 -0.21819315086E+02  0.14227571918E+03  0.12509000000E+03 0.  0.
         25    1    3    3    0    0 -0.40626827765E+02  0.89223097296E+02 -0.14011424745E+03  0.21187451632E+03  0.12509000000E+03 0.  0.
         25    1    4    4    0    0 -0.90316809198E+01 -0.48568181581E+02  0.33631101907E+02  0.13863260308E+03  0.12509000000E+03 0.  0.
<mgrwt>
<rscale>  2 0.47578714E+03</rscale>
<asrwt>0</asrwt>
<pdfrwt beam="1">  1       21 0.26800028E-01 0.47578714E+03</pdfrwt>
<pdfrwt beam="2">  1       21 0.45668036E-01 0.47578714E+03</pdfrwt>
<totfact> 0.55961615E+04</totfact>
</mgrwt>
</event>
<event>
 7    0  0.4712189E-002  0.4582862E+03  0.7546771E-02  0.1025279E+00
         21   -1    0    0  502  501  0.00000000000E+00  0.00000000000E+00  0.33709406343E+03  0.33709406343E+03  0.00000000000E+00 0. -1.
         21   -1    0    0  501  502 -0.00000000000E+00 -0.00000000000E+00 -0.15576231058E+03  0.15576231058E+03  0.00000000000E+00 0. -1.
      99926    2    1    2    0    0  0.00000000000E+00  0.00000000000E+00  0.18133175285E+03  0.49285637401E+03  0.45828615603E+03 0.  0.
      99925    2    3    3    0    0  0.46782547655E+02  0.69853977608E+02  0.20002833223E+03  0.34098387771E+03  0.26304084514E+03 0.  0.
         25    1    4    4    0    0  0.57272729091E+02  0.15530854703E+02  0.86722094997E+02  0.16336952839E+03  0.12509000000E+03 0.  0.
         25    1    4    4    0    0 -0.10490181436E+02  0.54323122904E+02  0.11330623723E+03  0.17761434932E+03  0.12509000000E+03 0.  0.
         25    1    3    3    0    0 -0.46782547655E+02 -0.69853977608E+02 -0.18696579375E+02  0.15187249630E+03  0.12509000000E+03 0.  0.
<mgrwt>
<rscale>  2 0.45828616E+03</rscale>
<asrwt>0</asrwt>
<pdfrwt beam="1">  1       21 0.49572656E-01 0.45828616E+03</pdfrwt>
<pdfrwt beam="2">  1       21 0.22906222E-01 0.45828616E+03</pdfrwt>
<totfact> 0.64087212E+04</totfact>
</mgrwt>
</event>
<event>
 7    0  0.4712189E-002  0.4544529E+03  0.7546771E-02  0.1026402E+00
         21   -1    0    0  502  501  0.00000000000E+00  0.00000000000E+00  0.50852332065E+02  0.50852332065E+02  0.00000000000E+00 0. -1.
         21   -1    0    0  501  502 -0.00000000000E+00 -0.00000000000E+00 -0.10153290200E+04  0.10153290200E+04  0.00000000000E+00 0. -1.
      99926    2    1    2    0    0 -0.17763568394E-14  0.00000000000E+00 -0.96447668793E+03  0.10661813521E+04  0.45445285115E+03 0.  0.
      99925    2    3    3    0    0  0.12821145396E+02 -0.11001644479E+03 -0.65423225173E+03  0.71380780284E+03  0.26312305164E+03 0.  0.
         25    1    3    3    0    0 -0.12821145396E+02  0.11001644479E+03 -0.31024443621E+03  0.35237354922E+03  0.12509000000E+03 0.  0.
         25    1    4    4    0    0 -0.29306488933E+02 -0.75146840209E+02 -0.35170253541E+03  0.38190064074E+03  0.12509000000E+03 0.  0.
         25    1    4    4    0    0  0.42127634328E+02 -0.34869604581E+02 -0.30252971632E+03  0.33190716210E+03  0.12509000000E+03 0.  0.
<mgrwt>
<rscale>  2 0.45445285E+03</rscale>
<asrwt>0</asrwt>
<pdfrwt beam="1">  1       21 0.74782844E-02 0.45445285E+03</pdfrwt>
<pdfrwt beam="2">  1       21 0.14931309E+00 0.45445285E+03</pdfrwt>
<totfact> 0.36846276E+04</totfact>
</mgrwt>
</event>
<event>
 7    0  0.4712189E-002  0.4534098E+03  0.7546771E-02  0.1026710E+00
         21   -1    0    0  502  501  0.00000000000E+00  0.00000000000E+00  0.16549760045E+03  0.16549760045E+03  0.00000000000E+00 0. -1.
         21   -1    0    0  501  502 -0.00000000000E+00 -0.00000000000E+00 -0.31054905034E+03  0.31054905034E+03  0.00000000000E+00 0. -1.
      99926    2    1    2    0    0  0.00000000000E+00  0.35527136788E-14 -0.14505144988E+03  0.47604665079E+03  0.45340984839E+03 0.  0.
      99925    2    3    3    0    0  0.64258520131E+02 -0.14416885084E+02  0.31329291341E+01  0.27124644994E+03  0.26311179634E+03 0.  0.
         25    1    3    3    0    0 -0.64258520131E+02  0.14416885084E+02 -0.14818437902E+03  0.20480020085E+03  0.12509000000E+03 0.  0.
         25    1    4    4    0    0  0.51143253306E+02  0.27398656135E+02  0.11959719756E+02  0.13840831519E+03  0.12509000000E+03 0.  0.
         25    1    4    4    0    0  0.13115266825E+02 -0.41815541219E+02 -0.88267906220E+01  0.13283813475E+03  0.12509000000E+03 0.  0.
<mgrwt>
<rscale>  2 0.45340985E+03</rscale>
<asrwt>0</asrwt>
<pdfrwt beam="1">  1       21 0.24337883E-01 0.45340985E+03</pdfrwt>
<pdfrwt beam="2">  1       21 0.45668977E-01 0.45340985E+03</pdfrwt>
<totfact> 0.67841158E+04</totfact>
</mgrwt>
</event>
<event>
 7    0  0.4712189E-002  0.4519829E+03  0.7546771E-02  0.1027132E+00
         21   -1    0    0  502  501  0.00000000000E+00  0.00000000000E+00  0.76672087772E+03  0.76672087772E+03  0.00000000000E+00 0. -1.
         21   -1    0    0  501  502 -0.00000000000E+00 -0.00000000000E+00 -0.66611109583E+02  0.66611109583E+02  0.00000000000E+00 0. -1.
      99926    2    1    2    0    0  0.00000000000E+00  0.35527136788E-14  0.70010976814E+03  0.83333198731E+03  0.45198286873E+03 0.  0.
      99925    2    3    3    0    0  0.10689985494E+03 -0.85943237976E+01  0.48904660951E+03  0.56556976738E+03  0.26306108438E+03 0.  0.
         25    1    3    3    0    0 -0.10689985494E+03  0.85943237976E+01  0.21106315863E+03  0.26776221993E+03  0.12509000000E+03 0.  0.
         25    1    4    4    0    0  0.60877008866E+02  0.10085594914E+02  0.32297894806E+03  0.35181051494E+03  0.12509000000E+03 0.  0.
         25    1    4    4    0    0  0.46022846077E+02 -0.18679918712E+02  0.16606766145E+03  0.21375925244E+03  0.12509000000E+03 0.  0.
<mgrwt>
<rscale>  2 0.45198287E+03</rscale>
<asrwt>0</asrwt>
<pdfrwt beam="1">  1       21 0.11275306E+00 0.45198287E+03</pdfrwt>
<pdfrwt beam="2">  1       21 0.97957519E-02 0.45198287E+03</pdfrwt>
<totfact> 0.47304331E+04</totfact>
</mgrwt>
</event>
<event>
 7    0  0.4712189E-002  0.4554211E+03  0.7546771E-02  0.1026118E+00
         21   -1    0    0  502  501  0.00000000000E+00  0.00000000000E+00  0.79678564750E+02  0.79678564750E+02  0.00000000000E+00 0.  1.
         21   -1    0    0  501  502 -0.00000000000E+00 -0.00000000000E+00 -0.65076603945E+03  0.65076603945E+03  0.00000000000E+00 0.  1.
      99926    2    1    2    0    0  0.00000000000E+00  0.00000000000E+00 -0.57108747470E+03  0.73044460420E+03  0.45542114142E+03 0.  0.
      99925    2    3    3    0    0 -0.12713859308E+02  0.10370032427E+03 -0.28753068277E+03  0.40338595224E+03  0.26292762019E+03 0.  0.
         25    1    4    4    0    0 -0.45725367077E+02  0.56952882632E+02 -0.15960894584E+03  0.21553877546E+03  0.12509000000E+03 0.  0.
         25    1    4    4    0    0  0.33011507769E+02  0.46747441642E+02 -0.12792173693E+03  0.18784717678E+03  0.12509000000E+03 0.  0.
         25    1    3    3    0    0  0.12713859308E+02 -0.10370032427E+03 -0.28355679193E+03  0.32705865196E+03  0.12509000000E+03 0.  0.
<mgrwt>
<rscale>  2 0.45542114E+03</rscale>
<asrwt>0</asrwt>
<pdfrwt beam="1">  1       21 0.11717437E-01 0.45542114E+03</pdfrwt>
<pdfrwt beam="2">  1       21 0.95700882E-01 0.45542114E+03</pdfrwt>
<totfact> 0.51111552E+04</totfact>
</mgrwt>
</event>
<event>
 7    0  0.4712189E-002  0.4707696E+03  0.7546771E-02  0.1021703E+00
         21   -1    0    0  502  501  0.00000000000E+00  0.00000000000E+00  0.43105220796E+02  0.43105220796E+02  0.00000000000E+00 0. -1.
         21   -1    0    0  501  502 -0.00000000000E+00 -0.00000000000E+00 -0.12853663685E+04  0.12853663685E+04  0.00000000000E+00 0. -1.
      99926    2    1    2    0    0  0.00000000000E+00  0.14210854715E-13 -0.12422611477E+04  0.13284715893E+04  0.47076958746E+03 0.  0.
      99925    2    3    3    0    0  0.63178071726E+02 -0.83704564622E+02 -0.56654145149E+03  0.63331510415E+03  0.26290850501E+03 0.  0.
         25    1    4    4    0    0  0.24071258537E+02 -0.32461862089E+02 -0.18747128564E+03  0.22896765933E+03  0.12509000000E+03 0.  0.
         25    1    3    3    0    0 -0.63178071726E+02  0.83704564622E+02 -0.67571969623E+03  0.69515648516E+03  0.12509000000E+03 0.  0.
         25    1    4    4    0    0  0.39106813189E+02 -0.51242702533E+02 -0.37907016585E+03  0.40434744482E+03  0.12509000000E+03 0.  0.
<mgrwt>
<rscale>  2 0.47076959E+03</rscale>
<asrwt>0</asrwt>
<pdfrwt beam="1">  1       21 0.63390042E-02 0.47076959E+03</pdfrwt>
<pdfrwt beam="2">  1       21 0.18902443E+00 0.47076959E+03</pdfrwt>
<totfact> 0.25079012E+04</totfact>
</mgrwt>
</event>
<event>
 7    0  0.4712189E-002  0.4510333E+03  0.7546771E-02  0.1027414E+00
         21   -1    0    0  502  501  0.00000000000E+00  0.00000000000E+00  0.11359710654E+03  0.11359710654E+03  0.00000000000E+00 0.  1.
         21   -1    0    0  501  502 -0.00000000000E+00 -0.00000000000E+00 -0.44770288191E+03  0.44770288191E+03  0.00000000000E+00 0.  1.
      99926    2    1    2    0    0 -0.88817841970E-15  0.00000000000E+00 -0.33410577537E+03  0.56129998845E+03  0.45103326695E+03 0.  0.
      99925    2    3    3    0    0  0.59754659190E+01  0.86192600279E+02 -0.29449031157E+03  0.40419568040E+03  0.26302991066E+03 0.  0.
         25    1    3    3    0    0 -0.59754659190E+01 -0.86192600279E+02 -0.39615463796E+02  0.15710430805E+03  0.12509000000E+03 0.  0.
         25    1    4    4    0    0 -0.13806765782E+02  0.80333477928E+02 -0.14415023465E+03  0.20753528063E+03  0.12509000000E+03 0.  0.
         25    1    4    4    0    0  0.19782231701E+02  0.58591223502E+01 -0.15034007692E+03  0.19666039976E+03  0.12509000000E+03 0.  0.
<mgrwt>
<rscale>  2 0.45103327E+03</rscale>
<asrwt>0</asrwt>
<pdfrwt beam="1">  1       21 0.16705457E-01 0.45103327E+03</pdfrwt>
<pdfrwt beam="2">  1       21 0.65838659E-01 0.45103327E+03</pdfrwt>
<totfact> 0.63081944E+04</totfact>
</mgrwt>
</event>
<event>
 7    0  0.4712189E-002  0.4453007E+03  0.7546771E-02  0.1029133E+00
         21   -1    0    0  502  501  0.00000000000E+00  0.00000000000E+00  0.67772590760E+02  0.67772590760E+02  0.00000000000E+00 0. -1.
         21   -1    0    0  501  502 -0.00000000000E+00 -0.00000000000E+00 -0.73146360718E+03  0.73146360718E+03  0.00000000000E+00 0. -1.
      99926    2    1    2    0    0 -0.35527136788E-14  0.00000000000E+00 -0.66369101642E+03  0.79923619794E+03  0.44530072403E+03 0.  0.
      99925    2    3    3    0    0  0.22469941652E+02  0.40185233936E+01 -0.23950535685E+03  0.35640211085E+03  0.26294220248E+03 0.  0.
         25    1    3    3    0    0 -0.22469941652E+02 -0.40185233936E+01 -0.42418565957E+03  0.44283408710E+03  0.12509000000E+03 0.  0.
         25    1    4    4    0    0  0.38973640543E+02  0.90827841440E+01 -0.16075065091E+03  0.20758063853E+03  0.12509000000E+03 0.  0.
         25    1    4    4    0    0 -0.16503698891E+02 -0.50642607504E+01 -0.78754705941E+02  0.14882147231E+03  0.12509000000E+03 0.  0.
<mgrwt>
<rscale>  2 0.44530072E+03</rscale>
<asrwt>0</asrwt>
<pdfrwt beam="1">  1       21 0.99665569E-02 0.44530072E+03</pdfrwt>
<pdfrwt beam="2">  1       21 0.10756818E+00 0.44530072E+03</pdfrwt>
<totfact> 0.51620335E+04</totfact>
</mgrwt>
</event>
<event>
 7    0  0.4712189E-002  0.4500832E+03  0.7546771E-02  0.1027697E+00
         21   -1    0    0  502  501  0.00000000000E+00  0.00000000000E+00  0.59361126354E+02  0.59361126354E+02  0.00000000000E+00 0. -1.
         21   -1    0    0  501  502 -0.00000000000E+00 -0.00000000000E+00 -0.85314631151E+03  0.85314631151E+03  0.00000000000E+00 0. -1.
      99926    2    1    2    0    0  0.00000000000E+00  0.00000000000E+00 -0.79378518516E+03  0.91250743786E+03  0.45008321895E+03 0.  0.
      99925    2    3    3    0    0 -0.47983693936E+02  0.59683662539E+02 -0.65751658043E+03  0.71230450284E+03  0.26303056242E+03 0.  0.
         25    1    4    4    0    0  0.11033405215E+02  0.33793692517E+02 -0.37027942369E+03  0.39245141023E+03  0.12509000000E+03 0.  0.
         25    1    3    3    0    0  0.47983693936E+02 -0.59683662539E+02 -0.13626860473E+03  0.20020293502E+03  0.12509000000E+03 0.  0.
         25    1    4    4    0    0 -0.59017099150E+02  0.25889970021E+02 -0.28723715674E+03  0.31985309261E+03  0.12509000000E+03 0.  0.
<mgrwt>
<rscale>  2 0.45008322E+03</rscale>
<asrwt>0</asrwt>
<pdfrwt beam="1">  1       21 0.87295774E-02 0.45008322E+03</pdfrwt>
<pdfrwt beam="2">  1       21 0.12546269E+00 0.45008322E+03</pdfrwt>
<totfact> 0.44380178E+04</totfact>
</mgrwt>
</event>
<event>
 7    0  0.4712189E-002  0.4579363E+03  0.7546771E-02  0.1025381E+00
         21   -1    0    0  502  501  0.00000000000E+00  0.00000000000E+00  0.45216868846E+03  0.45216868846E+03  0.00000000000E+00 0. -1.
         21   -1    0    0  501  502 -0.00000000000E+00 -0.00000000000E+00 -0.11594435112E+03  0.11594435112E+03  0.00000000000E+00 0. -1.
      99926    2    1    2    0    0 -0.71054273576E-14  0.00000000000E+00  0.33622433734E+03  0.56811303958E+03  0.45793626273E+03 0.  0.
      99925    2    3    3    0    0 -0.36900472015E+02  0.55981357201E+02  0.32827994979E+03  0.42596460103E+03  0.26302577576E+03 0.  0.
         25    1    3    3    0    0  0.36900472015E+02 -0.55981357201E+02  0.79443875570E+01  0.14214843855E+03  0.12509000000E+03 0.  0.
         25    1    4    4    0    0 -0.62936583662E+01 -0.85614413147E+01  0.12827250864E+03  0.17948329445E+03  0.12509000000E+03 0.  0.
         25    1    4    4    0    0 -0.30606813649E+02  0.64542798516E+02  0.20000744115E+03  0.24648130659E+03  0.12509000000E+03 0.  0.
<mgrwt>
<rscale>  2 0.45793626E+03</rscale>
<asrwt>0</asrwt>
<pdfrwt beam="1">  1       21 0.66495395E-01 0.45793626E+03</pdfrwt>
<pdfrwt beam="2">  1       21 0.17050640E-01 0.45793626E+03</pdfrwt>
<totfact> 0.59296270E+04</totfact>
</mgrwt>
</event>
<event>
 7    0  0.4712189E-002  0.4376804E+03  0.7546771E-02  0.1031461E+00
         21   -1    0    0  502  501  0.00000000000E+00  0.00000000000E+00  0.34185636727E+04  0.34185636727E+04  0.00000000000E+00 0. -1.
         21   -1    0    0  501  502 -0.00000000000E+00 -0.00000000000E+00 -0.14009108024E+02  0.14009108024E+02  0.00000000000E+00 0. -1.
      99926    2    1    2    0    0  0.00000000000E+00  0.00000000000E+00  0.34045545647E+04  0.34325727807E+04  0.43768037552E+03 0.  0.
      99925    2    3    3    0    0  0.57333115951E+02 -0.70877031899E+02  0.19991203202E+04  0.20186408292E+04  0.26479823060E+03 0.  0.
         25    1    3    3    0    0 -0.57333115951E+02  0.70877031899E+02  0.14054342445E+04  0.14139319515E+04  0.12509000000E+03 0.  0.
         25    1    4    4    0    0  0.31065379613E+02 -0.80330867879E+02  0.10755594150E+04  0.10862291055E+04  0.12509000000E+03 0.  0.
         25    1    4    4    0    0  0.26267736338E+02  0.94538359797E+01  0.92356090517E+03  0.93241172378E+03  0.12509000000E+03 0.  0.
<mgrwt>
<rscale>  2 0.43768038E+03</rscale>
<asrwt>0</asrwt>
<pdfrwt beam="1">  1       21 0.50272937E+00 0.43768038E+03</pdfrwt>
<pdfrwt beam="2">  1       21 0.20601653E-02 0.43768038E+03</pdfrwt>
<totfact> 0.16863008E+03</totfact>
</mgrwt>
</event>
<event>
 7    0  0.4712189E-002  0.4778974E+03  0.7546771E-02  0.1019715E+00
         21   -1    0    0  502  501  0.00000000000E+00  0.00000000000E+00  0.75709666597E+02  0.75709666597E+02  0.00000000000E+00 0. -1.
         21   -1    0    0  501  502 -0.00000000000E+00 -0.00000000000E+00 -0.75415042426E+03  0.75415042426E+03  0.00000000000E+00 0. -1.
      99926    2    1    2    0    0 -0.17763568394E-14  0.00000000000E+00 -0.67844075766E+03  0.82986009086E+03  0.47789738306E+03 0.  0.
      99925    2    3    3    0    0 -0.11799016327E+02  0.13295299024E+03 -0.42928991893E+03  0.52076566687E+03  0.26285229862E+03 0.  0.
         25    1    4    4    0    0 -0.25381864940E+02  0.10605130746E+03 -0.25087987974E+03  0.30079784082E+03  0.12509000000E+03 0.  0.
         25    1    3    3    0    0  0.11799016327E+02 -0.13295299024E+03 -0.24915083873E+03  0.30909442399E+03  0.12509000000E+03 0.  0.
         25    1    4    4    0    0  0.13582848613E+02  0.26901682777E+02 -0.17841003919E+03  0.21996782605E+03  0.12509000000E+03 0.  0.
<mgrwt>
<rscale>  2 0.47789738E+03</rscale>
<asrwt>0</asrwt>
<pdfrwt beam="1">  1       21 0.11133775E-01 0.47789738E+03</pdfrwt>
<pdfrwt beam="2">  1       21 0.11090447E+00 0.47789738E+03</pdfrwt>
<totfact> 0.38883341E+04</totfact>
</mgrwt>
</event>
<event>
 7    0  0.4712189E-002  0.4518554E+03  0.7546771E-02  0.1027170E+00
         21   -1    0    0  502  501  0.00000000000E+00  0.00000000000E+00  0.38280237777E+03  0.38280237777E+03  0.00000000000E+00 0.  1.
         21   -1    0    0  501  502 -0.00000000000E+00 -0.00000000000E+00 -0.13334120808E+03  0.13334120808E+03  0.00000000000E+00 0.  1.
      99926    2    1    2    0    0  0.00000000000E+00  0.00000000000E+00  0.24946116968E+03  0.51614358585E+03  0.45185542603E+03 0.  0.
      99925    2    3    3    0    0 -0.93549492636E+02 -0.51302132774E+02  0.18640121014E+03  0.34005416823E+03  0.26364371753E+03 0.  0.
         25    1    4    4    0    0 -0.58181854506E+02  0.14436027735E+02  0.88384528841E+02  0.16447753685E+03  0.12509000000E+03 0.  0.
         25    1    3    3    0    0  0.93549492636E+02  0.51302132774E+02  0.63059959545E+02  0.17608941762E+03  0.12509000000E+03 0.  0.
         25    1    4    4    0    0 -0.35367638130E+02 -0.65738160509E+02  0.98016681296E+02  0.17557663138E+03  0.12509000000E+03 0.  0.
<mgrwt>
<rscale>  2 0.45185543E+03</rscale>
<asrwt>0</asrwt>
<pdfrwt beam="1">  1       21 0.56294467E-01 0.45185543E+03</pdfrwt>
<pdfrwt beam="2">  1       21 0.19609001E-01 0.45185543E+03</pdfrwt>
<totfact> 0.65776644E+04</totfact>
</mgrwt>
</event>
<event>
 7    0  0.4712189E-002  0.4622309E+03  0.7546771E-02  0.1024136E+00
         21   -1    0    0  502  501  0.00000000000E+00  0.00000000000E+00  0.17792608089E+04  0.17792608089E+04  0.00000000000E+00 0. -1.
         21   -1    0    0  501  502 -0.00000000000E+00 -0.00000000000E+00 -0.30020534619E+02  0.30020534619E+02  0.00000000000E+00 0. -1.
      99926    2    1    2    0    0  0.00000000000E+00  0.00000000000E+00  0.17492402743E+04  0.18092813435E+04  0.46223094102E+03 0.  0.
      99925    2    3    3    0    0  0.42153929950E+02 -0.11208466782E+03  0.11084852755E+04  0.11455386199E+04  0.26301938550E+03 0.  0.
         25    1    4    4    0    0  0.57859401358E+02 -0.39652825307E+02  0.52995435088E+03  0.54901655621E+03  0.12509000000E+03 0.  0.
         25    1    3    3    0    0 -0.42153929950E+02  0.11208466782E+03  0.64075499874E+03  0.66374272356E+03  0.12509000000E+03 0.  0.
         25    1    4    4    0    0 -0.15705471408E+02 -0.72431842518E+02  0.57853092465E+03  0.59652206373E+03  0.12509000000E+03 0.  0.
<mgrwt>
<rscale>  2 0.46223094E+03</rscale>
<asrwt>0</asrwt>
<pdfrwt beam="1">  1       21 0.26165593E+00 0.46223094E+03</pdfrwt>
<pdfrwt beam="2">  1       21 0.44147857E-02 0.46223094E+03</pdfrwt>
<totfact> 0.16155665E+04</totfact>
</mgrwt>
</event>
<event>
 7    0  0.4712189E-002  0.4546952E+03  0.7546771E-02  0.1026331E+00
         21   -1    0    0  502  501  0.00000000000E+00  0.00000000000E+00  0.29157164091E+03  0.29157164091E+03  0.00000000000E+00 0.  1.
         21   -1    0    0  501  502 -0.00000000000E+00 -0.00000000000E+00 -0.17727009996E+03  0.17727009996E+03  0.00000000000E+00 0.  1.
      99926    2    1    2    0    0  0.00000000000E+00 -0.17763568394E-14  0.11430154095E+03  0.46884174087E+03  0.45469521190E+03 0.  0.
      99925    2    3    3    0    0 -0.54716625235E+02 -0.10572106354E+02 -0.29084838671E+02  0.27056708170E+03  0.26316333207E+03 0.  0.
         25    1    4    4    0    0 -0.30206488216E+02  0.34716516621E+02 -0.22154091412E+02  0.13511469322E+03  0.12509000000E+03 0.  0.
         25    1    3    3    0    0  0.54716625235E+02  0.10572106354E+02  0.14338637962E+03  0.19827465918E+03  0.12509000000E+03 0.  0.
         25    1    4    4    0    0 -0.24510137019E+02 -0.45288622975E+02 -0.69307472598E+01  0.13545238848E+03  0.12509000000E+03 0.  0.
<mgrwt>
<rscale>  2 0.45469521E+03</rscale>
<asrwt>0</asrwt>
<pdfrwt beam="1">  1       21 0.42878182E-01 0.45469521E+03</pdfrwt>
<pdfrwt beam="2">  1       21 0.26069132E-01 0.45469521E+03</pdfrwt>
<totfact> 0.67685493E+04</totfact>
</mgrwt>
</event>
<event>
 7    0  0.4712189E-002  0.4565478E+03  0.7546771E-02  0.1025787E+00
         21   -1    0    0  502  501  0.00000000000E+00  0.00000000000E+00  0.18785490105E+03  0.18785490105E+03  0.00000000000E+00 0. -1.
         21   -1    0    0  501  502 -0.00000000000E+00 -0.00000000000E+00 -0.27738954040E+03  0.27738954040E+03  0.00000000000E+00 0. -1.
      99926    2    1    2    0    0  0.00000000000E+00  0.00000000000E+00 -0.89534639345E+02  0.46524444145E+03  0.45654784925E+03 0.  0.
      99925    2    3    3    0    0 -0.10797266588E+03  0.76786362196E+01 -0.18002749875E+02  0.28501853503E+03  0.26304830028E+03 0.  0.
         25    1    3    3    0    0  0.10797266588E+03 -0.76786362196E+01 -0.71531889470E+02  0.18022590641E+03  0.12509000000E+03 0.  0.
         25    1    4    4    0    0 -0.55021009142E+02  0.37161251876E+02 -0.32396473555E+02  0.14527666601E+03  0.12509000000E+03 0.  0.
         25    1    4    4    0    0 -0.52951656738E+02 -0.29482615657E+02  0.14393723680E+02  0.13974186903E+03  0.12509000000E+03 0.  0.
<mgrwt>
<rscale>  2 0.45654785E+03</rscale>
<asrwt>0</asrwt>
<pdfrwt beam="1">  1       21 0.27625721E-01 0.45654785E+03</pdfrwt>
<pdfrwt beam="2">  1       21 0.40792579E-01 0.45654785E+03</pdfrwt>
<totfact> 0.66964326E+04</totfact>
</mgrwt>
</event>
<event>
 7    0  0.4712189E-002  0.4492038E+03  0.7546771E-02  0.1027960E+00
         21   -1    0    0  502  501  0.00000000000E+00  0.00000000000E+00  0.98426435734E+02  0.98426435734E+02  0.00000000000E+00 0.  1.
         21   -1    0    0  501  502 -0.00000000000E+00 -0.00000000000E+00 -0.51252508814E+03  0.51252508814E+03  0.00000000000E+00 0.  1.
      99926    2    1    2    0    0 -0.14210854715E-13  0.35527136788E-14 -0.41409865240E+03  0.61095152387E+03  0.44920381855E+03 0.  0.
      99925    2    3    3    0    0  0.85205160106E+02 -0.18110466540E+02 -0.34760671863E+03  0.44464880693E+03  0.26323795766E+03 0.  0.
         25    1    4    4    0    0  0.36822169399E+01  0.64731149637E+01 -0.17262036700E+03  0.21330906953E+03  0.12509000000E+03 0.  0.
         25    1    4    4    0    0  0.81522943167E+02 -0.24583581504E+02 -0.17498635163E+03  0.23133973740E+03  0.12509000000E+03 0.  0.
         25    1    3    3    0    0 -0.85205160106E+02  0.18110466540E+02 -0.66491933769E+02  0.16630271695E+03  0.12509000000E+03 0.  0.
<mgrwt>
<rscale>  2 0.44920382E+03</rscale>
<asrwt>0</asrwt>
<pdfrwt beam="1">  1       21 0.14474476E-01 0.44920382E+03</pdfrwt>
<pdfrwt beam="2">  1       21 0.75371336E-01 0.44920382E+03</pdfrwt>
<totfact> 0.60742636E+04</totfact>
</mgrwt>
</event>
<event>
 7    0  0.4712189E-002  0.4534875E+03  0.7546771E-02  0.1026687E+00
         21   -1    0    0  502  501  0.00000000000E+00  0.00000000000E+00  0.32663230303E+03  0.32663230303E+03  0.00000000000E+00 0. -1.
         21   -1    0    0  501  502 -0.00000000000E+00 -0.00000000000E+00 -0.15740248962E+03  0.15740248962E+03  0.00000000000E+00 0. -1.
      99926    2    1    2    0    0  0.00000000000E+00 -0.14210854715E-13  0.16922981340E+03  0.48403479265E+03  0.45348754200E+03 0.  0.
      99925    2    3    3    0    0  0.44050420655E+02 -0.96831256250E+02  0.14332675197E+03  0.31779638422E+03  0.26293583294E+03 0.  0.
         25    1    4    4    0    0  0.32302709484E+02 -0.87268125878E+02  0.61743420082E+02  0.16768705632E+03  0.12509000000E+03 0.  0.
         25    1    3    3    0    0 -0.44050420655E+02  0.96831256250E+02  0.25903061437E+02  0.16623840843E+03  0.12509000000E+03 0.  0.
         25    1    4    4    0    0  0.11747711171E+02 -0.95631303720E+01  0.81583331886E+02  0.15010932790E+03  0.12509000000E+03 0.  0.
<mgrwt>
<rscale>  2 0.45348754E+03</rscale>
<asrwt>0</asrwt>
<pdfrwt beam="1">  1       21 0.48034162E-01 0.45348754E+03</pdfrwt>
<pdfrwt beam="2">  1       21 0.23147425E-01 0.45348754E+03</pdfrwt>
<totfact> 0.67210898E+04</totfact>
</mgrwt>
</event>
<event>
 7    0  0.4712189E-002  0.4666765E+03  0.7546771E-02  0.1022862E+00
         21   -1    0    0  502  501  0.00000000000E+00  0.00000000000E+00  0.68064810709E+02  0.68064810709E+02  0.00000000000E+00 0.  1.
         21   -1    0    0  501  502 -0.00000000000E+00 -0.00000000000E+00 -0.79992499605E+03  0.79992499605E+03  0.00000000000E+00 0.  1.
      99926    2    1    2    0    0  0.00000000000E+00  0.71054273576E-14 -0.73186018534E+03  0.86798980676E+03  0.46667651939E+03 0.  0.
      99925    2    3    3    0    0  0.10434354720E+03 -0.63784582194E+02 -0.41900566691E+03  0.50954663613E+03  0.26289917596E+03 0.  0.
         25    1    4    4    0    0  0.64202636806E+02 -0.39180508751E+02 -0.28542706394E+03  0.32058260678E+03  0.12509000000E+03 0.  0.
         25    1    4    4    0    0  0.40140910395E+02 -0.24604073444E+02 -0.13357860297E+03  0.18896402935E+03  0.12509000000E+03 0.  0.
         25    1    3    3    0    0 -0.10434354720E+03  0.63784582194E+02 -0.31285451843E+03  0.35844317062E+03  0.12509000000E+03 0.  0.
<mgrwt>
<rscale>  2 0.46667652E+03</rscale>
<asrwt>0</asrwt>
<pdfrwt beam="1">  1       21 0.10009531E-01 0.46667652E+03</pdfrwt>
<pdfrwt beam="2">  1       21 0.11763603E+00 0.46667652E+03</pdfrwt>
<totfact> 0.40780066E+04</totfact>
</mgrwt>
</event>
<event>
 7    0  0.4712189E-002  0.4551993E+03  0.7546771E-02  0.1026183E+00
         21   -1    0    0  502  501  0.00000000000E+00  0.00000000000E+00  0.18476414303E+04  0.18476414303E+04  0.00000000000E+00 0. -1.
         21   -1    0    0  501  502 -0.00000000000E+00 -0.00000000000E+00 -0.28036613982E+02  0.28036613982E+02  0.00000000000E+00 0. -1.
      99926    2    1    2    0    0  0.00000000000E+00  0.00000000000E+00  0.18196048163E+04  0.18756780443E+04  0.45519933901E+03 0.  0.
      99925    2    3    3    0    0 -0.73045510331E+02 -0.71214802980E+01  0.15009030786E+04  0.15255285508E+04  0.26294665978E+03 0.  0.
         25    1    4    4    0    0 -0.11659127326E+01  0.18316107300E+02  0.67794444991E+03  0.68963252853E+03  0.12509000000E+03 0.  0.
         25    1    4    4    0    0 -0.71879597599E+02 -0.25437587598E+02  0.82295862872E+03  0.83589602230E+03  0.12509000000E+03 0.  0.
         25    1    3    3    0    0  0.73045510331E+02  0.71214802980E+01  0.31870173770E+03  0.35014949346E+03  0.12509000000E+03 0.  0.
<mgrwt>
<rscale>  2 0.45519934E+03</rscale>
<asrwt>0</asrwt>
<pdfrwt beam="1">  1       21 0.27171189E+00 0.45519934E+03</pdfrwt>
<pdfrwt beam="2">  1       21 0.41230327E-02 0.45519934E+03</pdfrwt>
<totfact> 0.15823154E+04</totfact>
</mgrwt>
</event>
<event>
 7    0  0.4712189E-002  0.4600260E+03  0.7546771E-02  0.1024774E+00
         21   -1    0    0  502  501  0.00000000000E+00  0.00000000000E+00  0.23270568319E+03  0.23270568319E+03  0.00000000000E+00 0. -1.
         21   -1    0    0  501  502 -0.00000000000E+00 -0.00000000000E+00 -0.22735145723E+03  0.22735145723E+03  0.00000000000E+00 0. -1.
      99926    2    1    2    0    0  0.00000000000E+00  0.00000000000E+00  0.53542259622E+01  0.46005714043E+03  0.46002598266E+03 0.  0.
      99925    2    3    3    0    0  0.33919516907E+02  0.10875923553E+03  0.33066873116E+02  0.28860859464E+03  0.26310149726E+03 0.  0.
         25    1    4    4    0    0 -0.76574738548E+00  0.18268463077E+02  0.31835537915E+02  0.13036614855E+03  0.12509000000E+03 0.  0.
         25    1    3    3    0    0 -0.33919516907E+02 -0.10875923553E+03 -0.27712647154E+02  0.17144854579E+03  0.12509000000E+03 0.  0.
         25    1    4    4    0    0  0.34685264293E+02  0.90490772456E+02  0.12313352006E+01  0.15824244609E+03  0.12509000000E+03 0.  0.
<mgrwt>
<rscale>  2 0.46002598E+03</rscale>
<asrwt>0</asrwt>
<pdfrwt beam="1">  1       21 0.34221424E-01 0.46002598E+03</pdfrwt>
<pdfrwt beam="2">  1       21 0.33434038E-01 0.46002598E+03</pdfrwt>
<totfact> 0.65510114E+04</totfact>
</mgrwt>
</event>
<event>
 7    0  0.4712189E-002  0.4513762E+03  0.7546771E-02  0.1027312E+00
         21   -1    0    0  502  501  0.00000000000E+00  0.00000000000E+00  0.57815176791E+03  0.57815176791E+03  0.00000000000E+00 0.  1.
         21   -1    0    0  501  502 -0.00000000000E+00 -0.00000000000E+00 -0.88099892715E+02  0.88099892715E+02  0.00000000000E+00 0.  1.
      99926    2    1    2    0    0  0.00000000000E+00  0.00000000000E+00  0.49005187520E+03  0.66625166063E+03  0.45137615677E+03 0.  0.
      99925    2    3    3    0    0  0.16982860273E+02 -0.42965239620E+02  0.45627517144E+03  0.52869148043E+03  0.26304604169E+03 0.  0.
         25    1    4    4    0    0  0.17741235736E+01  0.45036620184E+01  0.15919890959E+03  0.20252217508E+03  0.12509000000E+03 0.  0.
         25    1    4    4    0    0  0.15208736699E+02 -0.47468901638E+02  0.29707626186E+03  0.32616930535E+03  0.12509000000E+03 0.  0.
         25    1    3    3    0    0 -0.16982860273E+02  0.42965239620E+02  0.33776703754E+02  0.13756018019E+03  0.12509000000E+03 0.  0.
<mgrwt>
<rscale>  2 0.45137616E+03</rscale>
<asrwt>0</asrwt>
<pdfrwt beam="1">  1       21 0.85022317E-01 0.45137616E+03</pdfrwt>
<pdfrwt beam="2">  1       21 0.12955867E-01 0.45137616E+03</pdfrwt>
<totfact> 0.56366911E+04</totfact>
</mgrwt>
</event>
<event>
 7    0  0.4712189E-002  0.4554279E+03  0.7546771E-02  0.1026116E+00
         21   -1    0    0  502  501  0.00000000000E+00  0.00000000000E+00  0.11291751436E+03  0.11291751436E+03  0.00000000000E+00 0. -1.
         21   -1    0    0  501  502 -0.00000000000E+00 -0.00000000000E+00 -0.45921704462E+03  0.45921704462E+03  0.00000000000E+00 0. -1.
      99926    2    1    2    0    0  0.00000000000E+00  0.00000000000E+00 -0.34629953026E+03  0.57213455899E+03  0.45542791848E+03 0.  0.
      99925    2    3    3    0    0 -0.87227831050E+02  0.56953941559E+02 -0.27468012585E+03  0.39428829628E+03  0.26298601309E+03 0.  0.
         25    1    3    3    0    0  0.87227831050E+02 -0.56953941559E+02 -0.71619404415E+02  0.17784626270E+03  0.12509000000E+03 0.  0.
         25    1    4    4    0    0 -0.18854503353E+02  0.34396586517E+02 -0.86210583587E+02  0.15690248654E+03  0.12509000000E+03 0.  0.
         25    1    4    4    0    0 -0.68373327696E+02  0.22557355042E+02 -0.18846954226E+03  0.23738580974E+03  0.12509000000E+03 0.  0.
<mgrwt>
<rscale>  2 0.45542792E+03</rscale>
<asrwt>0</asrwt>
<pdfrwt beam="1">  1       21 0.16605517E-01 0.45542792E+03</pdfrwt>
<pdfrwt beam="2">  1       21 0.67531918E-01 0.45542792E+03</pdfrwt>
<totfact> 0.60223066E+04</totfact>
</mgrwt>
</event>
<event>
 7    0  0.4712189E-002  0.4577025E+03  0.7546771E-02  0.1025450E+00
         21   -1    0    0  502  501  0.00000000000E+00  0.00000000000E+00  0.44759248551E+03  0.44759248551E+03  0.00000000000E+00 0. -1.
         21   -1    0    0  501  502 -0.00000000000E+00 -0.00000000000E+00 -0.11701022399E+03  0.11701022399E+03  0.00000000000E+00 0. -1.
      99926    2    1    2    0    0 -0.35527136788E-14  0.00000000000E+00  0.33058226152E+03  0.56460270950E+03  0.45770251032E+03 0.  0.
      99925    2    3    3    0    0  0.24108051623E+01 -0.42713006740E+02  0.34013996166E+03  0.43205433849E+03  0.26295540489E+03 0.  0.
         25    1    3    3    0    0 -0.24108051623E+01  0.42713006740E+02 -0.95577001493E+01  0.13254837101E+03  0.12509000000E+03 0.  0.
         25    1    4    4    0    0 -0.34106033675E+02 -0.19379877159E+02  0.20122183386E+03  0.24015939643E+03  0.12509000000E+03 0.  0.
         25    1    4    4    0    0  0.36516838838E+02 -0.23333129580E+02  0.13891812780E+03  0.19189494205E+03  0.12509000000E+03 0.  0.
<mgrwt>
<rscale>  2 0.45770251E+03</rscale>
<asrwt>0</asrwt>
<pdfrwt beam="1">  1       21 0.65822424E-01 0.45770251E+03</pdfrwt>
<pdfrwt beam="2">  1       21 0.17207386E-01 0.45770251E+03</pdfrwt>
<totfact> 0.59627010E+04</totfact>
</mgrwt>
</event>
<event>
 7    0  0.4712189E-002  0.4545016E+03  0.7546771E-02  0.1026388E+00
         21   -1    0    0  502  501  0.00000000000E+00  0.00000000000E+00  0.94491361316E+03  0.94491361316E+03  0.00000000000E+00 0. -1.
         21   -1    0    0  501  502 -0.00000000000E+00 -0.00000000000E+00 -0.54653605745E+02  0.54653605745E+02  0.00000000000E+00 0. -1.
      99926    2    1    2    0    0  0.35527136788E-14  0.00000000000E+00  0.89026000742E+03  0.99956721891E+03  0.45450164390E+03 0.  0.
      99925    2    3    3    0    0 -0.13278571874E+02  0.86334601615E+02  0.40388184228E+03  0.48982099623E+03  0.26300966127E+03 0.  0.
         25    1    4    4    0    0 -0.44528745161E+02  0.58531097568E+02  0.20407638237E+03  0.25040642258E+03  0.12509000000E+03 0.  0.
         25    1    4    4    0    0  0.31250173287E+02  0.27803504047E+02  0.19980545990E+03  0.23941457365E+03  0.12509000000E+03 0.  0.
         25    1    3    3    0    0  0.13278571874E+02 -0.86334601615E+02  0.48637816514E+03  0.50974622268E+03  0.12509000000E+03 0.  0.
<mgrwt>
<rscale>  2 0.45450164E+03</rscale>
<asrwt>0</asrwt>
<pdfrwt beam="1">  1       21 0.13895787E+00 0.45450164E+03</pdfrwt>
<pdfrwt beam="2">  1       21 0.80372956E-02 0.45450164E+03</pdfrwt>
<totfact> 0.39336515E+04</totfact>
</mgrwt>
</event>
<event>
 7    0  0.4712189E-002  0.4475330E+03  0.7546771E-02  0.1028460E+00
         21   -1    0    0  502  501  0.00000000000E+00  0.00000000000E+00  0.16042576925E+03  0.16042576925E+03  0.00000000000E+00 0.  1.
         21   -1    0    0  501  502 -0.00000000000E+00 -0.00000000000E+00 -0.31211599624E+03  0.31211599624E+03  0.00000000000E+00 0.  1.
      99926    2    1    2    0    0  0.00000000000E+00  0.00000000000E+00 -0.15169022699E+03  0.47254176550E+03  0.44753301015E+03 0.  0.
      99925    2    3    3    0    0  0.10306243356E+03 -0.10276902706E+02 -0.12032817996E+03  0.30713751514E+03  0.26292033466E+03 0.  0.
         25    1    3    3    0    0 -0.10306243356E+03  0.10276902706E+02 -0.31362047036E+02  0.16540425035E+03  0.12509000000E+03 0.  0.
         25    1    4    4    0    0  0.40536983862E+02  0.52480285055E+01 -0.99321425250E+02  0.16487280697E+03  0.12509000000E+03 0.  0.
         25    1    4    4    0    0  0.62525449696E+02 -0.15524931212E+02 -0.21006754708E+02  0.14226470818E+03  0.12509000000E+03 0.  0.
<mgrwt>
<rscale>  2 0.44753301E+03</rscale>
<asrwt>0</asrwt>
<pdfrwt beam="1">  1       21 0.23592025E-01 0.44753301E+03</pdfrwt>
<pdfrwt beam="2">  1       21 0.45899410E-01 0.44753301E+03</pdfrwt>
<totfact> 0.71384641E+04</totfact>
</mgrwt>
</event>
<event>
 7    0  0.4712189E-002  0.4536875E+03  0.7546771E-02  0.1026628E+00
         21   -1    0    0  502  501  0.00000000000E+00  0.00000000000E+00  0.10748340937E+03  0.10748340937E+03  0.00000000000E+00 0.  1.
         21   -1    0    0  501  502 -0.00000000000E+00 -0.00000000000E+00 -0.47875382245E+03  0.47875382245E+03  0.00000000000E+00 0.  1.
      99926    2    1    2    0    0  0.71054273576E-14  0.00000000000E+00 -0.37127041308E+03  0.58623723182E+03  0.45368752720E+03 0.  0.
      99925    2    3    3    0    0 -0.35927065238E+02  0.35646170106E+02 -0.36286383602E+03  0.45103522703E+03  0.26306122685E+03 0.  0.
         25    1    3    3    0    0  0.35927065238E+02 -0.35646170106E+02 -0.84065770548E+01  0.13520200478E+03  0.12509000000E+03 0.  0.
         25    1    4    4    0    0 -0.44624085329E+02  0.25832482203E+02 -0.23821257971E+03  0.27395504624E+03  0.12509000000E+03 0.  0.
         25    1    4    4    0    0  0.86970200905E+01  0.98136879032E+01 -0.12465125632E+03  0.17708018079E+03  0.12509000000E+03 0.  0.
<mgrwt>
<rscale>  2 0.45368753E+03</rscale>
<asrwt>0</asrwt>
<pdfrwt beam="1">  1       21 0.15806384E-01 0.45368753E+03</pdfrwt>
<pdfrwt beam="2">  1       21 0.70404972E-01 0.45368753E+03</pdfrwt>
<totfact> 0.60155135E+04</totfact>
</mgrwt>
</event>
<event>
 7    0  0.4712189E-002  0.4539285E+03  0.7546771E-02  0.1026557E+00
         21   -1    0    0  502  501  0.00000000000E+00  0.00000000000E+00  0.57803486837E+03  0.57803486837E+03  0.00000000000E+00 0. -1.
         21   -1    0    0  501  502 -0.00000000000E+00 -0.00000000000E+00 -0.89117070031E+02  0.89117070031E+02  0.00000000000E+00 0. -1.
      99926    2    1    2    0    0  0.00000000000E+00  0.17763568394E-14  0.48891779834E+03  0.66715193840E+03  0.45392851351E+03 0.  0.
      99925    2    3    3    0    0  0.87856573592E+02 -0.14193271215E+02  0.40831254549E+03  0.49375948944E+03  0.26298112505E+03 0.  0.
         25    1    4    4    0    0  0.38788418433E+02  0.36584901337E+01  0.13196313767E+03  0.18595618774E+03  0.12509000000E+03 0.  0.
         25    1    3    3    0    0 -0.87856573592E+02  0.14193271215E+02  0.80605252852E+02  0.17339244897E+03  0.12509000000E+03 0.  0.
         25    1    4    4    0    0  0.49068155159E+02 -0.17851761348E+02  0.27634940782E+03  0.30780330170E+03  0.12509000000E+03 0.  0.
<mgrwt>
<rscale>  2 0.45392851E+03</rscale>
<asrwt>0</asrwt>
<pdfrwt beam="1">  1       21 0.85005126E-01 0.45392851E+03</pdfrwt>
<pdfrwt beam="2">  1       21 0.13105452E-01 0.45392851E+03</pdfrwt>
<totfact> 0.55187560E+04</totfact>
</mgrwt>
</event>
<event>
 7    0  0.4712189E-002  0.4503066E+03  0.7546771E-02  0.1027631E+00
         21   -1    0    0  502  501  0.00000000000E+00  0.00000000000E+00  0.77460583562E+03  0.77460583562E+03  0.00000000000E+00 0.  1.
         21   -1    0    0  501  502 -0.00000000000E+00 -0.00000000000E+00 -0.65444897033E+02  0.65444897033E+02  0.00000000000E+00 0.  1.
      99926    2    1    2    0    0  0.00000000000E+00  0.00000000000E+00  0.70916093859E+03  0.84005073265E+03  0.45030655848E+03 0.  0.
      99925    2    3    3    0    0 -0.10011700309E+03  0.37937277593E+02  0.41376165560E+03  0.50186306903E+03  0.26306877631E+03 0.  0.
         25    1    3    3    0    0  0.10011700309E+03 -0.37937277593E+02  0.29539928298E+03  0.33818766362E+03  0.12509000000E+03 0.  0.
         25    1    4    4    0    0 -0.55553753712E+02  0.22978341288E+02  0.13950291864E+03  0.19678108682E+03  0.12509000000E+03 0.  0.
         25    1    4    4    0    0 -0.44563249377E+02  0.14958936305E+02  0.27425873697E+03  0.30508198222E+03  0.12509000000E+03 0.  0.
<mgrwt>
<rscale>  2 0.45030656E+03</rscale>
<asrwt>0</asrwt>
<pdfrwt beam="1">  1       21 0.11391262E+00 0.45030656E+03</pdfrwt>
<pdfrwt beam="2">  1       21 0.96242500E-02 0.45030656E+03</pdfrwt>
<totfact> 0.47617041E+04</totfact>
</mgrwt>
</event>
<event>
 7    0  0.4712189E-002  0.4570912E+03  0.7546771E-02  0.1025628E+00
         21   -1    0    0  502  501  0.00000000000E+00  0.00000000000E+00  0.37307999111E+03  0.37307999111E+03  0.00000000000E+00 0. -1.
         21   -1    0    0  501  502 -0.00000000000E+00 -0.00000000000E+00 -0.14000507867E+03  0.14000507867E+03  0.00000000000E+00 0. -1.
      99926    2    1    2    0    0  0.00000000000E+00  0.00000000000E+00  0.23307491244E+03  0.51308506977E+03  0.45709120974E+03 0.  0.
      99925    2    3    3    0    0  0.75911176155E+02  0.35619321810E+02  0.23486151462E+03  0.36247981489E+03  0.26305976964E+03 0.  0.
         25    1    4    4    0    0  0.37148175618E+02  0.57876343507E+02  0.13270763517E+03  0.19490634320E+03  0.12509000000E+03 0.  0.
         25    1    3    3    0    0 -0.75911176155E+02 -0.35619321810E+02 -0.17866021846E+01  0.15060525488E+03  0.12509000000E+03 0.  0.
         25    1    4    4    0    0  0.38763000537E+02 -0.22257021697E+02  0.10215387945E+03  0.16757347169E+03  0.12509000000E+03 0.  0.
<mgrwt>
<rscale>  2 0.45709121E+03</rscale>
<asrwt>0</asrwt>
<pdfrwt beam="1">  1       21 0.54864704E-01 0.45709121E+03</pdfrwt>
<pdfrwt beam="2">  1       21 0.20588982E-01 0.45709121E+03</pdfrwt>
<totfact> 0.63303728E+04</totfact>
</mgrwt>
</event>
<event>
 7    0  0.4712189E-002  0.4449322E+03  0.7546771E-02  0.1029244E+00
         21   -1    0    0  502  501  0.00000000000E+00  0.00000000000E+00  0.17330986054E+03  0.17330986054E+03  0.00000000000E+00 0. -1.
         21   -1    0    0  501  502 -0.00000000000E+00 -0.00000000000E+00 -0.28556461604E+03  0.28556461604E+03  0.00000000000E+00 0. -1.
      99926    2    1    2    0    0  0.00000000000E+00  0.71054273576E-14 -0.11225475551E+03  0.45887447658E+03  0.44493219160E+03 0.  0.
      99925    2    3    3    0    0  0.48825767081E+02  0.63853166282E+02 -0.43712077328E+01  0.27516941308E+03  0.26313098651E+03 0.  0.
         25    1    4    4    0    0  0.55929660283E+02  0.23684090765E+02  0.22543489167E+02  0.14087150194E+03  0.12509000000E+03 0.  0.
         25    1    4    4    0    0 -0.71038932019E+01  0.40169075518E+02 -0.26914696900E+02  0.13429791114E+03  0.12509000000E+03 0.  0.
         25    1    3    3    0    0 -0.48825767081E+02 -0.63853166282E+02 -0.10788354777E+03  0.18370506350E+03  0.12509000000E+03 0.  0.
<mgrwt>
<rscale>  2 0.44493219E+03</rscale>
<asrwt>0</asrwt>
<pdfrwt beam="1">  1       21 0.25486744E-01 0.44493219E+03</pdfrwt>
<pdfrwt beam="2">  1       21 0.41994796E-01 0.44493219E+03</pdfrwt>
<totfact> 0.74008341E+04</totfact>
</mgrwt>
</event>
<event>
 7    0  0.4712189E-002  0.4331285E+03  0.7546771E-02  0.1032876E+00
         21   -1    0    0  502  501  0.00000000000E+00  0.00000000000E+00  0.23520208873E+03  0.23520208873E+03  0.00000000000E+00 0.  1.
         21   -1    0    0  501  502 -0.00000000000E+00 -0.00000000000E+00 -0.19940327764E+03  0.19940327764E+03  0.00000000000E+00 0.  1.
      99926    2    1    2    0    0  0.00000000000E+00  0.00000000000E+00  0.35798811092E+02  0.43460536637E+03  0.43312846778E+03 0.  0.
      99925    2    3    3    0    0 -0.86688119523E+02  0.22159177710E+02  0.40098271027E+02  0.28074876860E+03  0.26307059985E+03 0.  0.
         25    1    3    3    0    0  0.86688119523E+02 -0.22159177710E+02 -0.42994599355E+01  0.15385659778E+03  0.12509000000E+03 0.  0.
         25    1    4    4    0    0 -0.46080109159E+02  0.60436275178E+01 -0.20569156274E+02  0.13502036951E+03  0.12509000000E+03 0.  0.
         25    1    4    4    0    0 -0.40608010364E+02  0.16115550193E+02  0.60667427301E+02  0.14572839908E+03  0.12509000000E+03 0.  0.
<mgrwt>
<rscale>  2 0.43312847E+03</rscale>
<asrwt>0</asrwt>
<pdfrwt beam="1">  1       21 0.34588543E-01 0.43312847E+03</pdfrwt>
<pdfrwt beam="2">  1       21 0.29324011E-01 0.43312847E+03</pdfrwt>
<totfact> 0.83755551E+04</totfact>
</mgrwt>
</event>
<event>
 7    0  0.4712189E-002  0.4517052E+03  0.7546771E-02  0.1027215E+00
         21   -1    0    0  502  501  0.00000000000E+00  0.00000000000E+00  0.59897105043E+03  0.59897105043E+03  0.00000000000E+00 0. -1.
         21   -1    0    0  501  502 -0.00000000000E+00 -0.00000000000E+00 -0.85161694144E+02  0.85161694144E+02  0.00000000000E+00 0. -1.
      99926    2    1    2    0    0  0.00000000000E+00  0.00000000000E+00  0.51380935628E+03  0.68413274457E+03  0.45170516666E+03 0.  0.
      99925    2    3    3    0    0  0.92363423837E+02  0.53016013654E+02  0.28358657040E+03  0.40130463598E+03  0.26321544063E+03 0.  0.
         25    1    3    3    0    0 -0.92363423837E+02 -0.53016013654E+02  0.23022278589E+03  0.28282810859E+03  0.12509000000E+03 0.  0.
         25    1    4    4    0    0  0.13022691741E+02 -0.20705836003E+00  0.14077382625E+03  0.18877079126E+03  0.12509000000E+03 0.  0.
         25    1    4    4    0    0  0.79340732096E+02  0.53223072014E+02  0.14281274414E+03  0.21253384473E+03  0.12509000000E+03 0.  0.
<mgrwt>
<rscale>  2 0.45170517E+03</rscale>
<asrwt>0</asrwt>
<pdfrwt beam="1">  1       21 0.88083976E-01 0.45170517E+03</pdfrwt>
<pdfrwt beam="2">  1       21 0.12523779E-01 0.45170517E+03</pdfrwt>
<totfact> 0.55191027E+04</totfact>
</mgrwt>
</event>
<event>
 7    0  0.4712189E-002  0.4612549E+03  0.7546771E-02  0.1024418E+00
         21   -1    0    0  502  501  0.00000000000E+00  0.00000000000E+00  0.14433660278E+04  0.14433660278E+04  0.00000000000E+00 0.  1.
         21   -1    0    0  501  502 -0.00000000000E+00 -0.00000000000E+00 -0.36850685048E+02  0.36850685048E+02  0.00000000000E+00 0.  1.
      99926    2    1    2    0    0 -0.35527136788E-14 -0.14210854715E-13  0.14065153427E+04  0.14802167128E+04  0.46125492690E+03 0.  0.
      99925    2    3    3    0    0  0.25877782271E+02  0.98919018363E+02  0.68544307525E+03  0.74126654208E+03  0.26303848615E+03 0.  0.
         25    1    3    3    0    0 -0.25877782271E+02 -0.98919018363E+02  0.72107226748E+03  0.73895017074E+03  0.12509000000E+03 0.  0.
         25    1    4    4    0    0 -0.21057833231E+02  0.71950174539E+02  0.34562135145E+03  0.37512915993E+03  0.12509000000E+03 0.  0.
         25    1    4    4    0    0  0.46935615501E+02  0.26968843824E+02  0.33982172380E+03  0.36613738215E+03  0.12509000000E+03 0.  0.
<mgrwt>
<rscale>  2 0.46125493E+03</rscale>
<asrwt>0</asrwt>
<pdfrwt beam="1">  1       21 0.21225967E+00 0.46125493E+03</pdfrwt>
<pdfrwt beam="2">  1       21 0.54192194E-02 0.46125493E+03</pdfrwt>
<totfact> 0.23124085E+04</totfact>
</mgrwt>
</event>
<event>
 7    0  0.4712189E-002  0.4574598E+03  0.7546771E-02  0.1025521E+00
         21   -1    0    0  502  501  0.00000000000E+00  0.00000000000E+00  0.41861366257E+03  0.41861366257E+03  0.00000000000E+00 0. -1.
         21   -1    0    0  501  502 -0.00000000000E+00 -0.00000000000E+00 -0.12497767608E+03  0.12497767608E+03  0.00000000000E+00 0. -1.
      99926    2    1    2    0    0  0.17763568394E-14 -0.14210854715E-13  0.29363598650E+03  0.54359133865E+03  0.45745978062E+03 0.  0.
      99925    2    3    3    0    0  0.11915938336E+02  0.10122135854E+03  0.24874731752E+03  0.37610923897E+03  0.26304976459E+03 0.  0.
         25    1    3    3    0    0 -0.11915938336E+02 -0.10122135854E+03  0.44888668975E+02  0.16748209968E+03  0.12509000000E+03 0.  0.
         25    1    4    4    0    0 -0.16616209469E+02  0.14701794341E+02  0.12098874282E+03  0.17543666995E+03  0.12509000000E+03 0.  0.
         25    1    4    4    0    0  0.28532147806E+02  0.86519564196E+02  0.12775857470E+03  0.20067256902E+03  0.12509000000E+03 0.  0.
<mgrwt>
<rscale>  2 0.45745978E+03</rscale>
<asrwt>0</asrwt>
<pdfrwt beam="1">  1       21 0.61560832E-01 0.45745978E+03</pdfrwt>
<pdfrwt beam="2">  1       21 0.18379070E-01 0.45745978E+03</pdfrwt>
<totfact> 0.61094099E+04</totfact>
</mgrwt>
</event>
<event>
 7    0  0.4712189E-002  0.4522064E+03  0.7546771E-02  0.1027066E+00
         21   -1    0    0  502  501  0.00000000000E+00  0.00000000000E+00  0.17327860145E+03  0.17327860145E+03  0.00000000000E+00 0. -1.
         21   -1    0    0  501  502 -0.00000000000E+00 -0.00000000000E+00 -0.29503160095E+03  0.29503160095E+03  0.00000000000E+00 0. -1.
      99926    2    1    2    0    0  0.00000000000E+00  0.00000000000E+00 -0.12175299951E+03  0.46831020240E+03  0.45220642718E+03 0.  0.
      99925    2    3    3    0    0  0.10233675411E+03  0.39808772911E+02 -0.90519241736E+02  0.29895671006E+03  0.26291411473E+03 0.  0.
         25    1    4    4    0    0  0.39814561434E+02 -0.61930076068E+01 -0.11624473392E+02  0.13193251732E+03  0.12509000000E+03 0.  0.
         25    1    4    4    0    0  0.62522192675E+02  0.46001780518E+02 -0.78894768344E+02  0.16702419274E+03  0.12509000000E+03 0.  0.
         25    1    3    3    0    0 -0.10233675411E+03 -0.39808772911E+02 -0.31233757770E+02  0.16935349234E+03  0.12509000000E+03 0.  0.
<mgrwt>
<rscale>  2 0.45220643E+03</rscale>
<asrwt>0</asrwt>
<pdfrwt beam="1">  1       21 0.25482147E-01 0.45220643E+03</pdfrwt>
<pdfrwt beam="2">  1       21 0.43387000E-01 0.45220643E+03</pdfrwt>
<totfact> 0.69079884E+04</totfact>
</mgrwt>
</event>
<event>
 7    0  0.4712189E-002  0.4531583E+03  0.7546771E-02  0.1026784E+00
         21   -1    0    0  502  501  0.00000000000E+00  0.00000000000E+00  0.11024444905E+03  0.11024444905E+03  0.00000000000E+00 0. -1.
         21   -1    0    0  501  502 -0.00000000000E+00 -0.00000000000E+00 -0.46567526457E+03  0.46567526457E+03  0.00000000000E+00 0. -1.
      99926    2    1    2    0    0  0.00000000000E+00  0.00000000000E+00 -0.35543081552E+03  0.57591971362E+03  0.45315830779E+03 0.  0.
      99925    2    3    3    0    0 -0.87010124658E+02 -0.19180371301E+02 -0.13875839913E+03  0.31033904309E+03  0.26290260535E+03 0.  0.
         25    1    3    3    0    0  0.87010124658E+02  0.19180371301E+02 -0.21667241639E+03  0.26558067053E+03  0.12509000000E+03 0.  0.
         25    1    4    4    0    0 -0.80149507233E+01  0.10071487678E+02 -0.49834650239E+02  0.13526520160E+03  0.12509000000E+03 0.  0.
         25    1    4    4    0    0 -0.78995173935E+02 -0.29251858979E+02 -0.88923748888E+02  0.17507384149E+03  0.12509000000E+03 0.  0.
<mgrwt>
<rscale>  2 0.45315831E+03</rscale>
<asrwt>0</asrwt>
<pdfrwt beam="1">  1       21 0.16212419E-01 0.45315831E+03</pdfrwt>
<pdfrwt beam="2">  1       21 0.68481657E-01 0.45315831E+03</pdfrwt>
<totfact> 0.61069923E+04</totfact>
</mgrwt>
</event>
<event>
 7    0  0.4712189E-002  0.4572744E+03  0.7546771E-02  0.1025575E+00
         21   -1    0    0  502  501  0.00000000000E+00  0.00000000000E+00  0.26390875945E+03  0.26390875945E+03  0.00000000000E+00 0.  1.
         21   -1    0    0  501  502 -0.00000000000E+00 -0.00000000000E+00 -0.19807966355E+03  0.19807966355E+03  0.00000000000E+00 0.  1.
      99926    2    1    2    0    0  0.00000000000E+00  0.00000000000E+00  0.65829095897E+02  0.46198842301E+03  0.45727435214E+03 0.  0.
      99925    2    3    3    0    0  0.93978224628E+02  0.66307382013E+02  0.34973003820E+02  0.28928004993E+03  0.26311833968E+03 0.  0.
         25    1    4    4    0    0  0.33050661769E+02  0.44234660896E+02  0.54218691903E+02  0.14709257670E+03  0.12509000000E+03 0.  0.
         25    1    4    4    0    0  0.60927562859E+02  0.22072721117E+02 -0.19245688082E+02  0.14218747323E+03  0.12509000000E+03 0.  0.
         25    1    3    3    0    0 -0.93978224628E+02 -0.66307382013E+02  0.30856092076E+02  0.17270837308E+03  0.12509000000E+03 0.  0.
<mgrwt>
<rscale>  2 0.45727435E+03</rscale>
<asrwt>0</asrwt>
<pdfrwt beam="1">  1       21 0.38810112E-01 0.45727435E+03</pdfrwt>
<pdfrwt beam="2">  1       21 0.29129362E-01 0.45727435E+03</pdfrwt>
<totfact> 0.66815799E+04</totfact>
</mgrwt>
</event>
<event>
 7    0  0.4712189E-002  0.4563002E+03  0.7546771E-02  0.1025860E+00
         21   -1    0    0  502  501  0.00000000000E+00  0.00000000000E+00  0.11074642163E+03  0.11074642163E+03  0.00000000000E+00 0. -1.
         21   -1    0    0  501  502 -0.00000000000E+00 -0.00000000000E+00 -0.47001488951E+03  0.47001488951E+03  0.00000000000E+00 0. -1.
      99926    2    1    2    0    0  0.00000000000E+00 -0.17763568394E-14 -0.35926846788E+03  0.58076131114E+03  0.45630019561E+03 0.  0.
      99925    2    3    3    0    0  0.72234874379E+02  0.10268459655E+02 -0.33784140587E+03  0.43437160718E+03  0.26309420226E+03 0.  0.
         25    1    4    4    0    0  0.90901374498E+01 -0.20099375173E+02 -0.18889641190E+03  0.22763123250E+03  0.12509000000E+03 0.  0.
         25    1    3    3    0    0 -0.72234874379E+02 -0.10268459655E+02 -0.21427062006E+02  0.14638970396E+03  0.12509000000E+03 0.  0.
         25    1    4    4    0    0  0.63144736929E+02  0.30367834828E+02 -0.14894499397E+03  0.20674037468E+03  0.12509000000E+03 0.  0.
<mgrwt>
<rscale>  2 0.45630020E+03</rscale>
<asrwt>0</asrwt>
<pdfrwt beam="1">  1       21 0.16286239E-01 0.45630020E+03</pdfrwt>
<pdfrwt beam="2">  1       21 0.69119836E-01 0.45630020E+03</pdfrwt>
<totfact> 0.59266820E+04</totfact>
</mgrwt>
</event>
<event>
 7    0  0.4712189E-002  0.4519773E+03  0.7546771E-02  0.1027134E+00
         21   -1    0    0  502  501  0.00000000000E+00  0.00000000000E+00  0.14261116769E+03  0.14261116769E+03  0.00000000000E+00 0. -1.
         21   -1    0    0  501  502 -0.00000000000E+00 -0.00000000000E+00 -0.35811269955E+03  0.35811269955E+03  0.00000000000E+00 0. -1.
      99926    2    1    2    0    0  0.00000000000E+00  0.00000000000E+00 -0.21550153185E+03  0.50072386724E+03  0.45197730141E+03 0.  0.
      99925    2    3    3    0    0  0.16193153713E+02  0.21023014933E+02 -0.25500723945E+03  0.36688667354E+03  0.26243657075E+03 0.  0.
         25    1    3    3    0    0 -0.16193153713E+02 -0.21023014933E+02  0.39505707600E+02  0.13383719370E+03  0.12509000000E+03 0.  0.
         25    1    4    4    0    0  0.12688103994E+01 -0.22239031531E+02 -0.15442899711E+03  0.19998001813E+03  0.12509000000E+03 0.  0.
         25    1    4    4    0    0  0.14924343313E+02  0.43262046465E+02 -0.10057824234E+03  0.16690665541E+03  0.12509000000E+03 0.  0.
<mgrwt>
<rscale>  2 0.45197730E+03</rscale>
<asrwt>0</asrwt>
<pdfrwt beam="1">  1       21 0.20972231E-01 0.45197730E+03</pdfrwt>
<pdfrwt beam="2">  1       21 0.52663631E-01 0.45197730E+03</pdfrwt>
<totfact> 0.66808461E+04</totfact>
</mgrwt>
</event>
<event>
 7    0  0.4712189E-002  0.4327114E+03  0.7546771E-02  0.1033007E+00
         21   -1    0    0  502  501  0.00000000000E+00  0.00000000000E+00  0.14905813298E+03  0.14905813298E+03  0.00000000000E+00 0.  1.
         21   -1    0    0  501  502 -0.00000000000E+00 -0.00000000000E+00 -0.31403716090E+03  0.31403716090E+03  0.00000000000E+00 0.  1.
      99926    2    1    2    0    0  0.00000000000E+00 -0.17763568394E-14 -0.16497902792E+03  0.46309529388E+03  0.43271141834E+03 0.  0.
      99925    2    3    3    0    0 -0.22234123449E+02  0.33237022643E+01 -0.20019848498E+03  0.33121155152E+03  0.26289970565E+03 0.  0.
         25    1    3    3    0    0  0.22234123449E+02 -0.33237022643E+01  0.35219457058E+02  0.13188374236E+03  0.12509000000E+03 0.  0.
         25    1    4    4    0    0 -0.20524053483E+01  0.14067559963E+02 -0.14653617202E+03  0.19319023376E+03  0.12509000000E+03 0.  0.
         25    1    4    4    0    0 -0.20181718101E+02 -0.10743857699E+02 -0.53662312954E+02  0.13802131776E+03  0.12509000000E+03 0.  0.
<mgrwt>
<rscale>  2 0.43271142E+03</rscale>
<asrwt>0</asrwt>
<pdfrwt beam="1">  1       21 0.21920314E-01 0.43271142E+03</pdfrwt>
<pdfrwt beam="2">  1       21 0.46181934E-01 0.43271142E+03</pdfrwt>
<totfact> 0.81430849E+04</totfact>
</mgrwt>
</event>
<event>
 7    0  0.4712189E-002  0.4540770E+03  0.7546771E-02  0.1026513E+00
         21   -1    0    0  502  501  0.00000000000E+00  0.00000000000E+00  0.18891332710E+03  0.18891332710E+03  0.00000000000E+00 0. -1.
         21   -1    0    0  501  502 -0.00000000000E+00 -0.00000000000E+00 -0.27285778545E+03  0.27285778545E+03  0.00000000000E+00 0. -1.
      99926    2    1    2    0    0  0.55511151231E-16  0.00000000000E+00 -0.83944458346E+02  0.46177111255E+03  0.45407696297E+03 0.  0.
      99925    2    3    3    0    0 -0.42241891090E+00 -0.10480343537E+03 -0.11957532352E+02  0.28340753971E+03  0.26304545707E+03 0.  0.
         25    1    4    4    0    0 -0.20065555846E+01 -0.42989067205E+02 -0.45503146338E+02  0.13989328287E+03  0.12509000000E+03 0.  0.
         25    1    4    4    0    0  0.15841366737E+01 -0.61814368163E+02  0.33545613986E+02  0.14351425685E+03  0.12509000000E+03 0.  0.
         25    1    3    3    0    0  0.42241891090E+00  0.10480343537E+03 -0.71986925994E+02  0.17836357284E+03  0.12509000000E+03 0.  0.
<mgrwt>
<rscale>  2 0.45407696E+03</rscale>
<asrwt>0</asrwt>
<pdfrwt beam="1">  1       21 0.27781372E-01 0.45407696E+03</pdfrwt>
<pdfrwt beam="2">  1       21 0.40126145E-01 0.45407696E+03</pdfrwt>
<totfact> 0.68552126E+04</totfact>
</mgrwt>
</event>
<event>
 7    0  0.4712189E-002  0.4518453E+03  0.7546771E-02  0.1027173E+00
         21   -1    0    0  502  501  0.00000000000E+00  0.00000000000E+00  0.11624373435E+03  0.11624373435E+03  0.00000000000E+00 0. -1.
         21   -1    0    0  501  502 -0.00000000000E+00 -0.00000000000E+00 -0.43908644307E+03  0.43908644307E+03  0.00000000000E+00 0. -1.
      99926    2    1    2    0    0  0.00000000000E+00  0.00000000000E+00 -0.32284270872E+03  0.55533017743E+03  0.45184531798E+03 0.  0.
      99925    2    3    3    0    0 -0.40494654417E+02  0.13704308497E+02 -0.78906622886E+02  0.27787757394E+03  0.26298681689E+03 0.  0.
         25    1    4    4    0    0 -0.22153595263E+00  0.17526248138E+02 -0.35898254736E+01  0.12636302228E+03  0.12509000000E+03 0.  0.
         25    1    4    4    0    0 -0.40273118464E+02 -0.38219396409E+01 -0.75316797413E+02  0.15151455166E+03  0.12509000000E+03 0.  0.
         25    1    3    3    0    0  0.40494654417E+02 -0.13704308497E+02 -0.24393608584E+03  0.27745260349E+03  0.12509000000E+03 0.  0.
<mgrwt>
<rscale>  2 0.45184532E+03</rscale>
<asrwt>0</asrwt>
<pdfrwt beam="1">  1       21 0.17094667E-01 0.45184532E+03</pdfrwt>
<pdfrwt beam="2">  1       21 0.64571536E-01 0.45184532E+03</pdfrwt>
<totfact> 0.63075083E+04</totfact>
</mgrwt>
</event>
<event>
 7    0  0.4712189E-002  0.4584748E+03  0.7546771E-02  0.1025224E+00
         21   -1    0    0  502  501  0.00000000000E+00  0.00000000000E+00  0.17133885903E+04  0.17133885903E+04  0.00000000000E+00 0. -1.
         21   -1    0    0  501  502 -0.00000000000E+00 -0.00000000000E+00 -0.30670097367E+02  0.30670097367E+02  0.00000000000E+00 0. -1.
      99926    2    1    2    0    0  0.00000000000E+00  0.00000000000E+00  0.16827184930E+04  0.17440586877E+04  0.45847484072E+03 0.  0.
      99925    2    3    3    0    0  0.17256155241E+01 -0.11631442664E+03  0.10921599074E+04  0.11292912726E+04  0.26258996825E+03 0.  0.
         25    1    4    4    0    0 -0.83188171170E+01 -0.16595604629E+02  0.51341002578E+03  0.52875512242E+03  0.12509000000E+03 0.  0.
         25    1    3    3    0    0 -0.17256155241E+01  0.11631442664E+03  0.59055858552E+03  0.61476741506E+03  0.12509000000E+03 0.  0.
         25    1    4    4    0    0  0.10044432641E+02 -0.99718822011E+02  0.57874988166E+03  0.60053615022E+03  0.12509000000E+03 0.  0.
<mgrwt>
<rscale>  2 0.45847484E+03</rscale>
<asrwt>0</asrwt>
<pdfrwt beam="1">  1       21 0.25196884E+00 0.45847484E+03</pdfrwt>
<pdfrwt beam="2">  1       21 0.45103096E-02 0.45847484E+03</pdfrwt>
<totfact> 0.17872538E+04</totfact>
</mgrwt>
</event>
<event>
 7    0  0.4712189E-002  0.4674407E+03  0.7546771E-02  0.1022645E+00
         21   -1    0    0  502  501  0.00000000000E+00  0.00000000000E+00  0.19556262197E+03  0.19556262197E+03  0.00000000000E+00 0. -1.
         21   -1    0    0  501  502 -0.00000000000E+00 -0.00000000000E+00 -0.27932331544E+03  0.27932331544E+03  0.00000000000E+00 0. -1.
      99926    2    1    2    0    0  0.00000000000E+00  0.00000000000E+00 -0.83760693468E+02  0.47488593741E+03  0.46744069119E+03 0.  0.
      99925    2    3    3    0    0  0.20746171570E+02 -0.83899718551E+01  0.72378776760E+02  0.27357066843E+03  0.26287150480E+03 0.  0.
         25    1    3    3    0    0 -0.20746171570E+02  0.83899718551E+01 -0.15613947023E+03  0.20131526898E+03  0.12509000000E+03 0.  0.
         25    1    4    4    0    0  0.42735757090E+02 -0.14981851733E+02  0.59521707756E+02  0.14574341361E+03  0.12509000000E+03 0.  0.
         25    1    4    4    0    0 -0.21989585520E+02  0.65918798780E+01  0.12857069004E+02  0.12782725482E+03  0.12509000000E+03 0.  0.
<mgrwt>
<rscale>  2 0.46744069E+03</rscale>
<asrwt>0</asrwt>
<pdfrwt beam="1">  1       21 0.28759209E-01 0.46744069E+03</pdfrwt>
<pdfrwt beam="2">  1       21 0.41076958E-01 0.46744069E+03</pdfrwt>
<totfact> 0.60839520E+04</totfact>
</mgrwt>
</event>
<event>
 7    0  0.4712189E-002  0.4553557E+03  0.7546771E-02  0.1026137E+00
         21   -1    0    0  502  501  0.00000000000E+00  0.00000000000E+00  0.48059408321E+03  0.48059408321E+03  0.00000000000E+00 0.  1.
         21   -1    0    0  501  502 -0.00000000000E+00 -0.00000000000E+00 -0.10786069025E+03  0.10786069025E+03  0.00000000000E+00 0.  1.
      99926    2    1    2    0    0  0.00000000000E+00  0.00000000000E+00  0.37273339296E+03  0.58845477346E+03  0.45535572708E+03 0.  0.
      99925    2    3    3    0    0 -0.25458036657E+02 -0.28382369911E+02  0.37271009768E+03  0.45768329647E+03  0.26288307743E+03 0.  0.
         25    1    3    3    0    0  0.25458036657E+02  0.28382369911E+02  0.23295276900E-01  0.13077147699E+03  0.12509000000E+03 0.  0.
         25    1    4    4    0    0 -0.46538835541E+02 -0.27043204148E+02  0.16094710421E+03  0.21082854777E+03  0.12509000000E+03 0.  0.
         25    1    4    4    0    0  0.21080798884E+02 -0.13391657639E+01  0.21176299347E+03  0.24685474869E+03  0.12509000000E+03 0.  0.
<mgrwt>
<rscale>  2 0.45535573E+03</rscale>
<asrwt>0</asrwt>
<pdfrwt beam="1">  1       21 0.70675599E-01 0.45535573E+03</pdfrwt>
<pdfrwt beam="2">  1       21 0.15861866E-01 0.45535573E+03</pdfrwt>
<totfact> 0.59227890E+04</totfact>
</mgrwt>
</event>
<event>
 7    0  0.4712189E-002  0.4403086E+03  0.7546771E-02  0.1030652E+00
         21   -1    0    0  502  501  0.00000000000E+00  0.00000000000E+00  0.18367934442E+03  0.18367934442E+03  0.00000000000E+00 0. -1.
         21   -1    0    0  501  502 -0.00000000000E+00 -0.00000000000E+00 -0.26387248318E+03  0.26387248318E+03  0.00000000000E+00 0. -1.
      99926    2    1    2    0    0 -0.17763568394E-14  0.00000000000E+00 -0.80193138756E+02  0.44755182761E+03  0.44030864049E+03 0.  0.
      99925    2    3    3    0    0 -0.15370427498E+02 -0.42334847912E+02 -0.14036942738E+03  0.30161628292E+03  0.26313554795E+03 0.  0.
         25    1    4    4    0    0 -0.47210282240E+02 -0.26687189358E+02 -0.81934253139E+02  0.15906522801E+03  0.12509000000E+03 0.  0.
         25    1    4    4    0    0  0.31839854742E+02 -0.15647658554E+02 -0.58435174239E+02  0.14255105491E+03  0.12509000000E+03 0.  0.
         25    1    3    3    0    0  0.15370427498E+02  0.42334847912E+02  0.60176288622E+02  0.14593554468E+03  0.12509000000E+03 0.  0.
<mgrwt>
<rscale>  2 0.44030864E+03</rscale>
<asrwt>0</asrwt>
<pdfrwt beam="1">  1       21 0.27011669E-01 0.44030864E+03</pdfrwt>
<pdfrwt beam="2">  1       21 0.38804777E-01 0.44030864E+03</pdfrwt>
<totfact> 0.77821512E+04</totfact>
</mgrwt>
</event>
<event>
 7    0  0.4712189E-002  0.3996715E+03  0.7546771E-02  0.1043893E+00
         21   -1    0    0  502  501  0.00000000000E+00  0.00000000000E+00  0.12815630433E+03  0.12815630433E+03  0.00000000000E+00 0. -1.
         21   -1    0    0  501  502 -0.00000000000E+00 -0.00000000000E+00 -0.31160644053E+03  0.31160644053E+03  0.00000000000E+00 0. -1.
      99926    2    1    2    0    0  0.00000000000E+00  0.00000000000E+00 -0.18345013620E+03  0.43976274486E+03  0.39967151424E+03 0.  0.
      99925    2    3    3    0    0 -0.24048786997E+02 -0.26706319297E+02 -0.15259373644E+03  0.30600476509E+03  0.26279744331E+03 0.  0.
         25    1    4    4    0    0 -0.10525086132E+02 -0.28141771322E+02 -0.33924193588E+02  0.13304546494E+03  0.12509000000E+03 0.  0.
         25    1    4    4    0    0 -0.13523700865E+02  0.14354520242E+01 -0.11866954285E+03  0.17295930015E+03  0.12509000000E+03 0.  0.
         25    1    3    3    0    0  0.24048786997E+02  0.26706319297E+02 -0.30856399764E+02  0.13375797977E+03  0.12509000000E+03 0.  0.
<mgrwt>
<rscale>  2 0.39967151E+03</rscale>
<asrwt>0</asrwt>
<pdfrwt beam="1">  1       21 0.18846515E-01 0.39967151E+03</pdfrwt>
<pdfrwt beam="2">  1       21 0.45824476E-01 0.39967151E+03</pdfrwt>
<totfact> 0.11108626E+05</totfact>
</mgrwt>
</event>
<event>
 7    0  0.4712189E-002  0.4570416E+03  0.7546771E-02  0.1025643E+00
         21   -1    0    0  502  501  0.00000000000E+00  0.00000000000E+00  0.48439185918E+03  0.48439185918E+03  0.00000000000E+00 0. -1.
         21   -1    0    0  501  502 -0.00000000000E+00 -0.00000000000E+00 -0.10780890519E+03  0.10780890519E+03  0.00000000000E+00 0. -1.
      99926    2    1    2    0    0  0.00000000000E+00  0.00000000000E+00  0.37658295399E+03  0.59220076437E+03  0.45704159996E+03 0.  0.
      99925    2    3    3    0    0  0.64253591714E+02  0.46617912262E+02  0.34454811699E+03  0.44062407529E+03  0.26293424466E+03 0.  0.
         25    1    4    4    0    0  0.32391248802E+02  0.21643115367E+02  0.23683225094E+03  0.27065594512E+03  0.12509000000E+03 0.  0.
         25    1    4    4    0    0  0.31862342912E+02  0.24974796895E+02  0.10771586604E+03  0.16996813017E+03  0.12509000000E+03 0.  0.
         25    1    3    3    0    0 -0.64253591714E+02 -0.46617912262E+02  0.32034836998E+02  0.15157668908E+03  0.12509000000E+03 0.  0.
<mgrwt>
<rscale>  2 0.45704160E+03</rscale>
<asrwt>0</asrwt>
<pdfrwt beam="1">  1       21 0.71234096E-01 0.45704160E+03</pdfrwt>
<pdfrwt beam="2">  1       21 0.15854251E-01 0.45704160E+03</pdfrwt>
<totfact> 0.58215903E+04</totfact>
</mgrwt>
</event>
<event>
 7    0  0.4712189E-002  0.4580881E+03  0.7546771E-02  0.1025337E+00
         21   -1    0    0  502  501  0.00000000000E+00  0.00000000000E+00  0.51959436385E+02  0.51959436385E+02  0.00000000000E+00 0. -1.
         21   -1    0    0  501  502 -0.00000000000E+00 -0.00000000000E+00 -0.10096562307E+04  0.10096562307E+04  0.00000000000E+00 0. -1.
      99926    2    1    2    0    0  0.00000000000E+00  0.00000000000E+00 -0.95769679433E+03  0.10616156671E+04  0.45808806442E+03 0.  0.
      99925    2    3    3    0    0  0.61013706118E+02  0.67918585362E+02 -0.43484784386E+03  0.51631378770E+03  0.26296705780E+03 0.  0.
         25    1    4    4    0    0  0.95775245353E+01  0.11455771014E+02 -0.14929963710E+03  0.19534803149E+03  0.12509000000E+03 0.  0.
         25    1    4    4    0    0  0.51436181583E+02  0.56462814348E+02 -0.28554820675E+03  0.32096575621E+03  0.12509000000E+03 0.  0.
         25    1    3    3    0    0 -0.61013706118E+02 -0.67918585362E+02 -0.52284895047E+03  0.54530187941E+03  0.12509000000E+03 0.  0.
<mgrwt>
<rscale>  2 0.45808806E+03</rscale>
<asrwt>0</asrwt>
<pdfrwt beam="1">  1       21 0.76410932E-02 0.45808806E+03</pdfrwt>
<pdfrwt beam="2">  1       21 0.14847887E+00 0.45808806E+03</pdfrwt>
<totfact> 0.35979083E+04</totfact>
</mgrwt>
</event>
<event>
 7    0  0.4712189E-002  0.4637699E+03  0.7546771E-02  0.1023693E+00
         21   -1    0    0  502  501  0.00000000000E+00  0.00000000000E+00  0.12978099595E+04  0.12978099595E+04  0.00000000000E+00 0.  1.
         21   -1    0    0  501  502 -0.00000000000E+00 -0.00000000000E+00 -0.41431829711E+02  0.41431829711E+02  0.00000000000E+00 0.  1.
      99926    2    1    2    0    0  0.00000000000E+00  0.00000000000E+00  0.12563781298E+04  0.13392417892E+04  0.46376994831E+03 0.  0.
      99925    2    3    3    0    0  0.77078996960E+02  0.81532428776E+02  0.91683040746E+03  0.96038974348E+03  0.26302424721E+03 0.  0.
         25    1    4    4    0    0  0.23997734623E+02 -0.11868923261E+00  0.41769059491E+03  0.43667934063E+03  0.12509000000E+03 0.  0.
         25    1    4    4    0    0  0.53081262338E+02  0.81651118008E+02  0.49913981255E+03  0.52371040285E+03  0.12509000000E+03 0.  0.
         25    1    3    3    0    0 -0.77078996960E+02 -0.81532428776E+02  0.33954772230E+03  0.37885204571E+03  0.12509000000E+03 0.  0.
<mgrwt>
<rscale>  2 0.46376995E+03</rscale>
<asrwt>0</asrwt>
<pdfrwt beam="1">  1       21 0.19085438E+00 0.46376995E+03</pdfrwt>
<pdfrwt beam="2">  1       21 0.60929170E-02 0.46376995E+03</pdfrwt>
<totfact> 0.26165875E+04</totfact>
</mgrwt>
</event>
<event>
 7    0  0.4712189E-002  0.4595682E+03  0.7546771E-02  0.1024907E+00
         21   -1    0    0  502  501  0.00000000000E+00  0.00000000000E+00  0.11388231617E+03  0.11388231617E+03  0.00000000000E+00 0.  1.
         21   -1    0    0  501  502 -0.00000000000E+00 -0.00000000000E+00 -0.46364292273E+03  0.46364292273E+03  0.00000000000E+00 0.  1.
      99926    2    1    2    0    0  0.00000000000E+00 -0.44408920985E-15 -0.34976060656E+03  0.57752523891E+03  0.45956818827E+03 0.  0.
      99925    2    3    3    0    0 -0.75351555953E+02  0.30841307980E+01 -0.33217631183E+03  0.43040595272E+03  0.26309848565E+03 0.  0.
         25    1    4    4    0    0 -0.61569647831E+02  0.79156817537E+01 -0.22608738273E+03  0.26573763806E+03  0.12509000000E+03 0.  0.
         25    1    4    4    0    0 -0.13781908122E+02 -0.48315509558E+01 -0.10608892909E+03  0.16466831466E+03  0.12509000000E+03 0.  0.
         25    1    3    3    0    0  0.75351555953E+02 -0.30841307980E+01 -0.17584294735E+02  0.14711928619E+03  0.12509000000E+03 0.  0.
<mgrwt>
<rscale>  2 0.45956819E+03</rscale>
<asrwt>0</asrwt>
<pdfrwt beam="1">  1       21 0.16747399E-01 0.45956819E+03</pdfrwt>
<pdfrwt beam="2">  1       21 0.68182784E-01 0.45956819E+03</pdfrwt>
<totfact> 0.57961447E+04</totfact>
</mgrwt>
</event>
<event>
 7    0  0.4712189E-002  0.4613678E+03  0.7546771E-02  0.1024385E+00
         21   -1    0    0  502  501  0.00000000000E+00  0.00000000000E+00  0.37678686936E+03  0.37678686936E+03  0.00000000000E+00 0.  1.
         21   -1    0    0  501  502 -0.00000000000E+00 -0.00000000000E+00 -0.14123383739E+03  0.14123383739E+03  0.00000000000E+00 0.  1.
      99926    2    1    2    0    0  0.00000000000E+00  0.00000000000E+00  0.23555303197E+03  0.51802070676E+03  0.46136777278E+03 0.  0.
      99925    2    3    3    0    0  0.54481896311E+02 -0.91892158082E+02  0.20639282886E+03  0.35095703240E+03  0.26298363646E+03 0.  0.
         25    1    4    4    0    0  0.12197443430E+02 -0.83781477644E+01  0.73445359914E+02  0.14581049338E+03  0.12509000000E+03 0.  0.
         25    1    3    3    0    0 -0.54481896311E+02  0.91892158082E+02  0.29160203111E+02  0.16706367435E+03  0.12509000000E+03 0.  0.
         25    1    4    4    0    0  0.42284452880E+02 -0.83514010318E+02  0.13294746895E+03  0.20514653903E+03  0.12509000000E+03 0.  0.
<mgrwt>
<rscale>  2 0.46136777E+03</rscale>
<asrwt>0</asrwt>
<pdfrwt beam="1">  1       21 0.55409834E-01 0.46136777E+03</pdfrwt>
<pdfrwt beam="2">  1       21 0.20769682E-01 0.46136777E+03</pdfrwt>
<totfact> 0.60887050E+04</totfact>
</mgrwt>
</event>
<event>
 7    0  0.4712189E-002  0.4543132E+03  0.7546771E-02  0.1026444E+00
         21   -1    0    0  502  501  0.00000000000E+00  0.00000000000E+00  0.12074337092E+04  0.12074337092E+04  0.00000000000E+00 0. -1.
         21   -1    0    0  501  502 -0.00000000000E+00 -0.00000000000E+00 -0.42735361590E+02  0.42735361590E+02  0.00000000000E+00 0. -1.
      99926    2    1    2    0    0  0.00000000000E+00 -0.71054273576E-14  0.11646983476E+04  0.12501690708E+04  0.45431317902E+03 0.  0.
      99925    2    3    3    0    0  0.50947852567E+02  0.63530139162E+02  0.94685635219E+03  0.98609634343E+03  0.26309177977E+03 0.  0.
         25    1    4    4    0    0  0.25957291149E+02  0.35449681694E+02  0.33148670391E+03  0.35701737193E+03  0.12509000000E+03 0.  0.
         25    1    3    3    0    0 -0.50947852567E+02 -0.63530139162E+02  0.21784199539E+03  0.26407272733E+03  0.12509000000E+03 0.  0.
         25    1    4    4    0    0  0.24990561419E+02  0.28080457468E+02  0.61536964829E+03  0.62907897150E+03  0.12509000000E+03 0.  0.
<mgrwt>
<rscale>  2 0.45431318E+03</rscale>
<asrwt>0</asrwt>
<pdfrwt beam="1">  1       21 0.17756376E+00 0.45431318E+03</pdfrwt>
<pdfrwt beam="2">  1       21 0.62846128E-02 0.45431318E+03</pdfrwt>
<totfact> 0.30761046E+04</totfact>
</mgrwt>
</event>
<event>
 7    0  0.4712189E-002  0.4407309E+03  0.7546771E-02  0.1030523E+00
         21   -1    0    0  502  501  0.00000000000E+00  0.00000000000E+00  0.78089254774E+02  0.78089254774E+02  0.00000000000E+00 0.  1.
         21   -1    0    0  501  502 -0.00000000000E+00 -0.00000000000E+00 -0.62186454893E+03  0.62186454893E+03  0.00000000000E+00 0.  1.
      99926    2    1    2    0    0 -0.14210854715E-13  0.35527136788E-14 -0.54377529416E+03  0.69995380371E+03  0.44073093468E+03 0.  0.
      99925    2    3    3    0    0 -0.92324325519E+02  0.20410971535E+02 -0.39460845779E+03  0.48353143422E+03  0.26295707649E+03 0.  0.
         25    1    3    3    0    0  0.92324325519E+02 -0.20410971535E+02 -0.14916683637E+03  0.21642236948E+03  0.12509000000E+03 0.  0.
         25    1    4    4    0    0 -0.50984851981E+02  0.47105662606E+02 -0.23193011388E+03  0.27250226495E+03  0.12509000000E+03 0.  0.
         25    1    4    4    0    0 -0.41339473538E+02 -0.26694691071E+02 -0.16267834391E+03  0.21102916927E+03  0.12509000000E+03 0.  0.
<mgrwt>
<rscale>  2 0.44073093E+03</rscale>
<asrwt>0</asrwt>
<pdfrwt beam="1">  1       21 0.11483714E-01 0.44073093E+03</pdfrwt>
<pdfrwt beam="2">  1       21 0.91450666E-01 0.44073093E+03</pdfrwt>
<totfact> 0.59287766E+04</totfact>
</mgrwt>
</event>
<event>
 7    0  0.4712189E-002  0.4610905E+03  0.7546771E-02  0.1024465E+00
         21   -1    0    0  502  501  0.00000000000E+00  0.00000000000E+00  0.23495168701E+03  0.23495168701E+03  0.00000000000E+00 0.  1.
         21   -1    0    0  501  502 -0.00000000000E+00 -0.00000000000E+00 -0.22622142589E+03  0.22622142589E+03  0.00000000000E+00 0.  1.
      99926    2    1    2    0    0  0.00000000000E+00  0.00000000000E+00  0.87302611234E+01  0.46117311289E+03  0.46109047116E+03 0.  0.
      99925    2    3    3    0    0 -0.32952965788E+02  0.55813705305E+02 -0.94129744565E+02  0.28673470966E+03  0.26297398589E+03 0.  0.
         25    1    3    3    0    0  0.32952965788E+02 -0.55813705305E+02  0.10286000569E+03  0.17443840324E+03  0.12509000000E+03 0.  0.
         25    1    4    4    0    0 -0.27612865802E+02  0.55111583497E+02 -0.79904378544E+02  0.16072328644E+03  0.12509000000E+03 0.  0.
         25    1    4    4    0    0 -0.53400999857E+01  0.70212180770E+00 -0.14225366021E+02  0.12601142322E+03  0.12509000000E+03 0.  0.
<mgrwt>
<rscale>  2 0.46109047E+03</rscale>
<asrwt>0</asrwt>
<pdfrwt beam="1">  1       21 0.34551719E-01 0.46109047E+03</pdfrwt>
<pdfrwt beam="2">  1       21 0.33267857E-01 0.46109047E+03</pdfrwt>
<totfact> 0.64884990E+04</totfact>
</mgrwt>
</event>
<event>
 7    0  0.4712189E-002  0.4439633E+03  0.7546771E-02  0.1029538E+00
         21   -1    0    0  502  501  0.00000000000E+00  0.00000000000E+00  0.51703436524E+02  0.51703436524E+02  0.00000000000E+00 0.  1.
         21   -1    0    0  501  502 -0.00000000000E+00 -0.00000000000E+00 -0.95304780541E+03  0.95304780541E+03  0.00000000000E+00 0.  1.
      99926    2    1    2    0    0 -0.14210854715E-13  0.00000000000E+00 -0.90134436889E+03  0.10047512419E+04  0.44396327195E+03 0.  0.
      99925    2    3    3    0    0  0.88330906133E+02 -0.24475779322E+02 -0.46759683524E+03  0.54411489535E+03  0.26270288590E+03 0.  0.
         25    1    4    4    0    0  0.28059605778E+02  0.25148856167E+02 -0.21112715725E+03  0.24827805193E+03  0.12509000000E+03 0.  0.
         25    1    3    3    0    0 -0.88330906133E+02  0.24475779322E+02 -0.43374753365E+03  0.46063634659E+03  0.12509000000E+03 0.  0.
         25    1    4    4    0    0  0.60271300356E+02 -0.49624635489E+02 -0.25646967799E+03  0.29583684342E+03  0.12509000000E+03 0.  0.
<mgrwt>
<rscale>  2 0.44396327E+03</rscale>
<asrwt>0</asrwt>
<pdfrwt beam="1">  1       21 0.76034470E-02 0.44396327E+03</pdfrwt>
<pdfrwt beam="2">  1       21 0.14015408E+00 0.44396327E+03</pdfrwt>
<totfact> 0.42531670E+04</totfact>
</mgrwt>
</event>
<event>
 7    0  0.4712189E-002  0.4648122E+03  0.7546771E-02  0.1023395E+00
         21   -1    0    0  502  501  0.00000000000E+00  0.00000000000E+00  0.16227018467E+03  0.16227018467E+03  0.00000000000E+00 0.  1.
         21   -1    0    0  501  502 -0.00000000000E+00 -0.00000000000E+00 -0.33285595031E+03  0.33285595031E+03  0.00000000000E+00 0.  1.
      99926    2    1    2    0    0 -0.35527136788E-14  0.14210854715E-13 -0.17058576564E+03  0.49512613498E+03  0.46481220520E+03 0.  0.
      99925    2    3    3    0    0  0.19873411890E+02 -0.11943122535E+03 -0.88720711634E+02  0.30275107097E+03  0.26292218661E+03 0.  0.
         25    1    4    4    0    0 -0.11308441451E+02 -0.38543175079E+02 -0.71527806880E+02  0.14959008139E+03  0.12509000000E+03 0.  0.
         25    1    4    4    0    0  0.31181853342E+02 -0.80888050268E+02 -0.17192904754E+02  0.15316098958E+03  0.12509000000E+03 0.  0.
         25    1    3    3    0    0 -0.19873411890E+02  0.11943122535E+03 -0.81865054001E+02  0.19237506401E+03  0.12509000000E+03 0.  0.
<mgrwt>
<rscale>  2 0.46481221E+03</rscale>
<asrwt>0</asrwt>
<pdfrwt beam="1">  1       21 0.23863262E-01 0.46481221E+03</pdfrwt>
<pdfrwt beam="2">  1       21 0.48949404E-01 0.46481221E+03</pdfrwt>
<totfact> 0.60743155E+04</totfact>
</mgrwt>
</event>
<event>
 7    0  0.4712189E-002  0.4517988E+03  0.7546771E-02  0.1027187E+00
         21   -1    0    0  502  501  0.00000000000E+00  0.00000000000E+00  0.76494452728E+02  0.76494452728E+02  0.00000000000E+00 0. -1.
         21   -1    0    0  501  502 -0.00000000000E+00 -0.00000000000E+00 -0.66711415197E+03  0.66711415197E+03  0.00000000000E+00 0. -1.
      99926    2    1    2    0    0 -0.35527136788E-14 -0.14210854715E-13 -0.59061969924E+03  0.74360860470E+03  0.45179876920E+03 0.  0.
      99925    2    3    3    0    0  0.17764563962E+02  0.10810447313E+03 -0.35384505118E+03  0.45427851828E+03  0.26298383046E+03 0.  0.
         25    1    4    4    0    0 -0.21020115290E+02  0.27517521901E+02 -0.14030823218E+03  0.19113599184E+03  0.12509000000E+03 0.  0.
         25    1    4    4    0    0  0.38784679251E+02  0.80586951227E+02 -0.21353681900E+03  0.26314252644E+03  0.12509000000E+03 0.  0.
         25    1    3    3    0    0 -0.17764563962E+02 -0.10810447313E+03 -0.23677464806E+03  0.28933008642E+03  0.12509000000E+03 0.  0.
<mgrwt>
<rscale>  2 0.45179877E+03</rscale>
<asrwt>0</asrwt>
<pdfrwt beam="1">  1       21 0.11249184E-01 0.45179877E+03</pdfrwt>
<pdfrwt beam="2">  1       21 0.98105022E-01 0.45179877E+03</pdfrwt>
<totfact> 0.51891946E+04</totfact>
</mgrwt>
</event>
<event>
 7    0  0.4712189E-002  0.4116961E+03  0.7546771E-02  0.1039803E+00
         21   -1    0    0  502  501  0.00000000000E+00  0.00000000000E+00  0.37889745634E+03  0.37889745634E+03  0.00000000000E+00 0.  1.
         21   -1    0    0  501  502 -0.00000000000E+00 -0.00000000000E+00 -0.11183347837E+03  0.11183347837E+03  0.00000000000E+00 0.  1.
      99926    2    1    2    0    0  0.00000000000E+00  0.00000000000E+00  0.26706397797E+03  0.49073093470E+03  0.41169610387E+03 0.  0.
      99925    2    3    3    0    0 -0.45996880775E+02 -0.44953278976E+02  0.16706489390E+03  0.31815099599E+03  0.26300735188E+03 0.  0.
         25    1    4    4    0    0 -0.29290841807E+02  0.14578410705E+02  0.99301973139E+02  0.16303028382E+03  0.12509000000E+03 0.  0.
         25    1    3    3    0    0  0.45996880775E+02  0.44953278976E+02  0.99999084069E+02  0.17257993871E+03  0.12509000000E+03 0.  0.
         25    1    4    4    0    0 -0.16706038969E+02 -0.59531689681E+02  0.67762920760E+02  0.15512071217E+03  0.12509000000E+03 0.  0.
<mgrwt>
<rscale>  2 0.41169610E+03</rscale>
<asrwt>0</asrwt>
<pdfrwt beam="1">  1       21 0.55720214E-01 0.41169610E+03</pdfrwt>
<pdfrwt beam="2">  1       21 0.16446100E-01 0.41169610E+03</pdfrwt>
<totfact> 0.94421692E+04</totfact>
</mgrwt>
</event>
<event>
 7    0  0.4712189E-002  0.4521801E+03  0.7546771E-02  0.1027074E+00
         21   -1    0    0  502  501  0.00000000000E+00  0.00000000000E+00  0.10638027698E+04  0.10638027698E+04  0.00000000000E+00 0.  1.
         21   -1    0    0  501  502 -0.00000000000E+00 -0.00000000000E+00 -0.48050932695E+02  0.48050932695E+02  0.00000000000E+00 0.  1.
      99926    2    1    2    0    0  0.00000000000E+00  0.14210854715E-13  0.10157518371E+04  0.11118537025E+04  0.45218012028E+03 0.  0.
      99925    2    3    3    0    0  0.73554457599E+02 -0.80628960294E+02  0.59602267272E+03  0.66048759056E+03  0.26284889845E+03 0.  0.
         25    1    3    3    0    0 -0.73554457599E+02  0.80628960294E+02  0.41972916441E+03  0.45136611197E+03  0.12509000000E+03 0.  0.
         25    1    4    4    0    0  0.51153184797E+02 -0.78662983030E+02  0.29917385120E+03  0.33757519838E+03  0.12509000000E+03 0.  0.
         25    1    4    4    0    0  0.22401272802E+02 -0.19659772643E+01  0.29684882151E+03  0.32291239218E+03  0.12509000000E+03 0.  0.
<mgrwt>
<rscale>  2 0.45218012E+03</rscale>
<asrwt>0</asrwt>
<pdfrwt beam="1">  1       21 0.15644157E+00 0.45218012E+03</pdfrwt>
<pdfrwt beam="2">  1       21 0.70663143E-02 0.45218012E+03</pdfrwt>
<totfact> 0.35863795E+04</totfact>
</mgrwt>
</event>
<event>
 7    0  0.4712189E-002  0.4587631E+03  0.7546771E-02  0.1025141E+00
         21   -1    0    0  502  501  0.00000000000E+00  0.00000000000E+00  0.16940744703E+03  0.16940744703E+03  0.00000000000E+00 0.  1.
         21   -1    0    0  501  502 -0.00000000000E+00 -0.00000000000E+00 -0.31058781793E+03  0.31058781793E+03  0.00000000000E+00 0.  1.
      99926    2    1    2    0    0  0.00000000000E+00  0.00000000000E+00 -0.14118037091E+03  0.47999526496E+03  0.45876307312E+03 0.  0.
      99925    2    3    3    0    0 -0.90551966600E+02 -0.73693674809E+02 -0.89068186663E+02  0.30112770444E+03  0.26289605577E+03 0.  0.
         25    1    3    3    0    0  0.90551966600E+02  0.73693674809E+02 -0.52112184244E+02  0.17886756053E+03  0.12509000000E+03 0.  0.
         25    1    4    4    0    0 -0.48888778414E+02 -0.78722392938E+02 -0.45809961492E+02  0.16227565583E+03  0.12509000000E+03 0.  0.
         25    1    4    4    0    0 -0.41663188186E+02  0.50287181296E+01 -0.43258225171E+02  0.13885204860E+03  0.12509000000E+03 0.  0.
<mgrwt>
<rscale>  2 0.45876307E+03</rscale>
<asrwt>0</asrwt>
<pdfrwt beam="1">  1       21 0.24912860E-01 0.45876307E+03</pdfrwt>
<pdfrwt beam="2">  1       21 0.45674679E-01 0.45876307E+03</pdfrwt>
<totfact> 0.64744998E+04</totfact>
</mgrwt>
</event>
<event>
 7    0  0.4712189E-002  0.4599764E+03  0.7546771E-02  0.1024788E+00
         21   -1    0    0  502  501  0.00000000000E+00  0.00000000000E+00  0.84737770183E+03  0.84737770183E+03  0.00000000000E+00 0. -1.
         21   -1    0    0  501  502 -0.00000000000E+00 -0.00000000000E+00 -0.62421480142E+02  0.62421480142E+02  0.00000000000E+00 0. -1.
      99926    2    1    2    0    0  0.00000000000E+00 -0.71054273576E-14  0.78495622168E+03  0.90979918197E+03  0.45997639238E+03 0.  0.
      99925    2    3    3    0    0 -0.10600462725E+03 -0.18821727112E+02  0.39735410522E+03  0.48852237606E+03  0.26300682228E+03 0.  0.
         25    1    3    3    0    0  0.10600462725E+03  0.18821727112E+02  0.38760211646E+03  0.42127680591E+03  0.12509000000E+03 0.  0.
         25    1    4    4    0    0 -0.23622836361E+02  0.16978276743E+02  0.20795730863E+03  0.24441777880E+03  0.12509000000E+03 0.  0.
         25    1    4    4    0    0 -0.82381790889E+02 -0.35800003855E+02  0.18939679659E+03  0.24410459726E+03  0.12509000000E+03 0.  0.
<mgrwt>
<rscale>  2 0.45997639E+03</rscale>
<asrwt>0</asrwt>
<pdfrwt beam="1">  1       21 0.12461436E+00 0.45997639E+03</pdfrwt>
<pdfrwt beam="2">  1       21 0.91796299E-02 0.45997639E+03</pdfrwt>
<totfact> 0.41184717E+04</totfact>
</mgrwt>
</event>
<event>
 7    0  0.4712189E-002  0.4536796E+03  0.7546771E-02  0.1026630E+00
         21   -1    0    0  502  501  0.00000000000E+00  0.00000000000E+00  0.21031143016E+03  0.21031143016E+03  0.00000000000E+00 0.  1.
         21   -1    0    0  501  502 -0.00000000000E+00 -0.00000000000E+00 -0.24466713038E+03  0.24466713038E+03  0.00000000000E+00 0.  1.
      99926    2    1    2    0    0 -0.71054273576E-14  0.00000000000E+00 -0.34355700218E+02  0.45497856053E+03  0.45367959664E+03 0.  0.
      99925    2    3    3    0    0 -0.50388491887E+02  0.80003369637E+02 -0.81623251973E+02  0.29120655799E+03  0.26305772159E+03 0.  0.
         25    1    4    4    0    0 -0.41048502331E+02  0.18456751932E+01 -0.35146875849E+02  0.13627617929E+03  0.12509000000E+03 0.  0.
         25    1    3    3    0    0  0.50388491887E+02 -0.80003369637E+02  0.47267551755E+02  0.16377200254E+03  0.12509000000E+03 0.  0.
         25    1    4    4    0    0 -0.93399895556E+01  0.78157694444E+02 -0.46476376124E+02  0.15493037870E+03  0.12509000000E+03 0.  0.
<mgrwt>
<rscale>  2 0.45367960E+03</rscale>
<asrwt>0</asrwt>
<pdfrwt beam="1">  1       21 0.30928152E-01 0.45367960E+03</pdfrwt>
<pdfrwt beam="2">  1       21 0.35980460E-01 0.45367960E+03</pdfrwt>
<totfact> 0.69274342E+04</totfact>
</mgrwt>
</event>
<event>
 7    0  0.4712189E-002  0.4571372E+03  0.7546771E-02  0.1025615E+00
         21   -1    0    0  502  501  0.00000000000E+00  0.00000000000E+00  0.85271477516E+03  0.85271477516E+03  0.00000000000E+00 0.  1.
         21   -1    0    0  501  502 -0.00000000000E+00 -0.00000000000E+00 -0.61267380330E+02  0.61267380330E+02  0.00000000000E+00 0.  1.
      99926    2    1    2    0    0  0.00000000000E+00 -0.35527136788E-14  0.79144739483E+03  0.91398215549E+03  0.45713718047E+03 0.  0.
      99925    2    3    3    0    0 -0.97431607936E+02 -0.25007612243E+02  0.60919439229E+03  0.67112012896E+03  0.26299452657E+03 0.  0.
         25    1    4    4    0    0 -0.84004531620E+02 -0.33786069496E+02  0.36376855864E+03  0.39518771765E+03  0.12509000000E+03 0.  0.
         25    1    3    3    0    0  0.97431607936E+02  0.25007612243E+02  0.18225300254E+03  0.24286202653E+03  0.12509000000E+03 0.  0.
         25    1    4    4    0    0 -0.13427076316E+02  0.87784572528E+01  0.24542583365E+03  0.27593241131E+03  0.12509000000E+03 0.  0.
<mgrwt>
<rscale>  2 0.45713718E+03</rscale>
<asrwt>0</asrwt>
<pdfrwt beam="1">  1       21 0.12539922E+00 0.45713718E+03</pdfrwt>
<pdfrwt beam="2">  1       21 0.90099094E-02 0.45713718E+03</pdfrwt>
<totfact> 0.41928883E+04</totfact>
</mgrwt>
</event>
<event>
 7    0  0.4712189E-002  0.4576067E+03  0.7546771E-02  0.1025478E+00
         21   -1    0    0  502  501  0.00000000000E+00  0.00000000000E+00  0.42782097454E+02  0.42782097454E+02  0.00000000000E+00 0.  1.
         21   -1    0    0  501  502 -0.00000000000E+00 -0.00000000000E+00 -0.12236652384E+04  0.12236652384E+04  0.00000000000E+00 0.  1.
      99926    2    1    2    0    0  0.00000000000E+00  0.00000000000E+00 -0.11808831410E+04  0.12664473359E+04  0.45760666726E+03 0.  0.
      99925    2    3    3    0    0  0.10467067520E+03 -0.48535742086E+02 -0.72207380586E+03  0.77709553749E+03  0.26301183388E+03 0.  0.
         25    1    3    3    0    0 -0.10467067520E+03  0.48535742086E+02 -0.45880933510E+03  0.48935179838E+03  0.12509000000E+03 0.  0.
         25    1    4    4    0    0  0.34623984104E+02 -0.55508363612E+02 -0.30688591344E+03  0.33779649298E+03  0.12509000000E+03 0.  0.
         25    1    4    4    0    0  0.70046691093E+02  0.69726215256E+01 -0.41518789243E+03  0.43929904450E+03  0.12509000000E+03 0.  0.
<mgrwt>
<rscale>  2 0.45760667E+03</rscale>
<asrwt>0</asrwt>
<pdfrwt beam="1">  1       21 0.62914852E-02 0.45760667E+03</pdfrwt>
<pdfrwt beam="2">  1       21 0.17995076E+00 0.45760667E+03</pdfrwt>
<totfact> 0.29501816E+04</totfact>
</mgrwt>
</event>
<event>
 7    0  0.4712189E-002  0.4455972E+03  0.7546771E-02  0.1029043E+00
         21   -1    0    0  502  501  0.00000000000E+00  0.00000000000E+00  0.16257675749E+03  0.16257675749E+03  0.00000000000E+00 0.  1.
         21   -1    0    0  501  502 -0.00000000000E+00 -0.00000000000E+00 -0.30532794110E+03  0.30532794110E+03  0.00000000000E+00 0.  1.
      99926    2    1    2    0    0 -0.71054273576E-14  0.00000000000E+00 -0.14275118361E+03  0.46790469859E+03  0.44559724701E+03 0.  0.
      99925    2    3    3    0    0  0.46600307409E+02 -0.83963482202E+02 -0.13278259124E+03  0.30989097790E+03  0.26302043011E+03 0.  0.
         25    1    4    4    0    0  0.21819419198E+02 -0.83819063371E+01 -0.33875897452E+02  0.13168685559E+03  0.12509000000E+03 0.  0.
         25    1    3    3    0    0 -0.46600307409E+02  0.83963482202E+02 -0.99685923717E+01  0.15801372070E+03  0.12509000000E+03 0.  0.
         25    1    4    4    0    0  0.24780888211E+02 -0.75581575865E+02 -0.98906693783E+02  0.17820412230E+03  0.12509000000E+03 0.  0.
<mgrwt>
<rscale>  2 0.44559725E+03</rscale>
<asrwt>0</asrwt>
<pdfrwt beam="1">  1       21 0.23908347E-01 0.44559725E+03</pdfrwt>
<pdfrwt beam="2">  1       21 0.44901167E-01 0.44559725E+03</pdfrwt>
<totfact> 0.72879453E+04</totfact>
</mgrwt>
</event>
<event>
 7    0  0.4712189E-002  0.4571278E+03  0.7546771E-02  0.1025618E+00
         21   -1    0    0  502  501  0.00000000000E+00  0.00000000000E+00  0.16095039249E+03  0.16095039249E+03  0.00000000000E+00 0. -1.
         21   -1    0    0  501  502 -0.00000000000E+00 -0.00000000000E+00 -0.32458113615E+03  0.32458113615E+03  0.00000000000E+00 0. -1.
      99926    2    1    2    0    0  0.00000000000E+00  0.00000000000E+00 -0.16363074366E+03  0.48553152864E+03  0.45712782132E+03 0.  0.
      99925    2    3    3    0    0  0.16336466884E+02  0.10514653373E+03 -0.14936080548E+03  0.32068671391E+03  0.26307535909E+03 0.  0.
         25    1    4    4    0    0  0.31435625934E+02  0.51855135741E+02 -0.11296129675E+03  0.17912262934E+03  0.12509000000E+03 0.  0.
         25    1    4    4    0    0 -0.15099159050E+02  0.53291397989E+02 -0.36399508730E+02  0.14156408457E+03  0.12509000000E+03 0.  0.
         25    1    3    3    0    0 -0.16336466884E+02 -0.10514653373E+03 -0.14269938185E+02  0.16484481472E+03  0.12509000000E+03 0.  0.
<mgrwt>
<rscale>  2 0.45712782E+03</rscale>
<asrwt>0</asrwt>
<pdfrwt beam="1">  1       21 0.23669176E-01 0.45712782E+03</pdfrwt>
<pdfrwt beam="2">  1       21 0.47732519E-01 0.45712782E+03</pdfrwt>
<totfact> 0.65191460E+04</totfact>
</mgrwt>
</event>
<event>
 7    0  0.4712189E-002  0.4489867E+03  0.7546771E-02  0.1028025E+00
         21   -1    0    0  502  501  0.00000000000E+00  0.00000000000E+00  0.32245361407E+03  0.32245361407E+03  0.00000000000E+00 0. -1.
         21   -1    0    0  501  502 -0.00000000000E+00 -0.00000000000E+00 -0.15629305603E+03  0.15629305603E+03  0.00000000000E+00 0. -1.
      99926    2    1    2    0    0  0.00000000000E+00  0.00000000000E+00  0.16616055803E+03  0.47874667010E+03  0.44898668475E+03 0.  0.
      99925    2    3    3    0    0 -0.34390574640E+02  0.39215417319E+02  0.41812538006E+01  0.26754685078E+03  0.26238001811E+03 0.  0.
         25    1    4    4    0    0 -0.36372873138E+02  0.43892231040E+01  0.33146164023E+02  0.13449322462E+03  0.12509000000E+03 0.  0.
         25    1    3    3    0    0  0.34390574640E+02 -0.39215417319E+02  0.16197930423E+03  0.21119981932E+03  0.12509000000E+03 0.  0.
         25    1    4    4    0    0  0.19822984982E+01  0.34826194215E+02 -0.28964910222E+02  0.13305362616E+03  0.12509000000E+03 0.  0.
<mgrwt>
<rscale>  2 0.44898668E+03</rscale>
<asrwt>0</asrwt>
<pdfrwt beam="1">  1       21 0.47419649E-01 0.44898668E+03</pdfrwt>
<pdfrwt beam="2">  1       21 0.22984273E-01 0.44898668E+03</pdfrwt>
<totfact> 0.70077185E+04</totfact>
</mgrwt>
</event>
<event>
 7    0  0.4712189E-002  0.4544769E+03  0.7546771E-02  0.1026395E+00
         21   -1    0    0  502  501  0.00000000000E+00  0.00000000000E+00  0.16228415388E+04  0.16228415388E+04  0.00000000000E+00 0. -1.
         21   -1    0    0  501  502 -0.00000000000E+00 -0.00000000000E+00 -0.31819077764E+02  0.31819077764E+02  0.00000000000E+00 0. -1.
      99926    2    1    2    0    0 -0.71054273576E-14  0.44408920985E-15  0.15910224611E+04  0.16546606166E+04  0.45447693505E+03 0.  0.
      99925    2    3    3    0    0 -0.38459887872E+02  0.35551248873E+01  0.61516120582E+03  0.67005688947E+03  0.26279483268E+03 0.  0.
         25    1    4    4    0    0  0.14065683593E+02  0.52858799598E+01  0.23901814510E+03  0.27019061007E+03  0.12509000000E+03 0.  0.
         25    1    3    3    0    0  0.38459887872E+02 -0.35551248873E+01  0.97586125524E+03  0.98460372713E+03  0.12509000000E+03 0.  0.
         25    1    4    4    0    0 -0.52525571465E+02 -0.17307550725E+01  0.37614306072E+03  0.39986627940E+03  0.12509000000E+03 0.  0.
<mgrwt>
<rscale>  2 0.45447694E+03</rscale>
<asrwt>0</asrwt>
<pdfrwt beam="1">  1       21 0.23865311E+00 0.45447694E+03</pdfrwt>
<pdfrwt beam="2">  1       21 0.46792772E-02 0.45447694E+03</pdfrwt>
<totfact> 0.20304649E+04</totfact>
</mgrwt>
</event>
<event>
 6    0  0.4712189E-002  0.4241583E+03  0.7546771E-02  0.1035721E+00
         21   -1    0    0  502  501  0.00000000000E+00  0.00000000000E+00  0.24063850578E+03  0.24063850578E+03  0.00000000000E+00 0. -1.
         21   -1    0    0  501  502 -0.00000000000E+00 -0.00000000000E+00 -0.18690923054E+03  0.18690923054E+03  0.00000000000E+00 0. -1.
      99926    2    1    2    0    0  0.00000000000E+00  0.00000000000E+00  0.53729275242E+02  0.42754773631E+03  0.42415826269E+03 0.  0.
         25    1    3    3    0    0  0.36178009217E+02 -0.69729047004E+02  0.16778489868E+02  0.14866073513E+03  0.12509000000E+03 0.  0.
         25    1    3    3    0    0 -0.43500739194E+02  0.55312177576E+01 -0.28261112337E+01  0.13258357246E+03  0.12509000000E+03 0.  0.
         25    1    3    3    0    0  0.73227299770E+01  0.64197829246E+02  0.39776896608E+02  0.14630342873E+03  0.12509000000E+03 0.  0.
<mgrwt>
<rscale>  2 0.42415826E+03</rscale>
<asrwt>0</asrwt>
<pdfrwt beam="1">  1       21 0.35388016E-01 0.42415826E+03</pdfrwt>
<pdfrwt beam="2">  1       21 0.27486651E-01 0.42415826E+03</pdfrwt>
<totfact> 0.91024586E+04</totfact>
</mgrwt>
</event>
<event>
 7    0  0.4712189E-002  0.4544080E+03  0.7546771E-02  0.1026416E+00
         21   -1    0    0  502  501  0.00000000000E+00  0.00000000000E+00  0.11422032805E+03  0.11422032805E+03  0.00000000000E+00 0. -1.
         21   -1    0    0  501  502 -0.00000000000E+00 -0.00000000000E+00 -0.45194802939E+03  0.45194802939E+03  0.00000000000E+00 0. -1.
      99926    2    1    2    0    0  0.00000000000E+00  0.00000000000E+00 -0.33772770134E+03  0.56616835745E+03  0.45440797607E+03 0.  0.
      99925    2    3    3    0    0 -0.22306016015E+02  0.50024232132E+02 -0.33531605022E+03  0.42959124988E+03  0.26289124421E+03 0.  0.
         25    1    3    3    0    0  0.22306016015E+02 -0.50024232132E+02 -0.24116511190E+01  0.13657710757E+03  0.12509000000E+03 0.  0.
         25    1    4    4    0    0 -0.12201648025E+02  0.62261318395E+02 -0.14913195709E+03  0.20472713721E+03  0.12509000000E+03 0.  0.
         25    1    4    4    0    0 -0.10104367990E+02 -0.12237086263E+02 -0.18618409313E+03  0.22486411267E+03  0.12509000000E+03 0.  0.
<mgrwt>
<rscale>  2 0.45440798E+03</rscale>
<asrwt>0</asrwt>
<pdfrwt beam="1">  1       21 0.16797107E-01 0.45440798E+03</pdfrwt>
<pdfrwt beam="2">  1       21 0.66462946E-01 0.45440798E+03</pdfrwt>
<totfact> 0.61096124E+04</totfact>
</mgrwt>
</event>
<event>
 7    0  0.4712189E-002  0.4563379E+03  0.7546771E-02  0.1025849E+00
         21   -1    0    0  502  501  0.00000000000E+00  0.00000000000E+00  0.80119830413E+03  0.80119830413E+03  0.00000000000E+00 0. -1.
         21   -1    0    0  501  502 -0.00000000000E+00 -0.00000000000E+00 -0.64979016855E+02  0.64979016855E+02  0.00000000000E+00 0. -1.
      99926    2    1    2    0    0  0.00000000000E+00  0.00000000000E+00  0.73621928728E+03  0.86617732098E+03  0.45633793666E+03 0.  0.
      99925    2    3    3    0    0 -0.59650067490E+02 -0.90880915977E+02  0.39494668793E+03  0.48679365422E+03  0.26299753620E+03 0.  0.
         25    1    3    3    0    0  0.59650067490E+02  0.90880915977E+02  0.34127259935E+03  0.37938366676E+03  0.12509000000E+03 0.  0.
         25    1    4    4    0    0 -0.57398503399E+02 -0.27462635499E+02  0.23803946075E+03  0.27633146313E+03  0.12509000000E+03 0.  0.
         25    1    4    4    0    0 -0.22515640916E+01 -0.63418280478E+02  0.15690722718E+03  0.21046219110E+03  0.12509000000E+03 0.  0.
<mgrwt>
<rscale>  2 0.45633794E+03</rscale>
<asrwt>0</asrwt>
<pdfrwt beam="1">  1       21 0.11782327E+00 0.45633794E+03</pdfrwt>
<pdfrwt beam="2">  1       21 0.95557382E-02 0.45633794E+03</pdfrwt>
<totfact> 0.44257816E+04</totfact>
</mgrwt>
</event>
<event>
 7    0  0.4712189E-002  0.4543488E+03  0.7546771E-02  0.1026433E+00
         21   -1    0    0  502  501  0.00000000000E+00  0.00000000000E+00  0.22162357553E+03  0.22162357553E+03  0.00000000000E+00 0. -1.
         21   -1    0    0  501  502 -0.00000000000E+00 -0.00000000000E+00 -0.23286429270E+03  0.23286429270E+03  0.00000000000E+00 0. -1.
      99926    2    1    2    0    0  0.00000000000E+00  0.00000000000E+00 -0.11240717171E+02  0.45448786823E+03  0.45434884026E+03 0.  0.
      99925    2    3    3    0    0  0.40083735868E+02 -0.23247936205E+02  0.95567449848E+02  0.28359999546E+03  0.26296130425E+03 0.  0.
         25    1    4    4    0    0 -0.61925584601E+01 -0.35450461301E+02  0.26217384138E+02  0.13277779301E+03  0.12509000000E+03 0.  0.
         25    1    4    4    0    0  0.46276294328E+02  0.12202525096E+02  0.69350065709E+02  0.15082220244E+03  0.12509000000E+03 0.  0.
         25    1    3    3    0    0 -0.40083735868E+02  0.23247936205E+02 -0.10680816702E+03  0.17088787277E+03  0.12509000000E+03 0.  0.
<mgrwt>
<rscale>  2 0.45434884E+03</rscale>
<asrwt>0</asrwt>
<pdfrwt beam="1">  1       21 0.32591703E-01 0.45434884E+03</pdfrwt>
<pdfrwt beam="2">  1       21 0.34244749E-01 0.45434884E+03</pdfrwt>
<totfact> 0.68940824E+04</totfact>
</mgrwt>
</event>
<event>
 7    0  0.4712189E-002  0.4250517E+03  0.7546771E-02  0.1035435E+00
         21   -1    0    0  502  501  0.00000000000E+00  0.00000000000E+00  0.20868972046E+02  0.20868972046E+02  0.00000000000E+00 0. -1.
         21   -1    0    0  501  502 -0.00000000000E+00 -0.00000000000E+00 -0.21643247307E+04  0.21643247307E+04  0.00000000000E+00 0. -1.
      99926    2    1    2    0    0 -0.71054273576E-14 -0.35527136788E-14 -0.21434557587E+04  0.21851937028E+04  0.42505167829E+03 0.  0.
      99925    2    3    3    0    0  0.63952305303E+02  0.27793055729E+02 -0.16108753457E+04  0.16336941510E+04  0.26301111778E+03 0.  0.
         25    1    4    4    0    0  0.39225001972E+02  0.29399390386E+02 -0.10466535921E+04  0.10552412875E+04  0.12509000000E+03 0.  0.
         25    1    3    3    0    0 -0.63952305303E+02 -0.27793055729E+02 -0.53258041296E+03  0.55149955183E+03  0.12509000000E+03 0.  0.
         25    1    4    4    0    0  0.24727303331E+02 -0.16063346565E+01 -0.56422175361E+03  0.57845286341E+03  0.12509000000E+03 0.  0.
<mgrwt>
<rscale>  2 0.42505168E+03</rscale>
<asrwt>0</asrwt>
<pdfrwt beam="1">  1       21 0.30689663E-02 0.42505168E+03</pdfrwt>
<pdfrwt beam="2">  1       21 0.31828307E+00 0.42505168E+03</pdfrwt>
<totfact> 0.13872315E+04</totfact>
</mgrwt>
</event>
<event>
 7    0  0.4712189E-002  0.4582450E+03  0.7546771E-02  0.1025291E+00
         21   -1    0    0  502  501  0.00000000000E+00  0.00000000000E+00  0.71742659258E+03  0.71742659258E+03  0.00000000000E+00 0. -1.
         21   -1    0    0  501  502 -0.00000000000E+00 -0.00000000000E+00 -0.73174202919E+02  0.73174202919E+02  0.00000000000E+00 0. -1.
      99926    2    1    2    0    0  0.00000000000E+00  0.00000000000E+00  0.64425238966E+03  0.79060079550E+03  0.45824499589E+03 0.  0.
      99925    2    3    3    0    0 -0.32944370961E+02 -0.10650727537E+03  0.46046550635E+03  0.54189563298E+03  0.26304612375E+03 0.  0.
         25    1    4    4    0    0  0.93773751810E+00 -0.71320614909E+02  0.17657725934E+03  0.22784763786E+03  0.12509000000E+03 0.  0.
         25    1    4    4    0    0 -0.33882108480E+02 -0.35186660464E+02  0.28388824701E+03  0.31404799512E+03  0.12509000000E+03 0.  0.
         25    1    3    3    0    0  0.32944370961E+02  0.10650727537E+03  0.18378688331E+03  0.24870516252E+03  0.12509000000E+03 0.  0.
<mgrwt>
<rscale>  2 0.45824500E+03</rscale>
<asrwt>0</asrwt>
<pdfrwt beam="1">  1       21 0.10550391E+00 0.45824500E+03</pdfrwt>
<pdfrwt beam="2">  1       21 0.10760913E-01 0.45824500E+03</pdfrwt>
<totfact> 0.47013985E+04</totfact>
</mgrwt>
</event>
<event>
 7    0  0.4712189E-002  0.4164115E+03  0.7546771E-02  0.1038241E+00
         21   -1    0    0  502  501  0.00000000000E+00  0.00000000000E+00  0.24887266751E+03  0.24887266751E+03  0.00000000000E+00 0.  1.
         21   -1    0    0  501  502 -0.00000000000E+00 -0.00000000000E+00 -0.17418400271E+03  0.17418400271E+03  0.00000000000E+00 0.  1.
      99926    2    1    2    0    0  0.17763568394E-14 -0.71054273576E-14  0.74688664798E+02  0.42305667022E+03  0.41641151469E+03 0.  0.
      99925    2    3    3    0    0 -0.12507470527E+02  0.45903155807E+02  0.10247161867E+03  0.28637112907E+03  0.26314341033E+03 0.  0.
         25    1    3    3    0    0  0.12507470527E+02 -0.45903155807E+02 -0.27782953877E+02  0.13668554115E+03  0.12509000000E+03 0.  0.
         25    1    4    4    0    0 -0.44659214861E+01  0.72483878197E+01  0.90547620292E+02  0.15465724432E+03  0.12509000000E+03 0.  0.
         25    1    4    4    0    0 -0.80415490408E+01  0.38654767987E+02  0.11923998383E+02  0.13171388475E+03  0.12509000000E+03 0.  0.
<mgrwt>
<rscale>  2 0.41641151E+03</rscale>
<asrwt>0</asrwt>
<pdfrwt beam="1">  1       21 0.36598922E-01 0.41641151E+03</pdfrwt>
<pdfrwt beam="2">  1       21 0.25615294E-01 0.41641151E+03</pdfrwt>
<totfact> 0.97742518E+04</totfact>
</mgrwt>
</event>
<event>
 7    0  0.4712189E-002  0.4691334E+03  0.7546771E-02  0.1022165E+00
         21   -1    0    0  502  501  0.00000000000E+00  0.00000000000E+00  0.21790484568E+03  0.21790484568E+03  0.00000000000E+00 0.  1.
         21   -1    0    0  501  502 -0.00000000000E+00 -0.00000000000E+00 -0.25250262427E+03  0.25250262427E+03  0.00000000000E+00 0.  1.
      99926    2    1    2    0    0 -0.14210854715E-13  0.00000000000E+00 -0.34597778587E+02  0.47040746995E+03  0.46913343678E+03 0.  0.
      99925    2    3    3    0    0 -0.64549614473E+02  0.60336470383E+02  0.68583609624E+02  0.28574277555E+03  0.26294120993E+03 0.  0.
         25    1    4    4    0    0 -0.13748916391E+02  0.52104155497E+02  0.50369439221E+01  0.13629656865E+03  0.12509000000E+03 0.  0.
         25    1    4    4    0    0 -0.50800698082E+02  0.82323148860E+01  0.63546665702E+02  0.14944620690E+03  0.12509000000E+03 0.  0.
         25    1    3    3    0    0  0.64549614473E+02 -0.60336470383E+02 -0.10318138821E+03  0.18466469441E+03  0.12509000000E+03 0.  0.
<mgrwt>
<rscale>  2 0.46913344E+03</rscale>
<asrwt>0</asrwt>
<pdfrwt beam="1">  1       21 0.32044830E-01 0.46913344E+03</pdfrwt>
<pdfrwt beam="2">  1       21 0.37132739E-01 0.46913344E+03</pdfrwt>
<totfact> 0.60335192E+04</totfact>
</mgrwt>
</event>
<event>
 7    0  0.4712189E-002  0.4582246E+03  0.7546771E-02  0.1025297E+00
         21   -1    0    0  502  501  0.00000000000E+00  0.00000000000E+00  0.26477636437E+03  0.26477636437E+03  0.00000000000E+00 0.  1.
         21   -1    0    0  501  502 -0.00000000000E+00 -0.00000000000E+00 -0.19825201941E+03  0.19825201941E+03  0.00000000000E+00 0.  1.
      99926    2    1    2    0    0  0.14210854715E-13  0.71054273576E-14  0.66524344954E+02  0.46302838378E+03  0.45822461273E+03 0.  0.
      99925    2    3    3    0    0 -0.10181849472E+03 -0.46504189663E+02  0.72995038756E+02  0.29504319544E+03  0.26304479841E+03 0.  0.
         25    1    4    4    0    0 -0.40786212246E+02 -0.35491439188E+02  0.74715639885E+02  0.15541265170E+03  0.12509000000E+03 0.  0.
         25    1    4    4    0    0 -0.61032282473E+02 -0.11012750475E+02 -0.17206011289E+01  0.13963054374E+03  0.12509000000E+03 0.  0.
         25    1    3    3    0    0  0.10181849472E+03  0.46504189663E+02 -0.64706938021E+01  0.16798518834E+03  0.12509000000E+03 0.  0.
<mgrwt>
<rscale>  2 0.45822461E+03</rscale>
<asrwt>0</asrwt>
<pdfrwt beam="1">  1       21 0.38937700E-01 0.45822461E+03</pdfrwt>
<pdfrwt beam="2">  1       21 0.29154709E-01 0.45822461E+03</pdfrwt>
<totfact> 0.66240577E+04</totfact>
</mgrwt>
</event>
<event>
 7    0  0.4712189E-002  0.4521163E+03  0.7546771E-02  0.1027093E+00
         21   -1    0    0  502  501  0.00000000000E+00  0.00000000000E+00  0.25156903787E+03  0.25156903787E+03  0.00000000000E+00 0. -1.
         21   -1    0    0  501  502 -0.00000000000E+00 -0.00000000000E+00 -0.20313420555E+03  0.20313420555E+03  0.00000000000E+00 0. -1.
      99926    2    1    2    0    0  0.00000000000E+00  0.00000000000E+00  0.48434832319E+02  0.45470324341E+03  0.45211625340E+03 0.  0.
      99925    2    3    3    0    0  0.95280290098E+02 -0.46581027714E+02  0.61440288541E+02  0.29018948771E+03  0.26303403563E+03 0.  0.
         25    1    4    4    0    0  0.79126462843E+02 -0.36536907132E+02  0.74967220173E+01  0.15264223415E+03  0.12509000000E+03 0.  0.
         25    1    4    4    0    0  0.16153827255E+02 -0.10044120582E+02  0.53943566523E+02  0.13754725356E+03  0.12509000000E+03 0.  0.
         25    1    3    3    0    0 -0.95280290098E+02  0.46581027714E+02 -0.13005456222E+02  0.16451375570E+03  0.12509000000E+03 0.  0.
<mgrwt>
<rscale>  2 0.45211625E+03</rscale>
<asrwt>0</asrwt>
<pdfrwt beam="1">  1       21 0.36995447E-01 0.45211625E+03</pdfrwt>
<pdfrwt beam="2">  1       21 0.29872677E-01 0.45211625E+03</pdfrwt>
<totfact> 0.70168080E+04</totfact>
</mgrwt>
</event>
<event>
 7    0  0.4712189E-002  0.4548752E+03  0.7546771E-02  0.1026278E+00
         21   -1    0    0  502  501  0.00000000000E+00  0.00000000000E+00  0.14516807897E+03  0.14516807897E+03  0.00000000000E+00 0. -1.
         21   -1    0    0  501  502 -0.00000000000E+00 -0.00000000000E+00 -0.35633086848E+03  0.35633086848E+03  0.00000000000E+00 0. -1.
      99926    2    1    2    0    0 -0.14210854715E-13  0.00000000000E+00 -0.21116278950E+03  0.50149894745E+03  0.45487522534E+03 0.  0.
      99925    2    3    3    0    0 -0.82673487984E+02 -0.35113211490E+02 -0.57040137475E+02  0.28362480212E+03  0.26290988543E+03 0.  0.
         25    1    4    4    0    0 -0.70465496239E+02 -0.38389682908E+01 -0.55856546745E+02  0.15410251702E+03  0.12509000000E+03 0.  0.
         25    1    3    3    0    0  0.82673487984E+02  0.35113211490E+02 -0.15412265203E+03  0.21787414533E+03  0.12509000000E+03 0.  0.
         25    1    4    4    0    0 -0.12207991745E+02 -0.31274243199E+02 -0.11835907303E+01  0.12952228510E+03  0.12509000000E+03 0.  0.
<mgrwt>
<rscale>  2 0.45487523E+03</rscale>
<asrwt>0</asrwt>
<pdfrwt beam="1">  1       21 0.21348247E-01 0.45487523E+03</pdfrwt>
<pdfrwt beam="2">  1       21 0.52401597E-01 0.45487523E+03</pdfrwt>
<totfact> 0.65230067E+04</totfact>
</mgrwt>
</event>
<event>
 7    0  0.4712189E-002  0.4549007E+03  0.7546771E-02  0.1026271E+00
         21   -1    0    0  502  501  0.00000000000E+00  0.00000000000E+00  0.94563130928E+02  0.94563130928E+02  0.00000000000E+00 0. -1.
         21   -1    0    0  501  502 -0.00000000000E+00 -0.00000000000E+00 -0.54708056192E+03  0.54708056192E+03  0.00000000000E+00 0. -1.
      99926    2    1    2    0    0  0.00000000000E+00 -0.71054273576E-14 -0.45251743100E+03  0.64164369285E+03  0.45490065204E+03 0.  0.
      99925    2    3    3    0    0 -0.33909329064E+02 -0.63758157151E+02 -0.40750027322E+03  0.49035259002E+03  0.26300997067E+03 0.  0.
         25    1    3    3    0    0  0.33909329064E+02  0.63758157151E+02 -0.45017157781E+02  0.15129110283E+03  0.12509000000E+03 0.  0.
         25    1    4    4    0    0 -0.49167698515E+01 -0.21254198079E+02 -0.13043539571E+03  0.18203520571E+03  0.12509000000E+03 0.  0.
         25    1    4    4    0    0 -0.28992559213E+02 -0.42503959071E+02 -0.27706487750E+03  0.30831738432E+03  0.12509000000E+03 0.  0.
<mgrwt>
<rscale>  2 0.45490065E+03</rscale>
<asrwt>0</asrwt>
<pdfrwt beam="1">  1       21 0.13906343E-01 0.45490065E+03</pdfrwt>
<pdfrwt beam="2">  1       21 0.80453025E-01 0.45490065E+03</pdfrwt>
<totfact> 0.56229548E+04</totfact>
</mgrwt>
</event>
<event>
 7    0  0.4712189E-002  0.4573203E+03  0.7546771E-02  0.1025561E+00
         21   -1    0    0  502  501  0.00000000000E+00  0.00000000000E+00  0.50884479173E+02  0.50884479173E+02  0.00000000000E+00 0.  1.
         21   -1    0    0  501  502 -0.00000000000E+00 -0.00000000000E+00 -0.10275328793E+04  0.10275328793E+04  0.00000000000E+00 0.  1.
      99926    2    1    2    0    0  0.00000000000E+00  0.00000000000E+00 -0.97664840016E+03  0.10784173585E+04  0.45732034898E+03 0.  0.
      99925    2    3    3    0    0  0.58095513227E+02  0.86729055764E+02 -0.49745456624E+03  0.57228372364E+03  0.26296501118E+03 0.  0.
         25    1    3    3    0    0 -0.58095513227E+02 -0.86729055764E+02 -0.47919383393E+03  0.50613363487E+03  0.12509000000E+03 0.  0.
         25    1    4    4    0    0  0.51439816837E+02  0.61826218953E+02 -0.20597531619E+03  0.25405093010E+03  0.12509000000E+03 0.  0.
         25    1    4    4    0    0  0.66556963909E+01  0.24902836811E+02 -0.29147925005E+03  0.31823279354E+03  0.12509000000E+03 0.  0.
<mgrwt>
<rscale>  2 0.45732035E+03</rscale>
<asrwt>0</asrwt>
<pdfrwt beam="1">  1       21 0.74830119E-02 0.45732035E+03</pdfrwt>
<pdfrwt beam="2">  1       21 0.15110777E+00 0.45732035E+03</pdfrwt>
<totfact> 0.35602652E+04</totfact>
</mgrwt>
</event>
<event>
 7    0  0.4712189E-002  0.4447396E+03  0.7546771E-02  0.1029302E+00
         21   -1    0    0  502  501  0.00000000000E+00  0.00000000000E+00  0.74845840709E+02  0.74845840709E+02  0.00000000000E+00 0. -1.
         21   -1    0    0  501  502 -0.00000000000E+00 -0.00000000000E+00 -0.66066904041E+03  0.66066904041E+03  0.00000000000E+00 0. -1.
      99926    2    1    2    0    0  0.35527136788E-14  0.00000000000E+00 -0.58582319970E+03  0.73551488111E+03  0.44473960813E+03 0.  0.
      99925    2    3    3    0    0 -0.31559393211E+02  0.80269154674E+02 -0.27843503269E+03  0.39262404454E+03  0.26303695639E+03 0.  0.
         25    1    3    3    0    0  0.31559393211E+02 -0.80269154674E+02 -0.30738816701E+03  0.34289083658E+03  0.12509000000E+03 0.  0.
         25    1    4    4    0    0 -0.52603100866E+02  0.23101722312E+02 -0.13561100293E+03  0.19323205741E+03  0.12509000000E+03 0.  0.
         25    1    4    4    0    0  0.21043707655E+02  0.57167432362E+02 -0.14282402976E+03  0.19939198713E+03  0.12509000000E+03 0.  0.
<mgrwt>
<rscale>  2 0.44473961E+03</rscale>
<asrwt>0</asrwt>
<pdfrwt beam="1">  1       21 0.11006741E-01 0.44473961E+03</pdfrwt>
<pdfrwt beam="2">  1       21 0.97157211E-01 0.44473961E+03</pdfrwt>
<totfact> 0.55348466E+04</totfact>
</mgrwt>
</event>
<event>
 7    0  0.4712189E-002  0.4308784E+03  0.7546771E-02  0.1033583E+00
         21   -1    0    0  502  501  0.00000000000E+00  0.00000000000E+00  0.13095738633E+03  0.13095738633E+03  0.00000000000E+00 0.  1.
         21   -1    0    0  501  502 -0.00000000000E+00 -0.00000000000E+00 -0.35442094132E+03  0.35442094132E+03  0.00000000000E+00 0.  1.
      99926    2    1    2    0    0  0.00000000000E+00  0.00000000000E+00 -0.22346355498E+03  0.48537832765E+03  0.43087835934E+03 0.  0.
      99925    2    3    3    0    0 -0.42805799185E+02  0.52634056738E+02 -0.20814389361E+03  0.34225292635E+03  0.26307889459E+03 0.  0.
         25    1    4    4    0    0 -0.13613539620E+02  0.20594078568E+01 -0.14017891112E+03  0.18838047894E+03  0.12509000000E+03 0.  0.
         25    1    3    3    0    0  0.42805799185E+02 -0.52634056738E+02 -0.15319661374E+02  0.14312540130E+03  0.12509000000E+03 0.  0.
         25    1    4    4    0    0 -0.29192259565E+02  0.50574648881E+02 -0.67964982486E+02  0.15387244741E+03  0.12509000000E+03 0.  0.
<mgrwt>
<rscale>  2 0.43087836E+03</rscale>
<asrwt>0</asrwt>
<pdfrwt beam="1">  1       21 0.19258440E-01 0.43087836E+03</pdfrwt>
<pdfrwt beam="2">  1       21 0.52120725E-01 0.43087836E+03</pdfrwt>
<totfact> 0.80688583E+04</totfact>
</mgrwt>
</event>
<event>
 7    0  0.4712189E-002  0.4565141E+03  0.7546771E-02  0.1025797E+00
         21   -1    0    0  502  501  0.00000000000E+00  0.00000000000E+00  0.11452074847E+04  0.11452074847E+04  0.00000000000E+00 0.  1.
         21   -1    0    0  501  502 -0.00000000000E+00 -0.00000000000E+00 -0.45495055168E+02  0.45495055168E+02  0.00000000000E+00 0.  1.
      99926    2    1    2    0    0  0.00000000000E+00  0.00000000000E+00  0.10997124296E+04  0.11907025399E+04  0.45651408608E+03 0.  0.
      99925    2    3    3    0    0 -0.33321914154E+02  0.26165177237E+02  0.41330803766E+03  0.49170793063E+03  0.26297944518E+03 0.  0.
         25    1    4    4    0    0 -0.44467725837E+02 -0.64377527378E+01  0.24994719254E+03  0.28308996885E+03  0.12509000000E+03 0.  0.
         25    1    4    4    0    0  0.11145811684E+02  0.32602929975E+02  0.16336084511E+03  0.20861796178E+03  0.12509000000E+03 0.  0.
         25    1    3    3    0    0  0.33321914154E+02 -0.26165177237E+02  0.68640439192E+03  0.69899460928E+03  0.12509000000E+03 0.  0.
<mgrwt>
<rscale>  2 0.45651409E+03</rscale>
<asrwt>0</asrwt>
<pdfrwt beam="1">  1       21 0.16841285E+00 0.45651409E+03</pdfrwt>
<pdfrwt beam="2">  1       21 0.66904501E-02 0.45651409E+03</pdfrwt>
<totfact> 0.32072034E+04</totfact>
</mgrwt>
</event>
<event>
 7    0  0.4712189E-002  0.4505193E+03  0.7546771E-02  0.1027567E+00
         21   -1    0    0  502  501  0.00000000000E+00  0.00000000000E+00  0.10883559031E+03  0.10883559031E+03  0.00000000000E+00 0.  1.
         21   -1    0    0  501  502 -0.00000000000E+00 -0.00000000000E+00 -0.46622541240E+03  0.46622541240E+03  0.00000000000E+00 0.  1.
      99926    2    1    2    0    0  0.00000000000E+00  0.00000000000E+00 -0.35738982210E+03  0.57506100271E+03  0.45051933576E+03 0.  0.
      99925    2    3    3    0    0  0.28232154611E+02  0.80797680758E+02 -0.14254266810E+03  0.31213111196E+03  0.26416301606E+03 0.  0.
         25    1    4    4    0    0 -0.11451213807E+01  0.57207143102E+02 -0.32554543845E+02  0.14135513768E+03  0.12509000000E+03 0.  0.
         25    1    4    4    0    0  0.29377275992E+02  0.23590537656E+02 -0.10998812426E+03  0.17077597428E+03  0.12509000000E+03 0.  0.
         25    1    3    3    0    0 -0.28232154611E+02 -0.80797680758E+02 -0.21484715399E+03  0.26292989075E+03  0.12509000000E+03 0.  0.
<mgrwt>
<rscale>  2 0.45051934E+03</rscale>
<asrwt>0</asrwt>
<pdfrwt beam="1">  1       21 0.16005234E-01 0.45051934E+03</pdfrwt>
<pdfrwt beam="2">  1       21 0.68562560E-01 0.45051934E+03</pdfrwt>
<totfact> 0.62422427E+04</totfact>
</mgrwt>
</event>
<event>
 7    0  0.4712189E-002  0.4525860E+03  0.7546771E-02  0.1026954E+00
         21   -1    0    0  502  501  0.00000000000E+00  0.00000000000E+00  0.19478553792E+03  0.19478553792E+03  0.00000000000E+00 0.  1.
         21   -1    0    0  501  502 -0.00000000000E+00 -0.00000000000E+00 -0.26289689740E+03  0.26289689740E+03  0.00000000000E+00 0.  1.
      99926    2    1    2    0    0  0.71054273576E-14 -0.14210854715E-13 -0.68111359481E+02  0.45768243532E+03  0.45258596345E+03 0.  0.
      99925    2    3    3    0    0 -0.38425250946E+02  0.10391920591E+03 -0.37915838539E+02  0.28787378168E+03  0.26297909061E+03 0.  0.
         25    1    4    4    0    0 -0.56207322821E+02  0.35415094004E+02 -0.17944026613E+02  0.14276900298E+03  0.12509000000E+03 0.  0.
         25    1    3    3    0    0  0.38425250946E+02 -0.10391920591E+03 -0.30195520942E+02  0.16980865365E+03  0.12509000000E+03 0.  0.
         25    1    4    4    0    0  0.17782071875E+02  0.68504111909E+02 -0.19971811926E+02  0.14510477870E+03  0.12509000000E+03 0.  0.
<mgrwt>
<rscale>  2 0.45258596E+03</rscale>
<asrwt>0</asrwt>
<pdfrwt beam="1">  1       21 0.28644932E-01 0.45258596E+03</pdfrwt>
<pdfrwt beam="2">  1       21 0.38661308E-01 0.45258596E+03</pdfrwt>
<totfact> 0.69681611E+04</totfact>
</mgrwt>
</event>
<event>
 7    0  0.4712189E-002  0.4403185E+03  0.7546771E-02  0.1030649E+00
         21   -1    0    0  502  501  0.00000000000E+00  0.00000000000E+00  0.13103533999E+03  0.13103533999E+03  0.00000000000E+00 0. -1.
         21   -1    0    0  501  502 -0.00000000000E+00 -0.00000000000E+00 -0.36990100149E+03  0.36990100149E+03  0.00000000000E+00 0. -1.
      99926    2    1    2    0    0  0.00000000000E+00 -0.35527136788E-14 -0.23886566150E+03  0.50093634148E+03  0.44031853694E+03 0.  0.
      99925    2    3    3    0    0  0.75716220788E+02  0.27709765028E+02 -0.87366960660E+02  0.28856840222E+03  0.26294098155E+03 0.  0.
         25    1    3    3    0    0 -0.75716220788E+02 -0.27709765028E+02 -0.15149870084E+03  0.21236793926E+03  0.12509000000E+03 0.  0.
         25    1    4    4    0    0  0.59285778958E+02  0.43269049146E+02 -0.25746343190E+02  0.14730036147E+03  0.12509000000E+03 0.  0.
         25    1    4    4    0    0  0.16430441830E+02 -0.15559284118E+02 -0.61620617470E+02  0.14126804075E+03  0.12509000000E+03 0.  0.
<mgrwt>
<rscale>  2 0.44031854E+03</rscale>
<asrwt>0</asrwt>
<pdfrwt beam="1">  1       21 0.19269903E-01 0.44031854E+03</pdfrwt>
<pdfrwt beam="2">  1       21 0.54397205E-01 0.44031854E+03</pdfrwt>
<totfact> 0.73390579E+04</totfact>
</mgrwt>
</event>
<event>
 7    0  0.4712189E-002  0.4545753E+03  0.7546771E-02  0.1026366E+00
         21   -1    0    0  502  501  0.00000000000E+00  0.00000000000E+00  0.72188050268E+03  0.72188050268E+03  0.00000000000E+00 0.  1.
         21   -1    0    0  501  502 -0.00000000000E+00 -0.00000000000E+00 -0.71562642045E+02  0.71562642045E+02  0.00000000000E+00 0.  1.
      99926    2    1    2    0    0  0.00000000000E+00 -0.35527136788E-14  0.65031786064E+03  0.79344314473E+03  0.45457530075E+03 0.  0.
      99925    2    3    3    0    0  0.11012650010E+03  0.18675879707E+02  0.38142691964E+03  0.47654177087E+03  0.26292380996E+03 0.  0.
         25    1    4    4    0    0  0.81192477971E+02  0.29247924750E+02  0.16224197809E+03  0.22230075829E+03  0.12509000000E+03 0.  0.
         25    1    4    4    0    0  0.28934022128E+02 -0.10572045043E+02  0.21918494155E+03  0.25424101258E+03  0.12509000000E+03 0.  0.
         25    1    3    3    0    0 -0.11012650010E+03 -0.18675879707E+02  0.26889094100E+03  0.31690137386E+03  0.12509000000E+03 0.  0.
<mgrwt>
<rscale>  2 0.45457530E+03</rscale>
<asrwt>0</asrwt>
<pdfrwt beam="1">  1       21 0.10615889E+00 0.45457530E+03</pdfrwt>
<pdfrwt beam="2">  1       21 0.10523918E-01 0.45457530E+03</pdfrwt>
<totfact> 0.48244206E+04</totfact>
</mgrwt>
</event>
<event>
 7    0  0.4712189E-002  0.4529604E+03  0.7546771E-02  0.1026843E+00
         21   -1    0    0  502  501  0.00000000000E+00  0.00000000000E+00  0.80469716656E+03  0.80469716656E+03  0.00000000000E+00 0. -1.
         21   -1    0    0  501  502 -0.00000000000E+00 -0.00000000000E+00 -0.63742331391E+02  0.63742331391E+02  0.00000000000E+00 0. -1.
      99926    2    1    2    0    0  0.71054273576E-14  0.00000000000E+00  0.74095483517E+03  0.86843949795E+03  0.45296036675E+03 0.  0.
      99925    2    3    3    0    0 -0.63607987293E+02  0.14860306345E+02  0.63966453177E+03  0.69473273811E+03  0.26308945141E+03 0.  0.
         25    1    3    3    0    0  0.63607987293E+02 -0.14860306345E+02  0.10129030340E+03  0.17370675984E+03  0.12509000000E+03 0.  0.
         25    1    4    4    0    0 -0.11737456242E+02 -0.20121774361E+02  0.36434809615E+03  0.38592706169E+03  0.12509000000E+03 0.  0.
         25    1    4    4    0    0 -0.51870531051E+02  0.34982080706E+02  0.27531643563E+03  0.30880567642E+03  0.12509000000E+03 0.  0.
<mgrwt>
<rscale>  2 0.45296037E+03</rscale>
<asrwt>0</asrwt>
<pdfrwt beam="1">  1       21 0.11833781E+00 0.45296037E+03</pdfrwt>
<pdfrwt beam="2">  1       21 0.93738727E-02 0.45296037E+03</pdfrwt>
<totfact> 0.45346309E+04</totfact>
</mgrwt>
</event>
<event>
 7    0  0.4712189E-002  0.4584327E+03  0.7546771E-02  0.1025237E+00
         21   -1    0    0  502  501  0.00000000000E+00  0.00000000000E+00  0.37142150543E+02  0.37142150543E+02  0.00000000000E+00 0.  1.
         21   -1    0    0  501  502 -0.00000000000E+00 -0.00000000000E+00 -0.14145692481E+04  0.14145692481E+04  0.00000000000E+00 0.  1.
      99926    2    1    2    0    0 -0.35527136788E-14  0.00000000000E+00 -0.13774270976E+04  0.14517113987E+04  0.45843273866E+03 0.  0.
      99925    2    3    3    0    0 -0.24466853987E+02 -0.52347537873E+02 -0.11839174425E+04  0.12141563811E+04  0.26301390731E+03 0.  0.
         25    1    3    3    0    0  0.24466853987E+02  0.52347537873E+02 -0.19350965511E+03  0.23755501760E+03  0.12509000000E+03 0.  0.
         25    1    4    4    0    0  0.16271601464E+02  0.35802310383E+01 -0.57472151222E+03  0.58841304182E+03  0.12509000000E+03 0.  0.
         25    1    4    4    0    0 -0.40738455451E+02 -0.55927768911E+02 -0.60919593028E+03  0.62574333928E+03  0.12509000000E+03 0.  0.
<mgrwt>
<rscale>  2 0.45843274E+03</rscale>
<asrwt>0</asrwt>
<pdfrwt beam="1">  1       21 0.54620808E-02 0.45843274E+03</pdfrwt>
<pdfrwt beam="2">  1       21 0.20802490E+00 0.45843274E+03</pdfrwt>
<totfact> 0.24330535E+04</totfact>
</mgrwt>
</event>
<event>
 7    0  0.4712189E-002  0.4524491E+03  0.7546771E-02  0.1026994E+00
         21   -1    0    0  502  501  0.00000000000E+00  0.00000000000E+00  0.37952979348E+03  0.37952979348E+03  0.00000000000E+00 0.  1.
         21   -1    0    0  501  502 -0.00000000000E+00 -0.00000000000E+00 -0.13484460993E+03  0.13484460993E+03  0.00000000000E+00 0.  1.
      99926    2    1    2    0    0  0.00000000000E+00 -0.71054273576E-14  0.24468518355E+03  0.51437440340E+03  0.45244909971E+03 0.  0.
      99925    2    3    3    0    0 -0.23104892904E+02  0.61579859333E+02  0.53244640508E+02  0.27641872524E+03  0.26314711621E+03 0.  0.
         25    1    4    4    0    0  0.20164361370E+02  0.35207752624E+02  0.52100199024E+02  0.14145008361E+03  0.12509000000E+03 0.  0.
         25    1    3    3    0    0  0.23104892904E+02 -0.61579859333E+02  0.19144054304E+03  0.23795567816E+03  0.12509000000E+03 0.  0.
         25    1    4    4    0    0 -0.43269254274E+02  0.26372106709E+02  0.11444414843E+01  0.13496864163E+03  0.12509000000E+03 0.  0.
<mgrwt>
<rscale>  2 0.45244910E+03</rscale>
<asrwt>0</asrwt>
<pdfrwt beam="1">  1       21 0.55813205E-01 0.45244910E+03</pdfrwt>
<pdfrwt beam="2">  1       21 0.19830090E-01 0.45244910E+03</pdfrwt>
<totfact> 0.65589749E+04</totfact>
</mgrwt>
</event>
<event>
 7    0  0.4712189E-002  0.4543760E+03  0.7546771E-02  0.1026425E+00
         21   -1    0    0  502  501  0.00000000000E+00  0.00000000000E+00  0.40625337909E+03  0.40625337909E+03  0.00000000000E+00 0. -1.
         21   -1    0    0  501  502 -0.00000000000E+00 -0.00000000000E+00 -0.12704972428E+03  0.12704972428E+03  0.00000000000E+00 0. -1.
      99926    2    1    2    0    0 -0.35527136788E-14  0.00000000000E+00  0.27920365481E+03  0.53330310337E+03  0.45437596680E+03 0.  0.
      99925    2    3    3    0    0 -0.19088868995E+02  0.86329158017E+02  0.25753264865E+03  0.37859612534E+03  0.26304914475E+03 0.  0.
         25    1    4    4    0    0  0.24312214273E+02  0.56805257018E+02  0.15504392872E+03  0.20857624246E+03  0.12509000000E+03 0.  0.
         25    1    3    3    0    0  0.19088868995E+02 -0.86329158017E+02  0.21671006163E+02  0.15470697803E+03  0.12509000000E+03 0.  0.
         25    1    4    4    0    0 -0.43401083267E+02  0.29523900999E+02  0.10248871994E+03  0.17001988288E+03  0.12509000000E+03 0.  0.
<mgrwt>
<rscale>  2 0.45437597E+03</rscale>
<asrwt>0</asrwt>
<pdfrwt beam="1">  1       21 0.59743143E-01 0.45437597E+03</pdfrwt>
<pdfrwt beam="2">  1       21 0.18683783E-01 0.45437597E+03</pdfrwt>
<totfact> 0.63295584E+04</totfact>
</mgrwt>
</event>
<event>
 7    0  0.4712189E-002  0.4546600E+03  0.7546771E-02  0.1026341E+00
         21   -1    0    0  502  501  0.00000000000E+00  0.00000000000E+00  0.73188227603E+02  0.73188227603E+02  0.00000000000E+00 0.  1.
         21   -1    0    0  501  502 -0.00000000000E+00 -0.00000000000E+00 -0.70610994092E+03  0.70610994092E+03  0.00000000000E+00 0.  1.
      99926    2    1    2    0    0  0.14210854715E-13 -0.17763568394E-14 -0.63292171332E+03  0.77929816853E+03  0.45466002714E+03 0.  0.
      99925    2    3    3    0    0 -0.82305249817E+02  0.13572707140E+02 -0.52873975750E+03  0.59637807520E+03  0.26295000453E+03 0.  0.
         25    1    4    4    0    0 -0.65019756207E+02  0.25247969559E+02 -0.34060542009E+03  0.36949233952E+03  0.12509000000E+03 0.  0.
         25    1    3    3    0    0  0.82305249817E+02 -0.13572707140E+02 -0.10418195582E+03  0.18292009333E+03  0.12509000000E+03 0.  0.
         25    1    4    4    0    0 -0.17285493610E+02 -0.11675262420E+02 -0.18813433741E+03  0.22688573568E+03  0.12509000000E+03 0.  0.
<mgrwt>
<rscale>  2 0.45466003E+03</rscale>
<asrwt>0</asrwt>
<pdfrwt beam="1">  1       21 0.10762974E-01 0.45466003E+03</pdfrwt>
<pdfrwt beam="2">  1       21 0.10383970E+00 0.45466003E+03</pdfrwt>
<totfact> 0.48912863E+04</totfact>
</mgrwt>
</event>
<event>
 7    0  0.4712189E-002  0.4547176E+03  0.7546771E-02  0.1026324E+00
         21   -1    0    0  502  501  0.00000000000E+00  0.00000000000E+00  0.18928697682E+03  0.18928697682E+03  0.00000000000E+00 0.  1.
         21   -1    0    0  501  502 -0.00000000000E+00 -0.00000000000E+00 -0.27308813232E+03  0.27308813232E+03  0.00000000000E+00 0.  1.
      99926    2    1    2    0    0  0.00000000000E+00  0.00000000000E+00 -0.83801155497E+02  0.46237510914E+03  0.45471761335E+03 0.  0.
      99925    2    3    3    0    0 -0.65001875001E+02  0.11827229817E+02 -0.14590156964E+03  0.30787884169E+03  0.26293912987E+03 0.  0.
         25    1    4    4    0    0 -0.19006717925E+02  0.18997911452E+02 -0.30720917092E+02  0.13158061716E+03  0.12509000000E+03 0.  0.
         25    1    3    3    0    0  0.65001875001E+02 -0.11827229817E+02  0.62100414144E+02  0.15449626745E+03  0.12509000000E+03 0.  0.
         25    1    4    4    0    0 -0.45995157076E+02 -0.71706816348E+01 -0.11518065255E+03  0.17629822453E+03  0.12509000000E+03 0.  0.
<mgrwt>
<rscale>  2 0.45471761E+03</rscale>
<asrwt>0</asrwt>
<pdfrwt beam="1">  1       21 0.27836320E-01 0.45471761E+03</pdfrwt>
<pdfrwt beam="2">  1       21 0.40160019E-01 0.45471761E+03</pdfrwt>
<totfact> 0.68158308E+04</totfact>
</mgrwt>
</event>
<event>
 7    0  0.4712189E-002  0.4546085E+03  0.7546771E-02  0.1026357E+00
         21   -1    0    0  502  501  0.00000000000E+00  0.00000000000E+00  0.12816862146E+03  0.12816862146E+03  0.00000000000E+00 0.  1.
         21   -1    0    0  501  502 -0.00000000000E+00 -0.00000000000E+00 -0.40311920190E+03  0.40311920190E+03  0.00000000000E+00 0.  1.
      99926    2    1    2    0    0  0.00000000000E+00  0.00000000000E+00 -0.27495058044E+03  0.53128782336E+03  0.45460854542E+03 0.  0.
      99925    2    3    3    0    0  0.58168999408E+02  0.95075143009E+02 -0.19379195321E+03  0.34512352446E+03  0.26292966873E+03 0.  0.
         25    1    3    3    0    0 -0.58168999408E+02 -0.95075143009E+02 -0.81158627227E+02  0.18616429890E+03  0.12509000000E+03 0.  0.
         25    1    4    4    0    0  0.67504420814E+02  0.49240390213E+02 -0.12079676887E+03  0.19292700777E+03  0.12509000000E+03 0.  0.
         25    1    4    4    0    0 -0.93354214059E+01  0.45834752796E+02 -0.72995184342E+02  0.15219651669E+03  0.12509000000E+03 0.  0.
<mgrwt>
<rscale>  2 0.45460855E+03</rscale>
<asrwt>0</asrwt>
<pdfrwt beam="1">  1       21 0.18848326E-01 0.45460855E+03</pdfrwt>
<pdfrwt beam="2">  1       21 0.59282237E-01 0.45460855E+03</pdfrwt>
<totfact> 0.63315624E+04</totfact>
</mgrwt>
</event>
<event>
 7    0  0.4712189E-002  0.4555629E+03  0.7546771E-02  0.1026076E+00
         21   -1    0    0  502  501  0.00000000000E+00  0.00000000000E+00  0.46779895715E+03  0.46779895715E+03  0.00000000000E+00 0. -1.
         21   -1    0    0  501  502 -0.00000000000E+00 -0.00000000000E+00 -0.11091171571E+03  0.11091171571E+03  0.00000000000E+00 0. -1.
      99926    2    1    2    0    0  0.00000000000E+00  0.00000000000E+00  0.35688724144E+03  0.57871067286E+03  0.45556288235E+03 0.  0.
      99925    2    3    3    0    0  0.43615172769E+02 -0.86834345131E+02  0.14948573872E+03  0.31774060135E+03  0.26300307389E+03 0.  0.
         25    1    3    3    0    0 -0.43615172769E+02  0.86834345131E+02  0.20740150272E+03  0.26097007150E+03  0.12509000000E+03 0.  0.
         25    1    4    4    0    0  0.31797948325E+02 -0.23221173762E+02  0.11082637643E+03  0.17169835829E+03  0.12509000000E+03 0.  0.
         25    1    4    4    0    0  0.11817224445E+02 -0.63613171369E+02  0.38659362295E+02  0.14604224306E+03  0.12509000000E+03 0.  0.
<mgrwt>
<rscale>  2 0.45556288E+03</rscale>
<asrwt>0</asrwt>
<pdfrwt beam="1">  1       21 0.68793964E-01 0.45556288E+03</pdfrwt>
<pdfrwt beam="2">  1       21 0.16310547E-01 0.45556288E+03</pdfrwt>
<totfact> 0.59741892E+04</totfact>
</mgrwt>
</event>
<event>
 7    0  0.4712189E-002  0.4559825E+03  0.7546771E-02  0.1025953E+00
         21   -1    0    0  502  501  0.00000000000E+00  0.00000000000E+00  0.31403592215E+03  0.31403592215E+03  0.00000000000E+00 0. -1.
         21   -1    0    0  501  502 -0.00000000000E+00 -0.00000000000E+00 -0.16552247978E+03  0.16552247978E+03  0.00000000000E+00 0. -1.
      99926    2    1    2    0    0 -0.14210854715E-13 -0.53290705182E-14  0.14851344237E+03  0.47955840193E+03  0.45598247587E+03 0.  0.
      99925    2    3    3    0    0  0.94428559300E+02  0.14275796810E+02  0.15905752162E+03  0.32182686769E+03  0.26296898372E+03 0.  0.
         25    1    4    4    0    0  0.29618446622E+02  0.43742039270E+02  0.80418869737E+02  0.15781419800E+03  0.12509000000E+03 0.  0.
         25    1    4    4    0    0  0.64810112678E+02 -0.29466242460E+02  0.78638651881E+02  0.16401266969E+03  0.12509000000E+03 0.  0.
         25    1    3    3    0    0 -0.94428559300E+02 -0.14275796810E+02 -0.10544079250E+02  0.15773153424E+03  0.12509000000E+03 0.  0.
<mgrwt>
<rscale>  2 0.45598248E+03</rscale>
<asrwt>0</asrwt>
<pdfrwt beam="1">  1       21 0.46181753E-01 0.45598248E+03</pdfrwt>
<pdfrwt beam="2">  1       21 0.24341541E-01 0.45598248E+03</pdfrwt>
<totfact> 0.66214401E+04</totfact>
</mgrwt>
</event>
<event>
 7    0  0.4712189E-002  0.4398238E+03  0.7546771E-02  0.1030801E+00
         21   -1    0    0  502  501  0.00000000000E+00  0.00000000000E+00  0.95886630491E+02  0.95886630491E+02  0.00000000000E+00 0.  1.
         21   -1    0    0  501  502 -0.00000000000E+00 -0.00000000000E+00 -0.50435852471E+03  0.50435852471E+03  0.00000000000E+00 0.  1.
      99926    2    1    2    0    0 -0.44408920985E-15  0.14210854715E-13 -0.40847189422E+03  0.60024515520E+03  0.43982378059E+03 0.  0.
      99925    2    3    3    0    0  0.25389562641E+01  0.78155915950E+02 -0.17969507774E+03  0.32802992169E+03  0.26305610630E+03 0.  0.
         25    1    3    3    0    0 -0.25389562641E+01 -0.78155915950E+02 -0.22877681648E+03  0.27221523351E+03  0.12509000000E+03 0.  0.
         25    1    4    4    0    0  0.23838578129E+02  0.68652115638E+01 -0.10025573405E+03  0.16221630389E+03  0.12509000000E+03 0.  0.
         25    1    4    4    0    0 -0.21299621865E+02  0.71290704386E+02 -0.79439343692E+02  0.16581361781E+03  0.12509000000E+03 0.  0.
<mgrwt>
<rscale>  2 0.43982378E+03</rscale>
<asrwt>0</asrwt>
<pdfrwt beam="1">  1       21 0.14100975E-01 0.43982378E+03</pdfrwt>
<pdfrwt beam="2">  1       21 0.74170372E-01 0.43982378E+03</pdfrwt>
<totfact> 0.66257283E+04</totfact>
</mgrwt>
</event>
<event>
 7    0  0.4712189E-002  0.4553733E+03  0.7546771E-02  0.1026132E+00
         21   -1    0    0  502  501  0.00000000000E+00  0.00000000000E+00  0.29791915481E+03  0.29791915481E+03  0.00000000000E+00 0. -1.
         21   -1    0    0  501  502 -0.00000000000E+00 -0.00000000000E+00 -0.17401099373E+03  0.17401099373E+03  0.00000000000E+00 0. -1.
      99926    2    1    2    0    0  0.00000000000E+00  0.00000000000E+00  0.12390816107E+03  0.47193014854E+03  0.45537328942E+03 0.  0.
      99925    2    3    3    0    0  0.86358540356E+02  0.28710236527E+02  0.14871252248E+03  0.31526222068E+03  0.26266476405E+03 0.  0.
         25    1    4    4    0    0  0.29772546776E+02  0.43561177978E+02  0.46682784997E+02  0.14356451958E+03  0.12509000000E+03 0.  0.
         25    1    4    4    0    0  0.56585993580E+02 -0.14850941451E+02  0.10202973749E+03  0.17169770110E+03  0.12509000000E+03 0.  0.
         25    1    3    3    0    0 -0.86358540356E+02 -0.28710236527E+02 -0.24804361412E+02  0.15666792786E+03  0.12509000000E+03 0.  0.
<mgrwt>
<rscale>  2 0.45537329E+03</rscale>
<asrwt>0</asrwt>
<pdfrwt beam="1">  1       21 0.43811640E-01 0.45537329E+03</pdfrwt>
<pdfrwt beam="2">  1       21 0.25589852E-01 0.45537329E+03</pdfrwt>
<totfact> 0.67093526E+04</totfact>
</mgrwt>
</event>
<event>
 7    0  0.4712189E-002  0.4415358E+03  0.7546771E-02  0.1030277E+00
         21   -1    0    0  502  501  0.00000000000E+00  0.00000000000E+00  0.12826491309E+04  0.12826491309E+04  0.00000000000E+00 0. -1.
         21   -1    0    0  501  502 -0.00000000000E+00 -0.00000000000E+00 -0.37998291529E+02  0.37998291529E+02  0.00000000000E+00 0. -1.
      99926    2    1    2    0    0  0.71054273576E-14 -0.71054273576E-14  0.12446508394E+04  0.13206474224E+04  0.44153584500E+03 0.  0.
      99925    2    3    3    0    0  0.61697326429E+02 -0.49363905190E+02  0.61084736604E+03  0.66980358085E+03  0.26317100351E+03 0.  0.
         25    1    3    3    0    0 -0.61697326429E+02  0.49363905190E+02  0.63380347333E+03  0.65084384159E+03  0.12509000000E+03 0.  0.
         25    1    4    4    0    0  0.20474789067E+02 -0.10094872602E+02  0.20415057577E+03  0.24051213925E+03  0.12509000000E+03 0.  0.
         25    1    4    4    0    0  0.41222537362E+02 -0.39269032588E+02  0.40669679028E+03  0.42929144160E+03  0.12509000000E+03 0.  0.
<mgrwt>
<rscale>  2 0.44153585E+03</rscale>
<asrwt>0</asrwt>
<pdfrwt beam="1">  1       21 0.18862484E+00 0.44153585E+03</pdfrwt>
<pdfrwt beam="2">  1       21 0.55879849E-02 0.44153585E+03</pdfrwt>
<totfact> 0.31713541E+04</totfact>
</mgrwt>
</event>
<event>
 7    0  0.4712189E-002  0.4497064E+03  0.7546771E-02  0.1027810E+00
         21   -1    0    0  502  501  0.00000000000E+00  0.00000000000E+00  0.10015580958E+04  0.10015580958E+04  0.00000000000E+00 0.  1.
         21   -1    0    0  501  502 -0.00000000000E+00 -0.00000000000E+00 -0.50480299896E+02  0.50480299896E+02  0.00000000000E+00 0.  1.
      99926    2    1    2    0    0  0.71054273576E-14  0.71054273576E-14  0.95107779587E+03  0.10520383957E+04  0.44970636214E+03 0.  0.
      99925    2    3    3    0    0 -0.48542137918E+02 -0.45210755766E+02  0.79993870182E+03  0.84493724781E+03  0.26384971950E+03 0.  0.
         25    1    3    3    0    0  0.48542137918E+02  0.45210755766E+02  0.15113909404E+03  0.20710114785E+03  0.12509000000E+03 0.  0.
         25    1    4    4    0    0 -0.23834601886E+02 -0.64497424605E+02  0.39848918515E+03  0.42328376393E+03  0.12509000000E+03 0.  0.
         25    1    4    4    0    0 -0.24707536032E+02  0.19286668839E+02  0.40144951667E+03  0.42165348388E+03  0.12509000000E+03 0.  0.
<mgrwt>
<rscale>  2 0.44970636E+03</rscale>
<asrwt>0</asrwt>
<pdfrwt beam="1">  1       21 0.14728794E+00 0.44970636E+03</pdfrwt>
<pdfrwt beam="2">  1       21 0.74235741E-02 0.44970636E+03</pdfrwt>
<totfact> 0.38780364E+04</totfact>
</mgrwt>
</event>
<event>
 7    0  0.4712189E-002  0.4563393E+03  0.7546771E-02  0.1025848E+00
         21   -1    0    0  502  501  0.00000000000E+00  0.00000000000E+00  0.30321203608E+04  0.30321203608E+04  0.00000000000E+00 0.  1.
         21   -1    0    0  501  502 -0.00000000000E+00 -0.00000000000E+00 -0.17169962058E+02  0.17169962058E+02  0.00000000000E+00 0.  1.
      99926    2    1    2    0    0  0.35527136788E-14  0.00000000000E+00  0.30149503987E+04  0.30492903229E+04  0.45633931038E+03 0.  0.
      99925    2    3    3    0    0  0.20267527934E+02  0.19693146201E+02  0.26358830049E+04  0.26491176228E+04  0.26295697598E+03 0.  0.
         25    1    4    4    0    0  0.47382386697E+02 -0.60110274094E+01  0.13518639408E+04  0.13584788720E+04  0.12509000000E+03 0.  0.
         25    1    3    3    0    0 -0.20267527934E+02 -0.19693146201E+02  0.37906739383E+03  0.40017270004E+03  0.12509000000E+03 0.  0.
         25    1    4    4    0    0 -0.27114858763E+02  0.25704173611E+02  0.12840190641E+04  0.12906387508E+04  0.12509000000E+03 0.  0.
<mgrwt>
<rscale>  2 0.45633931E+03</rscale>
<asrwt>0</asrwt>
<pdfrwt beam="1">  1       21 0.44589968E+00 0.45633931E+03</pdfrwt>
<pdfrwt beam="2">  1       21 0.25249965E-02 0.45633931E+03</pdfrwt>
<totfact> 0.29514336E+03</totfact>
</mgrwt>
</event>
<event>
 7    0  0.4712189E-002  0.4542608E+03  0.7546771E-02  0.1026459E+00
         21   -1    0    0  502  501  0.00000000000E+00  0.00000000000E+00  0.19134023021E+02  0.19134023021E+02  0.00000000000E+00 0.  1.
         21   -1    0    0  501  502 -0.00000000000E+00 -0.00000000000E+00 -0.26961517605E+04  0.26961517605E+04  0.00000000000E+00 0.  1.
      99926    2    1    2    0    0 -0.71054273576E-14 -0.14210854715E-13 -0.26770177375E+04  0.27152857835E+04  0.45426084953E+03 0.  0.
      99925    2    3    3    0    0  0.61244208828E+02  0.73315170684E+02 -0.13312745647E+04  0.13603694899E+04  0.26303462745E+03 0.  0.
         25    1    3    3    0    0 -0.61244208828E+02 -0.73315170684E+02 -0.13457431728E+04  0.13549162936E+04  0.12509000000E+03 0.  0.
         25    1    4    4    0    0 -0.13574859309E+01  0.50606468851E+02 -0.75206785476E+03  0.76407880727E+03  0.12509000000E+03 0.  0.
         25    1    4    4    0    0  0.62601694759E+02  0.22708701833E+02 -0.57920670992E+03  0.59629068267E+03  0.12509000000E+03 0.  0.
<mgrwt>
<rscale>  2 0.45426085E+03</rscale>
<asrwt>0</asrwt>
<pdfrwt beam="1">  1       21 0.28138288E-02 0.45426085E+03</pdfrwt>
<pdfrwt beam="2">  1       21 0.39649264E+00 0.45426085E+03</pdfrwt>
<totfact> 0.52003708E+03</totfact>
</mgrwt>
</event>
<event>
 7    0  0.4712189E-002  0.4495615E+03  0.7546771E-02  0.1027853E+00
         21   -1    0    0  502  501  0.00000000000E+00  0.00000000000E+00  0.12247177556E+04  0.12247177556E+04  0.00000000000E+00 0. -1.
         21   -1    0    0  501  502 -0.00000000000E+00 -0.00000000000E+00 -0.41255533041E+02  0.41255533041E+02  0.00000000000E+00 0. -1.
      99926    2    1    2    0    0  0.11102230246E-14  0.71054273576E-14  0.11834622225E+04  0.12659732886E+04  0.44956149226E+03 0.  0.
      99925    2    3    3    0    0 -0.51999091692E+00 -0.60383829289E+02  0.49442547482E+03  0.56307526967E+03  0.26258471383E+03 0.  0.
         25    1    3    3    0    0  0.51999091692E+00  0.60383829289E+02  0.68903674771E+03  0.70289801894E+03  0.12509000000E+03 0.  0.
         25    1    4    4    0    0 -0.39487201709E+02 -0.26557976198E+02  0.25886471380E+03  0.29141553382E+03  0.12509000000E+03 0.  0.
         25    1    4    4    0    0  0.38967210792E+02 -0.33825853091E+02  0.23556076102E+03  0.27165973586E+03  0.12509000000E+03 0.  0.
<mgrwt>
<rscale>  2 0.44956149E+03</rscale>
<asrwt>0</asrwt>
<pdfrwt beam="1">  1       21 0.18010553E+00 0.44956149E+03</pdfrwt>
<pdfrwt beam="2">  1       21 0.60669909E-02 0.44956149E+03</pdfrwt>
<totfact> 0.31428239E+04</totfact>
</mgrwt>
</event>
<event>
 7    0  0.4712189E-002  0.3968390E+03  0.7546771E-02  0.1044880E+00
         21   -1    0    0  502  501  0.00000000000E+00  0.00000000000E+00  0.47844553056E+03  0.47844553056E+03  0.00000000000E+00 0. -1.
         21   -1    0    0  501  502 -0.00000000000E+00 -0.00000000000E+00 -0.82287959491E+02  0.82287959491E+02  0.00000000000E+00 0. -1.
      99926    2    1    2    0    0  0.00000000000E+00  0.00000000000E+00  0.39615757107E+03  0.56073349006E+03  0.39683904262E+03 0.  0.
      99925    2    3    3    0    0  0.26040753253E+02 -0.28815957345E+02  0.26464654777E+03  0.37512331367E+03  0.26300422997E+03 0.  0.
         25    1    4    4    0    0  0.20830192652E+02  0.18117812117E+02  0.96969445820E+02  0.16066341701E+03  0.12509000000E+03 0.  0.
         25    1    4    4    0    0  0.52105606011E+01 -0.46933769463E+02  0.16767710195E+03  0.21445989666E+03  0.12509000000E+03 0.  0.
         25    1    3    3    0    0 -0.26040753253E+02  0.28815957345E+02  0.13151102330E+03  0.18561017638E+03  0.12509000000E+03 0.  0.
<mgrwt>
<rscale>  2 0.39683904E+03</rscale>
<asrwt>0</asrwt>
<pdfrwt beam="1">  1       21 0.70359636E-01 0.39683904E+03</pdfrwt>
<pdfrwt beam="2">  1       21 0.12101171E-01 0.39683904E+03</pdfrwt>
<totfact> 0.99698077E+04</totfact>
</mgrwt>
</event>
<event>
 7    0  0.4712189E-002  0.4578884E+03  0.7546771E-02  0.1025395E+00
         21   -1    0    0  502  501  0.00000000000E+00  0.00000000000E+00  0.44207068811E+02  0.44207068811E+02  0.00000000000E+00 0. -1.
         21   -1    0    0  501  502 -0.00000000000E+00 -0.00000000000E+00 -0.11856802323E+04  0.11856802323E+04  0.00000000000E+00 0. -1.
      99926    2    1    2    0    0  0.14210854715E-13  0.35527136788E-14 -0.11414731634E+04  0.12298873011E+04  0.45788840394E+03 0.  0.
      99925    2    3    3    0    0 -0.87570690928E+02  0.18911770712E+02 -0.91373189971E+03  0.95504212230E+03  0.26300796537E+03 0.  0.
         25    1    4    4    0    0 -0.82057297108E+02  0.25820311762E+02 -0.53223324653E+03  0.55346167466E+03  0.12509000000E+03 0.  0.
         25    1    4    4    0    0 -0.55133938202E+01 -0.69085410500E+01 -0.38149865318E+03  0.40158044764E+03  0.12509000000E+03 0.  0.
         25    1    3    3    0    0  0.87570690928E+02 -0.18911770712E+02 -0.22774126373E+03  0.27484517876E+03  0.12509000000E+03 0.  0.
<mgrwt>
<rscale>  2 0.45788840E+03</rscale>
<asrwt>0</asrwt>
<pdfrwt beam="1">  1       21 0.65010391E-02 0.45788840E+03</pdfrwt>
<pdfrwt beam="2">  1       21 0.17436475E+00 0.45788840E+03</pdfrwt>
<totfact> 0.30528472E+04</totfact>
</mgrwt>
</event>
<event>
 7    0  0.4712189E-002  0.4254993E+03  0.7546771E-02  0.1035291E+00
         21   -1    0    0  502  501  0.00000000000E+00  0.00000000000E+00  0.13631450103E+03  0.13631450103E+03  0.00000000000E+00 0. -1.
         21   -1    0    0  501  502 -0.00000000000E+00 -0.00000000000E+00 -0.33204394928E+03  0.33204394928E+03  0.00000000000E+00 0. -1.
      99926    2    1    2    0    0 -0.35527136788E-14  0.00000000000E+00 -0.19572944825E+03  0.46835845031E+03  0.42549926095E+03 0.  0.
      99925    2    3    3    0    0  0.26559871692E+02 -0.74161859627E+02 -0.99623488464E+02  0.29203694903E+03  0.26297401381E+03 0.  0.
         25    1    3    3    0    0 -0.26559871692E+02  0.74161859627E+02 -0.96105959783E+02  0.17632150128E+03  0.12509000000E+03 0.  0.
         25    1    4    4    0    0 -0.24695198317E+02 -0.32335444568E+02 -0.32921351577E+02  0.13559777758E+03  0.12509000000E+03 0.  0.
         25    1    4    4    0    0  0.51255070009E+02 -0.41826415060E+02 -0.66702136887E+02  0.15643917145E+03  0.12509000000E+03 0.  0.
<mgrwt>
<rscale>  2 0.42549926E+03</rscale>
<asrwt>0</asrwt>
<pdfrwt beam="1">  1       21 0.20046250E-01 0.42549926E+03</pdfrwt>
<pdfrwt beam="2">  1       21 0.48829992E-01 0.42549926E+03</pdfrwt>
<totfact> 0.85999781E+04</totfact>
</mgrwt>
</event>
<event>
 7    0  0.4712189E-002  0.4504451E+03  0.7546771E-02  0.1027589E+00
         21   -1    0    0  502  501  0.00000000000E+00  0.00000000000E+00  0.45061328637E+03  0.45061328637E+03  0.00000000000E+00 0.  1.
         21   -1    0    0  501  502 -0.00000000000E+00 -0.00000000000E+00 -0.11256923885E+03  0.11256923885E+03  0.00000000000E+00 0.  1.
      99926    2    1    2    0    0 -0.22204460493E-14  0.00000000000E+00  0.33804404752E+03  0.56318252523E+03  0.45044508950E+03 0.  0.
      99925    2    3    3    0    0  0.39587716112E+01  0.24008902635E+02  0.34692982874E+03  0.43543838843E+03  0.26201943586E+03 0.  0.
         25    1    3    3    0    0 -0.39587716112E+01 -0.24008902635E+02 -0.88857812215E+01  0.12774413680E+03  0.12509000000E+03 0.  0.
         25    1    4    4    0    0  0.32230932723E+02 -0.59639447195E+01  0.14424317340E+03  0.19372145682E+03  0.12509000000E+03 0.  0.
         25    1    4    4    0    0 -0.28272161112E+02  0.29972847355E+02  0.20268665534E+03  0.24171693161E+03  0.12509000000E+03 0.  0.
<mgrwt>
<rscale>  2 0.45044509E+03</rscale>
<asrwt>0</asrwt>
<pdfrwt beam="1">  1       21 0.66266659E-01 0.45044509E+03</pdfrwt>
<pdfrwt beam="2">  1       21 0.16554300E-01 0.45044509E+03</pdfrwt>
<totfact> 0.63251778E+04</totfact>
</mgrwt>
</event>
<event>
 7    0  0.4712189E-002  0.4614115E+03  0.7546771E-02  0.1024373E+00
         21   -1    0    0  502  501  0.00000000000E+00  0.00000000000E+00  0.79322238845E+02  0.79322238845E+02  0.00000000000E+00 0. -1.
         21   -1    0    0  501  502 -0.00000000000E+00 -0.00000000000E+00 -0.67099909868E+03  0.67099909868E+03  0.00000000000E+00 0. -1.
      99926    2    1    2    0    0  0.00000000000E+00  0.35527136788E-14 -0.59167685984E+03  0.75032133753E+03  0.46141153332E+03 0.  0.
      99925    2    3    3    0    0  0.98365994599E+02  0.22389882417E+02 -0.26862540276E+03  0.38950708096E+03  0.26339890542E+03 0.  0.
         25    1    4    4    0    0  0.40801094554E+02 -0.21555141681E+02 -0.16245118425E+03  0.21016005523E+03  0.12509000000E+03 0.  0.
         25    1    3    3    0    0 -0.98365994599E+02 -0.22389882417E+02 -0.32305145708E+03  0.36081425657E+03  0.12509000000E+03 0.  0.
         25    1    4    4    0    0  0.57564900045E+02  0.43945024098E+02 -0.10617421852E+03  0.17934702573E+03  0.12509000000E+03 0.  0.
<mgrwt>
<rscale>  2 0.46141153E+03</rscale>
<asrwt>0</asrwt>
<pdfrwt beam="1">  1       21 0.11665035E-01 0.46141153E+03</pdfrwt>
<pdfrwt beam="2">  1       21 0.98676341E-01 0.46141153E+03</pdfrwt>
<totfact> 0.47799899E+04</totfact>
</mgrwt>
</event>
<event>
 7    0  0.4712189E-002  0.4307668E+03  0.7546771E-02  0.1033618E+00
         21   -1    0    0  502  501  0.00000000000E+00  0.00000000000E+00  0.63401385534E+03  0.63401385534E+03  0.00000000000E+00 0.  1.
         21   -1    0    0  501  502 -0.00000000000E+00 -0.00000000000E+00 -0.73168756289E+02  0.73168756289E+02  0.00000000000E+00 0.  1.
      99926    2    1    2    0    0  0.00000000000E+00 -0.14210854715E-13  0.56084509905E+03  0.70718261163E+03  0.43076678268E+03 0.  0.
      99925    2    3    3    0    0  0.54674917031E+02  0.69573312476E+02  0.35501528577E+03  0.45058328876E+03  0.26298223251E+03 0.  0.
         25    1    3    3    0    0 -0.54674917031E+02 -0.69573312476E+02  0.20582981328E+03  0.25659932287E+03  0.12509000000E+03 0.  0.
         25    1    4    4    0    0  0.28542178858E+02  0.39744596468E+02  0.24473376109E+03  0.27917093480E+03  0.12509000000E+03 0.  0.
         25    1    4    4    0    0  0.26132738172E+02  0.29828716008E+02  0.11028152468E+03  0.17141235396E+03  0.12509000000E+03 0.  0.
<mgrwt>
<rscale>  2 0.43076678E+03</rscale>
<asrwt>0</asrwt>
<pdfrwt beam="1">  1       21 0.93237329E-01 0.43076678E+03</pdfrwt>
<pdfrwt beam="2">  1       21 0.10760112E-01 0.43076678E+03</pdfrwt>
<totfact> 0.63844653E+04</totfact>
</mgrwt>
</event>
<event>
 7    0  0.4712189E-002  0.4580361E+03  0.7546771E-02  0.1025352E+00
         21   -1    0    0  502  501  0.00000000000E+00  0.00000000000E+00  0.12330772414E+03  0.12330772414E+03  0.00000000000E+00 0.  1.
         21   -1    0    0  501  502 -0.00000000000E+00 -0.00000000000E+00 -0.42535268496E+03  0.42535268496E+03  0.00000000000E+00 0.  1.
      99926    2    1    2    0    0  0.71054273576E-14  0.17763568394E-14 -0.30204496082E+03  0.54866040910E+03  0.45803611884E+03 0.  0.
      99925    2    3    3    0    0 -0.60525257570E+02 -0.65484086754E+01 -0.30777764857E+03  0.40942478051E+03  0.26305015011E+03 0.  0.
         25    1    3    3    0    0  0.60525257570E+02  0.65484086754E+01  0.57326877592E+01  0.13923562859E+03  0.12509000000E+03 0.  0.
         25    1    4    4    0    0 -0.42472729797E+02 -0.17826142138E+02 -0.21208554270E+03  0.25049848231E+03  0.12509000000E+03 0.  0.
         25    1    4    4    0    0 -0.18052527773E+02  0.11277733462E+02 -0.95692105878E+02  0.15892629820E+03  0.12509000000E+03 0.  0.
<mgrwt>
<rscale>  2 0.45803612E+03</rscale>
<asrwt>0</asrwt>
<pdfrwt beam="1">  1       21 0.18133489E-01 0.45803612E+03</pdfrwt>
<pdfrwt beam="2">  1       21 0.62551866E-01 0.45803612E+03</pdfrwt>
<totfact> 0.60488878E+04</totfact>
</mgrwt>
</event>
<event>
 7    0  0.4712189E-002  0.4065378E+03  0.7546771E-02  0.1041539E+00
         21   -1    0    0  502  501  0.00000000000E+00  0.00000000000E+00  0.18568343279E+03  0.18568343279E+03  0.00000000000E+00 0.  1.
         21   -1    0    0  501  502 -0.00000000000E+00 -0.00000000000E+00 -0.22251979225E+03  0.22251979225E+03  0.00000000000E+00 0.  1.
      99926    2    1    2    0    0  0.00000000000E+00 -0.35527136788E-14 -0.36836359459E+02  0.40820322503E+03  0.40653776645E+03 0.  0.
      99925    2    3    3    0    0 -0.18319127614E+02 -0.23187390221E+02 -0.73317225145E+02  0.27459331835E+03  0.26296925577E+03 0.  0.
         25    1    3    3    0    0  0.18319127614E+02  0.23187390221E+02  0.36480865686E+02  0.13360990668E+03  0.12509000000E+03 0.  0.
         25    1    4    4    0    0 -0.19294163479E+01 -0.51561499717E+02 -0.37394623369E+02  0.14038581430E+03  0.12509000000E+03 0.  0.
         25    1    4    4    0    0 -0.16389711266E+02  0.28374109496E+02 -0.35922601777E+02  0.13420750405E+03  0.12509000000E+03 0.  0.
<mgrwt>
<rscale>  2 0.40653777E+03</rscale>
<asrwt>0</asrwt>
<pdfrwt beam="1">  1       21 0.27306387E-01 0.40653777E+03</pdfrwt>
<pdfrwt beam="2">  1       21 0.32723499E-01 0.40653777E+03</pdfrwt>
<totfact> 0.10832776E+05</totfact>
</mgrwt>
</event>
<event>
 7    0  0.4712189E-002  0.4463593E+03  0.7546771E-02  0.1028813E+00
         21   -1    0    0  502  501  0.00000000000E+00  0.00000000000E+00  0.13272920100E+03  0.13272920100E+03  0.00000000000E+00 0.  1.
         21   -1    0    0  501  502 -0.00000000000E+00 -0.00000000000E+00 -0.37526909002E+03  0.37526909002E+03  0.00000000000E+00 0.  1.
      99926    2    1    2    0    0  0.00000000000E+00  0.00000000000E+00 -0.24253988902E+03  0.50799829102E+03  0.44635934617E+03 0.  0.
      99925    2    3    3    0    0 -0.90919388177E+02  0.51702638294E+02 -0.16663441012E+03  0.32814099264E+03  0.26262137473E+03 0.  0.
         25    1    3    3    0    0  0.90919388177E+02 -0.51702638294E+02 -0.75905478898E+02  0.17985729838E+03  0.12509000000E+03 0.  0.
         25    1    4    4    0    0 -0.39929091974E+02  0.94148902485E+01 -0.38367900655E+02  0.13712248701E+03  0.12509000000E+03 0.  0.
         25    1    4    4    0    0 -0.50990296203E+02  0.42287748045E+02 -0.12826650947E+03  0.19101850563E+03  0.12509000000E+03 0.  0.
<mgrwt>
<rscale>  2 0.44635935E+03</rscale>
<asrwt>0</asrwt>
<pdfrwt beam="1">  1       21 0.19519000E-01 0.44635935E+03</pdfrwt>
<pdfrwt beam="2">  1       21 0.55186630E-01 0.44635935E+03</pdfrwt>
<totfact> 0.69346727E+04</totfact>
</mgrwt>
</event>
<event>
 7    0  0.4712189E-002  0.4609121E+03  0.7546771E-02  0.1024517E+00
         21   -1    0    0  502  501  0.00000000000E+00  0.00000000000E+00  0.39425484643E+02  0.39425484643E+02  0.00000000000E+00 0.  1.
         21   -1    0    0  501  502 -0.00000000000E+00 -0.00000000000E+00 -0.13470978760E+04  0.13470978760E+04  0.00000000000E+00 0.  1.
      99926    2    1    2    0    0  0.00000000000E+00  0.00000000000E+00 -0.13076723914E+04  0.13865233607E+04  0.46091208109E+03 0.  0.
      99925    2    3    3    0    0  0.97216355701E+02  0.80293136263E+01 -0.61637127880E+03  0.67725597382E+03  0.26314750816E+03 0.  0.
         25    1    4    4    0    0  0.19481586267E+02 -0.52684171329E+01 -0.21563352872E+03  0.25010520832E+03  0.12509000000E+03 0.  0.
         25    1    4    4    0    0  0.77734769434E+02  0.13297730759E+02 -0.40073775008E+03  0.42715076550E+03  0.12509000000E+03 0.  0.
         25    1    3    3    0    0 -0.97216355701E+02 -0.80293136263E+01 -0.69130111258E+03  0.70926738685E+03  0.12509000000E+03 0.  0.
<mgrwt>
<rscale>  2 0.46091208E+03</rscale>
<asrwt>0</asrwt>
<pdfrwt beam="1">  1       21 0.57978653E-02 0.46091208E+03</pdfrwt>
<pdfrwt beam="2">  1       21 0.19810263E+00 0.46091208E+03</pdfrwt>
<totfact> 0.25501369E+04</totfact>
</mgrwt>
</event>
<event>
 7    0  0.4712189E-002  0.4576444E+03  0.7546771E-02  0.1025467E+00
         21   -1    0    0  502  501  0.00000000000E+00  0.00000000000E+00  0.13033317420E+03  0.13033317420E+03  0.00000000000E+00 0. -1.
         21   -1    0    0  501  502 -0.00000000000E+00 -0.00000000000E+00 -0.40173656195E+03  0.40173656195E+03  0.00000000000E+00 0. -1.
      99926    2    1    2    0    0 -0.71054273576E-14  0.00000000000E+00 -0.27140338775E+03  0.53206973615E+03  0.45764440917E+03 0.  0.
      99925    2    3    3    0    0 -0.53855473401E+02 -0.60879913315E+02 -0.26587568626E+03  0.38278866084E+03  0.26311689886E+03 0.  0.
         25    1    3    3    0    0  0.53855473401E+02  0.60879913315E+02 -0.55277014864E+01  0.14928107531E+03  0.12509000000E+03 0.  0.
         25    1    4    4    0    0 -0.53264405182E+02 -0.63926566842E+02 -0.14735570325E+03  0.21043981132E+03  0.12509000000E+03 0.  0.
         25    1    4    4    0    0 -0.59106821936E+00  0.30466535270E+01 -0.11851998301E+03  0.17234884952E+03  0.12509000000E+03 0.  0.
<mgrwt>
<rscale>  2 0.45764441E+03</rscale>
<asrwt>0</asrwt>
<pdfrwt beam="1">  1       21 0.19166643E-01 0.45764441E+03</pdfrwt>
<pdfrwt beam="2">  1       21 0.59078906E-01 0.45764441E+03</pdfrwt>
<totfact> 0.61761958E+04</totfact>
</mgrwt>
</event>
<event>
 7    0  0.4712189E-002  0.4477843E+03  0.7546771E-02  0.1028385E+00
         21   -1    0    0  502  501  0.00000000000E+00  0.00000000000E+00  0.97691458995E+03  0.97691458995E+03  0.00000000000E+00 0.  1.
         21   -1    0    0  501  502 -0.00000000000E+00 -0.00000000000E+00 -0.51312254186E+02  0.51312254186E+02  0.00000000000E+00 0.  1.
      99926    2    1    2    0    0  0.00000000000E+00  0.00000000000E+00  0.92560233576E+03  0.10282268441E+04  0.44778427734E+03 0.  0.
      99925    2    3    3    0    0 -0.88516307464E+02  0.59601891124E+02  0.61852144716E+03  0.67989696836E+03  0.26134954539E+03 0.  0.
         25    1    4    4    0    0 -0.63333794083E+02  0.58805648265E+02  0.38209671980E+03  0.41123555917E+03  0.12509000000E+03 0.  0.
         25    1    4    4    0    0 -0.25182513381E+02  0.79624285908E+00  0.23642472736E+03  0.26866140920E+03  0.12509000000E+03 0.  0.
         25    1    3    3    0    0  0.88516307464E+02 -0.59601891124E+02  0.30708088860E+03  0.34832987577E+03  0.12509000000E+03 0.  0.
<mgrwt>
<rscale>  2 0.44778428E+03</rscale>
<asrwt>0</asrwt>
<pdfrwt beam="1">  1       21 0.14366390E+00 0.44778428E+03</pdfrwt>
<pdfrwt beam="2">  1       21 0.75459204E-02 0.44778428E+03</pdfrwt>
<totfact> 0.40309971E+04</totfact>
</mgrwt>
</event>
<event>
 7    0  0.4712189E-002  0.4528924E+03  0.7546771E-02  0.1026863E+00
         21   -1    0    0  502  501  0.00000000000E+00  0.00000000000E+00  0.73464647728E+03  0.73464647728E+03  0.00000000000E+00 0.  1.
         21   -1    0    0  501  502 -0.00000000000E+00 -0.00000000000E+00 -0.69799398904E+02  0.69799398904E+02  0.00000000000E+00 0.  1.
      99926    2    1    2    0    0  0.00000000000E+00 -0.17763568394E-14  0.66484707838E+03  0.80444587619E+03  0.45289240453E+03 0.  0.
      99925    2    3    3    0    0  0.24141490270E+02 -0.59906830072E+01  0.61114540407E+03  0.66606207020E+03  0.26366887683E+03 0.  0.
         25    1    4    4    0    0  0.15552470920E+02 -0.44178731182E+02  0.29558736990E+03  0.32436559772E+03  0.12509000000E+03 0.  0.
         25    1    3    3    0    0 -0.24141490270E+02  0.59906830072E+01  0.53701674310E+02  0.13838380599E+03  0.12509000000E+03 0.  0.
         25    1    4    4    0    0  0.85890193497E+01  0.38188048175E+02  0.31555803417E+03  0.34169647248E+03  0.12509000000E+03 0.  0.
<mgrwt>
<rscale>  2 0.45289240E+03</rscale>
<asrwt>0</asrwt>
<pdfrwt beam="1">  1       21 0.10803624E+00 0.45289240E+03</pdfrwt>
<pdfrwt beam="2">  1       21 0.10264618E-01 0.45289240E+03</pdfrwt>
<totfact> 0.48345175E+04</totfact>
</mgrwt>
</event>
<event>
 7    0  0.4712189E-002  0.4524950E+03  0.7546771E-02  0.1026981E+00
         21   -1    0    0  502  501  0.00000000000E+00  0.00000000000E+00  0.28380137558E+03  0.28380137558E+03  0.00000000000E+00 0. -1.
         21   -1    0    0  501  502 -0.00000000000E+00 -0.00000000000E+00 -0.18036537542E+03  0.18036537542E+03  0.00000000000E+00 0. -1.
      99926    2    1    2    0    0  0.71054273576E-14  0.00000000000E+00  0.10343600016E+03  0.46416675100E+03  0.45249504594E+03 0.  0.
      99925    2    3    3    0    0 -0.58817852700E+02  0.70204051254E+02  0.12913309885E+03  0.30701714842E+03  0.26305137064E+03 0.  0.
         25    1    4    4    0    0 -0.14171515413E+02  0.62552280479E+02  0.95014719508E+02  0.16967299333E+03  0.12509000000E+03 0.  0.
         25    1    3    3    0    0  0.58817852700E+02 -0.70204051254E+02 -0.25697098686E+02  0.15714960258E+03  0.12509000000E+03 0.  0.
         25    1    4    4    0    0 -0.44646337287E+02  0.76517707753E+01  0.34118379339E+02  0.13734415509E+03  0.12509000000E+03 0.  0.
<mgrwt>
<rscale>  2 0.45249505E+03</rscale>
<asrwt>0</asrwt>
<pdfrwt beam="1">  1       21 0.41735497E-01 0.45249505E+03</pdfrwt>
<pdfrwt beam="2">  1       21 0.26524320E-01 0.45249505E+03</pdfrwt>
<totfact> 0.69237893E+04</totfact>
</mgrwt>
</event>
<event>
 7    0  0.4712189E-002  0.4585783E+03  0.7546771E-02  0.1025194E+00
         21   -1    0    0  502  501  0.00000000000E+00  0.00000000000E+00  0.62790723307E+03  0.62790723307E+03  0.00000000000E+00 0. -1.
         21   -1    0    0  501  502 -0.00000000000E+00 -0.00000000000E+00 -0.83728141150E+02  0.83728141150E+02  0.00000000000E+00 0. -1.
      99926    2    1    2    0    0  0.00000000000E+00  0.00000000000E+00  0.54417909192E+03  0.71163537422E+03  0.45857826132E+03 0.  0.
      99925    2    3    3    0    0  0.11473871669E+03 -0.96950425981E+01  0.31417890183E+03  0.42561690891E+03  0.26302548134E+03 0.  0.
         25    1    3    3    0    0 -0.11473871669E+03  0.96950425981E+01  0.23000019009E+03  0.28601846531E+03  0.12509000000E+03 0.  0.
         25    1    4    4    0    0  0.84251857890E+02  0.37784595108E+01  0.21445978090E+03  0.26220823412E+03  0.12509000000E+03 0.  0.
         25    1    4    4    0    0  0.30486858797E+02 -0.13473502109E+02  0.99719120929E+02  0.16340867479E+03  0.12509000000E+03 0.  0.
<mgrwt>
<rscale>  2 0.45857826E+03</rscale>
<asrwt>0</asrwt>
<pdfrwt beam="1">  1       21 0.92339297E-01 0.45857826E+03</pdfrwt>
<pdfrwt beam="2">  1       21 0.12312962E-01 0.45857826E+03</pdfrwt>
<totfact> 0.50829675E+04</totfact>
</mgrwt>
</event>
<event>
 7    0  0.4712189E-002  0.4526916E+03  0.7546771E-02  0.1026922E+00
         21   -1    0    0  502  501  0.00000000000E+00  0.00000000000E+00  0.99173538563E+02  0.99173538563E+02  0.00000000000E+00 0.  1.
         21   -1    0    0  501  502 -0.00000000000E+00 -0.00000000000E+00 -0.51659369161E+03  0.51659369161E+03  0.00000000000E+00 0.  1.
      99926    2    1    2    0    0  0.00000000000E+00  0.17763568394E-14 -0.41742015305E+03  0.61576723017E+03  0.45269161422E+03 0.  0.
      99925    2    3    3    0    0 -0.72390686693E+02  0.81240590560E+01 -0.37711888978E+03  0.46550708317E+03  0.26300527675E+03 0.  0.
         25    1    3    3    0    0  0.72390686693E+02 -0.81240590560E+01 -0.40301263263E+02  0.15026014700E+03  0.12509000000E+03 0.  0.
         25    1    4    4    0    0 -0.68320285708E+02 -0.15582900417E+02 -0.22859885700E+03  0.26984335038E+03  0.12509000000E+03 0.  0.
         25    1    4    4    0    0 -0.40704009856E+01  0.23706959473E+02 -0.14852003279E+03  0.19566373279E+03  0.12509000000E+03 0.  0.
<mgrwt>
<rscale>  2 0.45269161E+03</rscale>
<asrwt>0</asrwt>
<pdfrwt beam="1">  1       21 0.14584344E-01 0.45269161E+03</pdfrwt>
<pdfrwt beam="2">  1       21 0.75969659E-01 0.45269161E+03</pdfrwt>
<totfact> 0.58782419E+04</totfact>
</mgrwt>
</event>
<event>
 7    0  0.4712189E-002  0.4591199E+03  0.7546771E-02  0.1025037E+00
         21   -1    0    0  502  501  0.00000000000E+00  0.00000000000E+00  0.40823974259E+03  0.40823974259E+03  0.00000000000E+00 0.  1.
         21   -1    0    0  501  502 -0.00000000000E+00 -0.00000000000E+00 -0.12908533603E+03  0.12908533603E+03  0.00000000000E+00 0.  1.
      99926    2    1    2    0    0  0.00000000000E+00  0.00000000000E+00  0.27915440656E+03  0.53732507862E+03  0.45911987260E+03 0.  0.
      99925    2    3    3    0    0 -0.65973174035E+02  0.79006066343E+02  0.23988864325E+03  0.37064056681E+03  0.26312250073E+03 0.  0.
         25    1    4    4    0    0 -0.73889548155E+02  0.52101725783E+02  0.13109634642E+03  0.20250435872E+03  0.12509000000E+03 0.  0.
         25    1    4    4    0    0  0.79163741202E+01  0.26904340560E+02  0.10879229684E+03  0.16813620809E+03  0.12509000000E+03 0.  0.
         25    1    3    3    0    0  0.65973174035E+02 -0.79006066343E+02  0.39265763304E+02  0.16668451182E+03  0.12509000000E+03 0.  0.
<mgrwt>
<rscale>  2 0.45911987E+03</rscale>
<asrwt>0</asrwt>
<pdfrwt beam="1">  1       21 0.60035256E-01 0.45911987E+03</pdfrwt>
<pdfrwt beam="2">  1       21 0.18983138E-01 0.45911987E+03</pdfrwt>
<totfact> 0.60706878E+04</totfact>
</mgrwt>
</event>
<event>
 7    0  0.4712189E-002  0.4559513E+03  0.7546771E-02  0.1025962E+00
         21   -1    0    0  502  501  0.00000000000E+00  0.00000000000E+00  0.11759688262E+04  0.11759688262E+04  0.00000000000E+00 0. -1.
         21   -1    0    0  501  502 -0.00000000000E+00 -0.00000000000E+00 -0.44195819621E+02  0.44195819621E+02  0.00000000000E+00 0. -1.
      99926    2    1    2    0    0 -0.35527136788E-14  0.00000000000E+00  0.11317730066E+04  0.12201646458E+04  0.45595134004E+03 0.  0.
      99925    2    3    3    0    0 -0.19812898688E+02 -0.92600531214E+02  0.88168274446E+03  0.92493582500E+03  0.26301028336E+03 0.  0.
         25    1    3    3    0    0  0.19812898688E+02  0.92600531214E+02  0.25009026209E+03  0.29522882080E+03  0.12509000000E+03 0.  0.
         25    1    4    4    0    0  0.13457229116E+02 -0.10718391074E+02  0.38568076154E+03  0.40582402448E+03  0.12509000000E+03 0.  0.
         25    1    4    4    0    0 -0.33270127804E+02 -0.81882140140E+02  0.49600198292E+03  0.51911180052E+03  0.12509000000E+03 0.  0.
<mgrwt>
<rscale>  2 0.45595134E+03</rscale>
<asrwt>0</asrwt>
<pdfrwt beam="1">  1       21 0.17293657E+00 0.45595134E+03</pdfrwt>
<pdfrwt beam="2">  1       21 0.64993860E-02 0.45595134E+03</pdfrwt>
<totfact> 0.31290789E+04</totfact>
</mgrwt>
</event>
<event>
 7    0  0.4712189E-002  0.4602619E+03  0.7546771E-02  0.1024705E+00
         21   -1    0    0  502  501  0.00000000000E+00  0.00000000000E+00  0.31530045823E+03  0.31530045823E+03  0.00000000000E+00 0. -1.
         21   -1    0    0  501  502 -0.00000000000E+00 -0.00000000000E+00 -0.16796755247E+03  0.16796755247E+03  0.00000000000E+00 0. -1.
      99926    2    1    2    0    0  0.00000000000E+00  0.00000000000E+00  0.14733290576E+03  0.48326801070E+03  0.46026186573E+03 0.  0.
      99925    2    3    3    0    0  0.25899184123E+02  0.98418500848E+02  0.15330821082E+03  0.32189830655E+03  0.26411766924E+03 0.  0.
         25    1    3    3    0    0 -0.25899184123E+02 -0.98418500848E+02 -0.59753050600E+01  0.16136970415E+03  0.12509000000E+03 0.  0.
         25    1    4    4    0    0 -0.11738010891E+02  0.11551099144E+02  0.67924171198E+02  0.14329134630E+03  0.12509000000E+03 0.  0.
         25    1    4    4    0    0  0.37637195014E+02  0.86867401704E+02  0.85384039622E+02  0.17860696025E+03  0.12509000000E+03 0.  0.
<mgrwt>
<rscale>  2 0.46026187E+03</rscale>
<asrwt>0</asrwt>
<pdfrwt beam="1">  1       21 0.46367714E-01 0.46026187E+03</pdfrwt>
<pdfrwt beam="2">  1       21 0.24701111E-01 0.46026187E+03</pdfrwt>
<totfact> 0.63758150E+04</totfact>
</mgrwt>
</event>
<event>
 7    0  0.4712189E-002  0.4524798E+03  0.7546771E-02  0.1026985E+00
         21   -1    0    0  502  501  0.00000000000E+00  0.00000000000E+00  0.77819263489E+02  0.77819263489E+02  0.00000000000E+00 0.  1.
         21   -1    0    0  501  502 -0.00000000000E+00 -0.00000000000E+00 -0.65773562387E+03  0.65773562387E+03  0.00000000000E+00 0.  1.
      99926    2    1    2    0    0  0.14210854715E-13  0.00000000000E+00 -0.57991636038E+03  0.73555488736E+03  0.45247984185E+03 0.  0.
      99925    2    3    3    0    0  0.93674787889E+02 -0.19663342723E+02 -0.27249232585E+03  0.39012955818E+03  0.26227350530E+03 0.  0.
         25    1    4    4    0    0  0.18795217793E+02 -0.34970998196E+02 -0.14801850878E+03  0.19782117674E+03  0.12509000000E+03 0.  0.
         25    1    4    4    0    0  0.74879570096E+02  0.15307655473E+02 -0.12447381707E+03  0.19230838144E+03  0.12509000000E+03 0.  0.
         25    1    3    3    0    0 -0.93674787889E+02  0.19663342723E+02 -0.30742403453E+03  0.34542532918E+03  0.12509000000E+03 0.  0.
<mgrwt>
<rscale>  2 0.45247984E+03</rscale>
<asrwt>0</asrwt>
<pdfrwt beam="1">  1       21 0.11444010E-01 0.45247984E+03</pdfrwt>
<pdfrwt beam="2">  1       21 0.96725823E-01 0.45247984E+03</pdfrwt>
<totfact> 0.52038190E+04</totfact>
</mgrwt>
</event>
<event>
 7    0  0.4712189E-002  0.4540397E+03  0.7546771E-02  0.1026524E+00
         21   -1    0    0  502  501  0.00000000000E+00  0.00000000000E+00  0.77578024097E+02  0.77578024097E+02  0.00000000000E+00 0. -1.
         21   -1    0    0  501  502 -0.00000000000E+00 -0.00000000000E+00 -0.66433767127E+03  0.66433767127E+03  0.00000000000E+00 0. -1.
      99926    2    1    2    0    0  0.00000000000E+00  0.00000000000E+00 -0.58675964717E+03  0.74191569537E+03  0.45403966289E+03 0.  0.
      99925    2    3    3    0    0 -0.40910041180E+02 -0.79618619051E+02 -0.25881433654E+03  0.37968870737E+03  0.26299410209E+03 0.  0.
         25    1    4    4    0    0 -0.53314551115E+02 -0.16482424186E+02 -0.12106386941E+03  0.18280612748E+03  0.12509000000E+03 0.  0.
         25    1    4    4    0    0  0.12404509934E+02 -0.63136194865E+02 -0.13775046712E+03  0.19688257988E+03  0.12509000000E+03 0.  0.
         25    1    3    3    0    0  0.40910041180E+02  0.79618619051E+02 -0.32794531063E+03  0.36222698800E+03  0.12509000000E+03 0.  0.
<mgrwt>
<rscale>  2 0.45403966E+03</rscale>
<asrwt>0</asrwt>
<pdfrwt beam="1">  1       21 0.11408532E-01 0.45403966E+03</pdfrwt>
<pdfrwt beam="2">  1       21 0.97696722E-01 0.45403966E+03</pdfrwt>
<totfact> 0.51070034E+04</totfact>
</mgrwt>
</event>
<event>
 7    0  0.4712189E-002  0.4599080E+03  0.7546771E-02  0.1024808E+00
         21   -1    0    0  502  501  0.00000000000E+00  0.00000000000E+00  0.23927866569E+03  0.23927866569E+03  0.00000000000E+00 0.  1.
         21   -1    0    0  501  502 -0.00000000000E+00 -0.00000000000E+00 -0.22099268877E+03  0.22099268877E+03  0.00000000000E+00 0.  1.
      99926    2    1    2    0    0  0.00000000000E+00  0.71054273576E-14  0.18285976916E+02  0.46027135446E+03  0.45990797208E+03 0.  0.
      99925    2    3    3    0    0 -0.30050971797E+02 -0.56355361199E+02  0.11039756851E+03  0.29230992719E+03  0.26301802745E+03 0.  0.
         25    1    4    4    0    0 -0.99475855671E+01 -0.86772419665E+01  0.91685511509E+02  0.15565342948E+03  0.12509000000E+03 0.  0.
         25    1    4    4    0    0 -0.20103386230E+02 -0.47678119232E+02  0.18712057003E+02  0.13665649772E+03  0.12509000000E+03 0.  0.
         25    1    3    3    0    0  0.30050971797E+02  0.56355361199E+02 -0.92111591596E+02  0.16796142726E+03  0.12509000000E+03 0.  0.
<mgrwt>
<rscale>  2 0.45990797E+03</rscale>
<asrwt>0</asrwt>
<pdfrwt beam="1">  1       21 0.35188039E-01 0.45990797E+03</pdfrwt>
<pdfrwt beam="2">  1       21 0.32498925E-01 0.45990797E+03</pdfrwt>
<totfact> 0.65556293E+04</totfact>
</mgrwt>
</event>
<event>
 7    0  0.4712189E-002  0.4585332E+03  0.7546771E-02  0.1025207E+00
         21   -1    0    0  502  501  0.00000000000E+00  0.00000000000E+00  0.26747932364E+03  0.26747932364E+03  0.00000000000E+00 0.  1.
         21   -1    0    0  501  502 -0.00000000000E+00 -0.00000000000E+00 -0.19651305685E+03  0.19651305685E+03  0.00000000000E+00 0.  1.
      99926    2    1    2    0    0  0.00000000000E+00 -0.71054273576E-14  0.70966266793E+02  0.46399238050E+03  0.45853322468E+03 0.  0.
      99925    2    3    3    0    0 -0.53162141004E+02 -0.35058572296E+02 -0.53984410543E+02  0.27606820272E+03  0.26314258348E+03 0.  0.
         25    1    3    3    0    0  0.53162141004E+02  0.35058572296E+02  0.12495067734E+03  0.18792417778E+03  0.12509000000E+03 0.  0.
         25    1    4    4    0    0 -0.60868133653E+02  0.35684990431E+01 -0.19972023743E+02  0.14058468520E+03  0.12509000000E+03 0.  0.
         25    1    4    4    0    0  0.77059926488E+01 -0.38627071339E+02 -0.34012386800E+02  0.13548351752E+03  0.12509000000E+03 0.  0.
<mgrwt>
<rscale>  2 0.45853322E+03</rscale>
<asrwt>0</asrwt>
<pdfrwt beam="1">  1       21 0.39335195E-01 0.45853322E+03</pdfrwt>
<pdfrwt beam="2">  1       21 0.28898979E-01 0.45853322E+03</pdfrwt>
<totfact> 0.66010943E+04</totfact>
</mgrwt>
</event>
<event>
 7    0  0.4712189E-002  0.4532734E+03  0.7546771E-02  0.1026750E+00
         21   -1    0    0  502  501  0.00000000000E+00  0.00000000000E+00  0.48021622383E+03  0.48021622383E+03  0.00000000000E+00 0.  1.
         21   -1    0    0  501  502 -0.00000000000E+00 -0.00000000000E+00 -0.10696057581E+03  0.10696057581E+03  0.00000000000E+00 0.  1.
      99926    2    1    2    0    0  0.00000000000E+00 -0.88817841970E-15  0.37325564802E+03  0.58717679963E+03  0.45327344424E+03 0.  0.
      99925    2    3    3    0    0  0.25822967419E+02  0.76325214254E+01  0.37546058839E+03  0.45920238465E+03  0.26300398400E+03 0.  0.
         25    1    4    4    0    0 -0.12802458589E+02  0.31772051120E+02  0.21020494425E+03  0.24699593694E+03  0.12509000000E+03 0.  0.
         25    1    3    3    0    0 -0.25822967419E+02 -0.76325214254E+01 -0.22049403725E+01  0.12797441499E+03  0.12509000000E+03 0.  0.
         25    1    4    4    0    0  0.38625426008E+02 -0.24139529694E+02  0.16525564414E+03  0.21220644771E+03  0.12509000000E+03 0.  0.
<mgrwt>
<rscale>  2 0.45327344E+03</rscale>
<asrwt>0</asrwt>
<pdfrwt beam="1">  1       21 0.70620032E-01 0.45327344E+03</pdfrwt>
<pdfrwt beam="2">  1       21 0.15729497E-01 0.45327344E+03</pdfrwt>
<totfact> 0.60293201E+04</totfact>
</mgrwt>
</event>
<event>
 7    0  0.4712189E-002  0.4663808E+03  0.7546771E-02  0.1022947E+00
         21   -1    0    0  502  501  0.00000000000E+00  0.00000000000E+00  0.15658807260E+03  0.15658807260E+03  0.00000000000E+00 0. -1.
         21   -1    0    0  501  502 -0.00000000000E+00 -0.00000000000E+00 -0.34726626308E+03  0.34726626308E+03  0.00000000000E+00 0. -1.
      99926    2    1    2    0    0  0.71054273576E-14  0.00000000000E+00 -0.19067819048E+03  0.50385433567E+03  0.46638076638E+03 0.  0.
      99925    2    3    3    0    0 -0.49290035743E+02 -0.11302175178E+03 -0.12702300164E+03  0.31703111665E+03  0.26300277941E+03 0.  0.
         25    1    3    3    0    0  0.49290035743E+02  0.11302175178E+03 -0.63655188834E+02  0.18682321902E+03  0.12509000000E+03 0.  0.
         25    1    4    4    0    0  0.33055656872E+01 -0.32962566297E+02 -0.32959306957E+02  0.13353382177E+03  0.12509000000E+03 0.  0.
         25    1    4    4    0    0 -0.52595601430E+02 -0.80059185487E+02 -0.94063694688E+02  0.18349729488E+03  0.12509000000E+03 0.  0.
<mgrwt>
<rscale>  2 0.46638077E+03</rscale>
<asrwt>0</asrwt>
<pdfrwt beam="1">  1       21 0.23027658E-01 0.46638077E+03</pdfrwt>
<pdfrwt beam="2">  1       21 0.51068568E-01 0.46638077E+03</pdfrwt>
<totfact> 0.59445885E+04</totfact>
</mgrwt>
</event>
<event>
 7    0  0.4712189E-002  0.4588676E+03  0.7546771E-02  0.1025110E+00
         21   -1    0    0  502  501  0.00000000000E+00  0.00000000000E+00  0.26978398984E+03  0.26978398984E+03  0.00000000000E+00 0.  1.
         21   -1    0    0  501  502 -0.00000000000E+00 -0.00000000000E+00 -0.19511858613E+03  0.19511858613E+03  0.00000000000E+00 0.  1.
      99926    2    1    2    0    0  0.35527136788E-14  0.00000000000E+00  0.74665403708E+02  0.46490257596E+03  0.45886760904E+03 0.  0.
      99925    2    3    3    0    0 -0.23717500459E+02  0.31540736341E+02 -0.64470120202E+02  0.27368662477E+03  0.26304112664E+03 0.  0.
         25    1    4    4    0    0 -0.26759246231E+02 -0.22126002326E+02 -0.32926265436E+02  0.13393007240E+03  0.12509000000E+03 0.  0.
         25    1    4    4    0    0  0.30417457720E+01  0.53666738667E+02 -0.31543854766E+02  0.13975655237E+03  0.12509000000E+03 0.  0.
         25    1    3    3    0    0  0.23717500459E+02 -0.31540736341E+02  0.13913552391E+03  0.19121595119E+03  0.12509000000E+03 0.  0.
<mgrwt>
<rscale>  2 0.45886761E+03</rscale>
<asrwt>0</asrwt>
<pdfrwt beam="1">  1       21 0.39674116E-01 0.45886761E+03</pdfrwt>
<pdfrwt beam="2">  1       21 0.28693910E-01 0.45886761E+03</pdfrwt>
<totfact> 0.65771780E+04</totfact>
</mgrwt>
</event>
<event>
 7    0  0.4712189E-002  0.4472924E+03  0.7546771E-02  0.1028533E+00
         21   -1    0    0  502  501  0.00000000000E+00  0.00000000000E+00  0.19850903270E+03  0.19850903270E+03  0.00000000000E+00 0. -1.
         21   -1    0    0  501  502 -0.00000000000E+00 -0.00000000000E+00 -0.25196643413E+03  0.25196643413E+03  0.00000000000E+00 0. -1.
      99926    2    1    2    0    0  0.00000000000E+00  0.00000000000E+00 -0.53457401428E+02  0.45047546683E+03  0.44729235680E+03 0.  0.
      99925    2    3    3    0    0  0.40745170140E+02  0.63991627002E+02 -0.10813903374E+03  0.29429388588E+03  0.26298240137E+03 0.  0.
         25    1    4    4    0    0  0.52085819985E+02  0.23792707111E+02 -0.29343409008E+02  0.14066829532E+03  0.12509000000E+03 0.  0.
         25    1    4    4    0    0 -0.11340649845E+02  0.40198919892E+02 -0.78795624732E+02  0.15362559056E+03  0.12509000000E+03 0.  0.
         25    1    3    3    0    0 -0.40745170140E+02 -0.63991627002E+02  0.54681632312E+02  0.15618158095E+03  0.12509000000E+03 0.  0.
<mgrwt>
<rscale>  2 0.44729236E+03</rscale>
<asrwt>0</asrwt>
<pdfrwt beam="1">  1       21 0.29192505E-01 0.44729236E+03</pdfrwt>
<pdfrwt beam="2">  1       21 0.37053887E-01 0.44729236E+03</pdfrwt>
<totfact> 0.73282253E+04</totfact>
</mgrwt>
</event>
<event>
 7    0  0.4712189E-002  0.4531887E+03  0.7546771E-02  0.1026775E+00
         21   -1    0    0  502  501  0.00000000000E+00  0.00000000000E+00  0.22531003481E+03  0.22531003481E+03  0.00000000000E+00 0.  1.
         21   -1    0    0  501  502 -0.00000000000E+00 -0.00000000000E+00 -0.22788603129E+03  0.22788603129E+03  0.00000000000E+00 0.  1.
      99926    2    1    2    0    0  0.00000000000E+00  0.00000000000E+00 -0.25759964747E+01  0.45319606610E+03  0.45318874497E+03 0.  0.
      99925    2    3    3    0    0 -0.49106111114E+02 -0.66756638971E+02 -0.76067238281E+02  0.28611426064E+03  0.26307277777E+03 0.  0.
         25    1    4    4    0    0  0.11924890512E+02 -0.36211050999E+02 -0.17041755439E+02  0.13187635405E+03  0.12509000000E+03 0.  0.
         25    1    4    4    0    0 -0.61031001626E+02 -0.30545587972E+02 -0.59025482842E+02  0.15423790659E+03  0.12509000000E+03 0.  0.
         25    1    3    3    0    0  0.49106111114E+02  0.66756638971E+02  0.73491241806E+02  0.16708180547E+03  0.12509000000E+03 0.  0.
<mgrwt>
<rscale>  2 0.45318874E+03</rscale>
<asrwt>0</asrwt>
<pdfrwt beam="1">  1       21 0.33133829E-01 0.45318874E+03</pdfrwt>
<pdfrwt beam="2">  1       21 0.33512652E-01 0.45318874E+03</pdfrwt>
<totfact> 0.69679722E+04</totfact>
</mgrwt>
</event>
<event>
 7    0  0.4712189E-002  0.4429178E+03  0.7546771E-02  0.1029855E+00
         21   -1    0    0  502  501  0.00000000000E+00  0.00000000000E+00  0.21297996725E+03  0.21297996725E+03  0.00000000000E+00 0.  1.
         21   -1    0    0  501  502 -0.00000000000E+00 -0.00000000000E+00 -0.23027534926E+03  0.23027534926E+03  0.00000000000E+00 0.  1.
      99926    2    1    2    0    0  0.00000000000E+00  0.00000000000E+00 -0.17295382006E+02  0.44325531651E+03  0.44291776367E+03 0.  0.
      99925    2    3    3    0    0 -0.73781362156E+02 -0.48301435478E+02 -0.61011886757E+02  0.28408446818E+03  0.26306808370E+03 0.  0.
         25    1    4    4    0    0 -0.59820609727E+02 -0.11962560429E+02 -0.63680227091E+02  0.15304995140E+03  0.12509000000E+03 0.  0.
         25    1    3    3    0    0  0.73781362156E+02  0.48301435478E+02  0.43716504751E+02  0.15917084833E+03  0.12509000000E+03 0.  0.
         25    1    4    4    0    0 -0.13960752429E+02 -0.36338875049E+02  0.26683403338E+01  0.13103451678E+03  0.12509000000E+03 0.  0.
<mgrwt>
<rscale>  2 0.44291776E+03</rscale>
<asrwt>0</asrwt>
<pdfrwt beam="1">  1       21 0.31320583E-01 0.44291776E+03</pdfrwt>
<pdfrwt beam="2">  1       21 0.33864022E-01 0.44291776E+03</pdfrwt>
<totfact> 0.76530881E+04</totfact>
</mgrwt>
</event>
<event>
 7    0  0.4712189E-002  0.4614822E+03  0.7546771E-02  0.1024352E+00
         21   -1    0    0  502  501  0.00000000000E+00  0.00000000000E+00  0.73003840322E+03  0.73003840322E+03  0.00000000000E+00 0.  1.
         21   -1    0    0  501  502 -0.00000000000E+00 -0.00000000000E+00 -0.72929648904E+02  0.72929648904E+02  0.00000000000E+00 0.  1.
      99926    2    1    2    0    0  0.00000000000E+00  0.00000000000E+00  0.65710875431E+03  0.80296805212E+03  0.46148215321E+03 0.  0.
      99925    2    3    3    0    0 -0.46453919523E+02 -0.19084729732E+02  0.59920468525E+03  0.65626228242E+03  0.26289110856E+03 0.  0.
         25    1    3    3    0    0  0.46453919523E+02  0.19084729732E+02  0.57904069063E+02  0.14670576970E+03  0.12509000000E+03 0.  0.
         25    1    4    4    0    0 -0.29187961677E+02 -0.46977731984E+02  0.27259945081E+03  0.30498657854E+03  0.12509000000E+03 0.  0.
         25    1    4    4    0    0 -0.17265957846E+02  0.27893002253E+02  0.32660523444E+03  0.35127570388E+03  0.12509000000E+03 0.  0.
<mgrwt>
<rscale>  2 0.46148215E+03</rscale>
<asrwt>0</asrwt>
<pdfrwt beam="1">  1       21 0.10735858E+00 0.46148215E+03</pdfrwt>
<pdfrwt beam="2">  1       21 0.10724949E-01 0.46148215E+03</pdfrwt>
<totfact> 0.45274202E+04</totfact>
</mgrwt>
</event>
<event>
 7    0  0.4712189E-002  0.4516878E+03  0.7546771E-02  0.1027220E+00
         21   -1    0    0  502  501  0.00000000000E+00  0.00000000000E+00  0.21554030557E+02  0.21554030557E+02  0.00000000000E+00 0.  1.
         21   -1    0    0  501  502 -0.00000000000E+00 -0.00000000000E+00 -0.23664000428E+04  0.23664000428E+04  0.00000000000E+00 0.  1.
      99926    2    1    2    0    0  0.00000000000E+00  0.00000000000E+00 -0.23448460122E+04  0.23879540734E+04  0.45168776310E+03 0.  0.
      99925    2    3    3    0    0  0.20547044361E+02 -0.10758865371E+03 -0.14228957007E+04  0.14511310460E+04  0.26296699090E+03 0.  0.
         25    1    4    4    0    0  0.15627877413E+02 -0.34527355175E+02 -0.85984911723E+03  0.86972661297E+03  0.12509000000E+03 0.  0.
         25    1    3    3    0    0 -0.20547044361E+02  0.10758865371E+03 -0.92195031157E+03  0.93682302734E+03  0.12509000000E+03 0.  0.
         25    1    4    4    0    0  0.49191669478E+01 -0.73061298536E+02 -0.56304658344E+03  0.58140443305E+03  0.12509000000E+03 0.  0.
<mgrwt>
<rscale>  2 0.45168776E+03</rscale>
<asrwt>0</asrwt>
<pdfrwt beam="1">  1       21 0.31697088E-02 0.45168776E+03</pdfrwt>
<pdfrwt beam="2">  1       21 0.34800018E+00 0.45168776E+03</pdfrwt>
<totfact> 0.85654843E+03</totfact>
</mgrwt>
</event>
<event>
 7    0  0.4712189E-002  0.4560462E+03  0.7546771E-02  0.1025934E+00
         21   -1    0    0  502  501  0.00000000000E+00  0.00000000000E+00  0.94475515819E+03  0.94475515819E+03  0.00000000000E+00 0.  1.
         21   -1    0    0  501  502 -0.00000000000E+00 -0.00000000000E+00 -0.55034918843E+02  0.55034918843E+02  0.00000000000E+00 0.  1.
      99926    2    1    2    0    0  0.00000000000E+00  0.00000000000E+00  0.88972023935E+03  0.99979007704E+03  0.45604615318E+03 0.  0.
      99925    2    3    3    0    0 -0.37992075371E+02 -0.10698421023E+03  0.53218510290E+03  0.60435626346E+03  0.26293818740E+03 0.  0.
         25    1    3    3    0    0  0.37992075371E+02  0.10698421023E+03  0.35753513645E+03  0.39543381358E+03  0.12509000000E+03 0.  0.
         25    1    4    4    0    0 -0.53143466062E+02 -0.79120589541E+02  0.28479392143E+03  0.32532965044E+03  0.12509000000E+03 0.  0.
         25    1    4    4    0    0  0.15151390690E+02 -0.27863620688E+02  0.24739118147E+03  0.27902661301E+03  0.12509000000E+03 0.  0.
<mgrwt>
<rscale>  2 0.45604615E+03</rscale>
<asrwt>0</asrwt>
<pdfrwt beam="1">  1       21 0.13893457E+00 0.45604615E+03</pdfrwt>
<pdfrwt beam="2">  1       21 0.80933710E-02 0.45604615E+03</pdfrwt>
<totfact> 0.38856526E+04</totfact>
</mgrwt>
</event>
<event>
 7    0  0.4712189E-002  0.4824823E+03  0.7546771E-02  0.1018455E+00
         21   -1    0    0  502  501  0.00000000000E+00  0.00000000000E+00  0.15456261218E+03  0.15456261218E+03  0.00000000000E+00 0. -1.
         21   -1    0    0  501  502 -0.00000000000E+00 -0.00000000000E+00 -0.37652897250E+03  0.37652897250E+03  0.00000000000E+00 0. -1.
      99926    2    1    2    0    0  0.00000000000E+00  0.00000000000E+00 -0.22196636032E+03  0.53109158468E+03  0.48248233771E+03 0.  0.
      99925    2    3    3    0    0  0.97962128944E+02 -0.54990942273E+02 -0.49359661897E+02  0.29013274404E+03  0.26290692365E+03 0.  0.
         25    1    4    4    0    0  0.36709818001E+02 -0.63879718834E+02 -0.38233340035E+02  0.15012503324E+03  0.12509000000E+03 0.  0.
         25    1    4    4    0    0  0.61252310943E+02  0.88887765611E+01 -0.11126321863E+02  0.14000771080E+03  0.12509000000E+03 0.  0.
         25    1    3    3    0    0 -0.97962128944E+02  0.54990942273E+02 -0.17260669843E+03  0.24095884064E+03  0.12509000000E+03 0.  0.
<mgrwt>
<rscale>  2 0.48248234E+03</rscale>
<asrwt>0</asrwt>
<pdfrwt beam="1">  1       21 0.22729796E-01 0.48248234E+03</pdfrwt>
<pdfrwt beam="2">  1       21 0.55371907E-01 0.48248234E+03</pdfrwt>
<totfact> 0.51060715E+04</totfact>
</mgrwt>
</event>
<event>
 7    0  0.4712189E-002  0.4421955E+03  0.7546771E-02  0.1030075E+00
         21   -1    0    0  502  501  0.00000000000E+00  0.00000000000E+00  0.67482046488E+02  0.67482046488E+02  0.00000000000E+00 0. -1.
         21   -1    0    0  501  502 -0.00000000000E+00 -0.00000000000E+00 -0.72440310632E+03  0.72440310632E+03  0.00000000000E+00 0. -1.
      99926    2    1    2    0    0  0.14210854715E-13  0.00000000000E+00 -0.65692105984E+03  0.79188515281E+03  0.44219545044E+03 0.  0.
      99925    2    3    3    0    0  0.75553119809E+02  0.63783412917E+02 -0.38397894054E+03  0.47578152066E+03  0.26296697691E+03 0.  0.
         25    1    4    4    0    0  0.44566237459E+02 -0.69123630009E+01 -0.20228942385E+03  0.24207942784E+03  0.12509000000E+03 0.  0.
         25    1    4    4    0    0  0.30986882349E+02  0.70695775918E+02 -0.18168951669E+03  0.23370209282E+03  0.12509000000E+03 0.  0.
         25    1    3    3    0    0 -0.75553119809E+02 -0.63783412917E+02 -0.27294211929E+03  0.31610363215E+03  0.12509000000E+03 0.  0.
<mgrwt>
<rscale>  2 0.44219545E+03</rscale>
<asrwt>0</asrwt>
<pdfrwt beam="1">  1       21 0.99238303E-02 0.44219545E+03</pdfrwt>
<pdfrwt beam="2">  1       21 0.10652987E+00 0.44219545E+03</pdfrwt>
<totfact> 0.53319691E+04</totfact>
</mgrwt>
</event>
<event>
 7    0  0.4712189E-002  0.4561091E+03  0.7546771E-02  0.1025916E+00
         21   -1    0    0  502  501  0.00000000000E+00  0.00000000000E+00  0.31814051306E+03  0.31814051306E+03  0.00000000000E+00 0.  1.
         21   -1    0    0  501  502 -0.00000000000E+00 -0.00000000000E+00 -0.16347767879E+03  0.16347767879E+03  0.00000000000E+00 0.  1.
      99926    2    1    2    0    0  0.35527136788E-14  0.00000000000E+00  0.15466283427E+03  0.48161819186E+03  0.45610907733E+03 0.  0.
      99925    2    3    3    0    0  0.18851073984E+02 -0.82546317341E+02  0.17829418705E+03  0.32872866824E+03  0.26287727686E+03 0.  0.
         25    1    4    4    0    0 -0.25314926549E+02 -0.30230729829E+02  0.10717159256E+03  0.16937532549E+03  0.12509000000E+03 0.  0.
         25    1    3    3    0    0 -0.18851073984E+02  0.82546317341E+02 -0.23631352783E+02  0.15288952362E+03  0.12509000000E+03 0.  0.
         25    1    4    4    0    0  0.44166000534E+02 -0.52315587512E+02  0.71122594489E+02  0.15935334275E+03  0.12509000000E+03 0.  0.
<mgrwt>
<rscale>  2 0.45610908E+03</rscale>
<asrwt>0</asrwt>
<pdfrwt beam="1">  1       21 0.46785370E-01 0.45610908E+03</pdfrwt>
<pdfrwt beam="2">  1       21 0.24040835E-01 0.45610908E+03</pdfrwt>
<totfact> 0.65999551E+04</totfact>
</mgrwt>
</event>
<event>
 7    0  0.4712189E-002  0.4563434E+03  0.7546771E-02  0.1025847E+00
         21   -1    0    0  502  501  0.00000000000E+00  0.00000000000E+00  0.33072564780E+02  0.33072564780E+02  0.00000000000E+00 0.  1.
         21   -1    0    0  501  502 -0.00000000000E+00 -0.00000000000E+00 -0.15741849333E+04  0.15741849333E+04  0.00000000000E+00 0.  1.
      99926    2    1    2    0    0 -0.17763568394E-14  0.00000000000E+00 -0.15411123686E+04  0.16072574981E+04  0.45634343726E+03 0.  0.
      99925    2    3    3    0    0 -0.13483451294E+02  0.43343242206E+02 -0.13384194764E+04  0.13647861458E+04  0.26308570582E+03 0.  0.
         25    1    4    4    0    0 -0.36321360103E+02  0.35367251429E+02 -0.81382641469E+03  0.82494304350E+03  0.12509000000E+03 0.  0.
         25    1    4    4    0    0  0.22837908809E+02  0.79759907766E+01 -0.52459306176E+03  0.53984310225E+03  0.12509000000E+03 0.  0.
         25    1    3    3    0    0  0.13483451294E+02 -0.43343242206E+02 -0.20269289211E+03  0.24247135236E+03  0.12509000000E+03 0.  0.
<mgrwt>
<rscale>  2 0.45634344E+03</rscale>
<asrwt>0</asrwt>
<pdfrwt beam="1">  1       21 0.48636109E-02 0.45634344E+03</pdfrwt>
<pdfrwt beam="2">  1       21 0.23149786E+00 0.45634344E+03</pdfrwt>
<totfact> 0.21045873E+04</totfact>
</mgrwt>
</event>
<event>
 7    0  0.4712189E-002  0.4419639E+03  0.7546771E-02  0.1030146E+00
         21   -1    0    0  502  501  0.00000000000E+00  0.00000000000E+00  0.19495417348E+04  0.19495417348E+04  0.00000000000E+00 0.  1.
         21   -1    0    0  501  502 -0.00000000000E+00 -0.00000000000E+00 -0.25048456775E+02  0.25048456775E+02  0.00000000000E+00 0.  1.
      99926    2    1    2    0    0 -0.17763568394E-14  0.14210854715E-13  0.19244932780E+04  0.19745901916E+04  0.44196385316E+03 0.  0.
      99925    2    3    3    0    0  0.99270625122E+01 -0.99134017689E+02  0.11671619145E+04  0.12005589246E+04  0.26296139765E+03 0.  0.
         25    1    3    3    0    0 -0.99270625122E+01  0.99134017689E+02  0.75733136354E+03  0.77403126703E+03  0.12509000000E+03 0.  0.
         25    1    4    4    0    0  0.79708696667E+01 -0.82842790856E+02  0.74268154017E+03  0.75772675878E+03  0.12509000000E+03 0.  0.
         25    1    4    4    0    0  0.19561928455E+01 -0.16291226832E+02  0.42448037433E+03  0.44283216578E+03  0.12509000000E+03 0.  0.
<mgrwt>
<rscale>  2 0.44196385E+03</rscale>
<asrwt>0</asrwt>
<pdfrwt beam="1">  1       21 0.28669721E+00 0.44196385E+03</pdfrwt>
<pdfrwt beam="2">  1       21 0.36835979E-02 0.44196385E+03</pdfrwt>
<totfact> 0.15654242E+04</totfact>
</mgrwt>
</event>
<event>
 7    0  0.4712189E-002  0.4520003E+03  0.7546771E-02  0.1027127E+00
         21   -1    0    0  502  501  0.00000000000E+00  0.00000000000E+00  0.23135319901E+03  0.23135319901E+03  0.00000000000E+00 0.  1.
         21   -1    0    0  501  502 -0.00000000000E+00 -0.00000000000E+00 -0.22077100374E+03  0.22077100374E+03  0.00000000000E+00 0.  1.
      99926    2    1    2    0    0  0.00000000000E+00  0.00000000000E+00  0.10582195267E+02  0.45212420276E+03  0.45200034498E+03 0.  0.
      99925    2    3    3    0    0  0.94270855629E+02 -0.28974973187E+02 -0.42772797110E+02  0.28413370718E+03  0.26301313292E+03 0.  0.
         25    1    4    4    0    0  0.46276656600E+02  0.21885470170E+02 -0.39397092592E+02  0.14078402521E+03  0.12509000000E+03 0.  0.
         25    1    3    3    0    0 -0.94270855629E+02  0.28974973187E+02  0.53354992378E+02  0.16799049558E+03  0.12509000000E+03 0.  0.
         25    1    4    4    0    0  0.47994199029E+02 -0.50860443357E+02 -0.33757045186E+01  0.14334968197E+03  0.12509000000E+03 0.  0.
<mgrwt>
<rscale>  2 0.45200034E+03</rscale>
<asrwt>0</asrwt>
<pdfrwt beam="1">  1       21 0.34022529E-01 0.45200034E+03</pdfrwt>
<pdfrwt beam="2">  1       21 0.32466324E-01 0.45200034E+03</pdfrwt>
<totfact> 0.70427576E+04</totfact>
</mgrwt>
</event>
<event>
 7    0  0.4712189E-002  0.4532717E+03  0.7546771E-02  0.1026751E+00
         21   -1    0    0  502  501  0.00000000000E+00  0.00000000000E+00  0.16028977182E+04  0.16028977182E+04  0.00000000000E+00 0. -1.
         21   -1    0    0  501  502 -0.00000000000E+00 -0.00000000000E+00 -0.32044339694E+02  0.32044339694E+02  0.00000000000E+00 0. -1.
      99926    2    1    2    0    0  0.00000000000E+00  0.00000000000E+00  0.15708533785E+04  0.16349420578E+04  0.45327165795E+03 0.  0.
      99925    2    3    3    0    0 -0.88398078816E+02 -0.67816058253E+02  0.10071537404E+04  0.10468791121E+04  0.26302847847E+03 0.  0.
         25    1    4    4    0    0 -0.47063424148E+02 -0.61302388022E+02  0.41700455555E+03  0.44216880953E+03  0.12509000000E+03 0.  0.
         25    1    4    4    0    0 -0.41334654668E+02 -0.65136702315E+01  0.59014918480E+03  0.60471030254E+03  0.12509000000E+03 0.  0.
         25    1    3    3    0    0  0.88398078816E+02  0.67816058253E+02  0.56369963811E+03  0.58806294578E+03  0.12509000000E+03 0.  0.
<mgrwt>
<rscale>  2 0.45327166E+03</rscale>
<asrwt>0</asrwt>
<pdfrwt beam="1">  1       21 0.23572020E+00 0.45327166E+03</pdfrwt>
<pdfrwt beam="2">  1       21 0.47124040E-02 0.45327166E+03</pdfrwt>
<totfact> 0.20931052E+04</totfact>
</mgrwt>
</event>
<event>
 7    0  0.4712189E-002  0.4593549E+03  0.7546771E-02  0.1024968E+00
         21   -1    0    0  502  501  0.00000000000E+00  0.00000000000E+00  0.46409481972E+03  0.46409481972E+03  0.00000000000E+00 0.  1.
         21   -1    0    0  501  502 -0.00000000000E+00 -0.00000000000E+00 -0.11366583731E+03  0.11366583731E+03  0.00000000000E+00 0.  1.
      99926    2    1    2    0    0  0.35527136788E-14  0.00000000000E+00  0.35042898241E+03  0.57776065703E+03  0.45935487926E+03 0.  0.
      99925    2    3    3    0    0  0.27494785678E+02 -0.86600352009E+02  0.12637541463E+03  0.30554182311E+03  0.26292484865E+03 0.  0.
         25    1    4    4    0    0 -0.58317611078E+01 -0.14953235025E+02  0.32221148888E+02  0.13016650572E+03  0.12509000000E+03 0.  0.
         25    1    3    3    0    0 -0.27494785678E+02  0.86600352009E+02  0.22405356777E+03  0.27221883392E+03  0.12509000000E+03 0.  0.
         25    1    4    4    0    0  0.33326546785E+02 -0.71647116984E+02  0.94154265744E+02  0.17537531739E+03  0.12509000000E+03 0.  0.
<mgrwt>
<rscale>  2 0.45935488E+03</rscale>
<asrwt>0</asrwt>
<pdfrwt beam="1">  1       21 0.68249238E-01 0.45935488E+03</pdfrwt>
<pdfrwt beam="2">  1       21 0.16715564E-01 0.45935488E+03</pdfrwt>
<totfact> 0.58043996E+04</totfact>
</mgrwt>
</event>
<event>
 7    0  0.4712189E-002  0.4552965E+03  0.7546771E-02  0.1026154E+00
         21   -1    0    0  502  501  0.00000000000E+00  0.00000000000E+00  0.11345927247E+03  0.11345927247E+03  0.00000000000E+00 0. -1.
         21   -1    0    0  501  502 -0.00000000000E+00 -0.00000000000E+00 -0.45676064083E+03  0.45676064083E+03  0.00000000000E+00 0. -1.
      99926    2    1    2    0    0  0.00000000000E+00  0.00000000000E+00 -0.34330136836E+03  0.57021991330E+03  0.45529651878E+03 0.  0.
      99925    2    3    3    0    0  0.17932742206E+02 -0.11109400977E+03 -0.23415657497E+03  0.36966180134E+03  0.26297734412E+03 0.  0.
         25    1    3    3    0    0 -0.17932742206E+02  0.11109400977E+03 -0.10914479339E+03  0.20055811196E+03  0.12509000000E+03 0.  0.
         25    1    4    4    0    0 -0.27651626647E+02 -0.65903683184E+02 -0.13661230719E+03  0.19854052102E+03  0.12509000000E+03 0.  0.
         25    1    4    4    0    0  0.45584368853E+02 -0.45190326583E+02 -0.97544267786E+02  0.17112128032E+03  0.12509000000E+03 0.  0.
<mgrwt>
<rscale>  2 0.45529652E+03</rscale>
<asrwt>0</asrwt>
<pdfrwt beam="1">  1       21 0.16685188E-01 0.45529652E+03</pdfrwt>
<pdfrwt beam="2">  1       21 0.67170681E-01 0.45529652E+03</pdfrwt>
<totfact> 0.60408037E+04</totfact>
</mgrwt>
</event>
<event>
 7    0  0.4712189E-002  0.4596095E+03  0.7546771E-02  0.1024895E+00
         21   -1    0    0  502  501  0.00000000000E+00  0.00000000000E+00  0.51135804923E+03  0.51135804923E+03  0.00000000000E+00 0.  1.
         21   -1    0    0  501  502 -0.00000000000E+00 -0.00000000000E+00 -0.10327445002E+03  0.10327445002E+03  0.00000000000E+00 0.  1.
      99926    2    1    2    0    0  0.00000000000E+00  0.00000000000E+00  0.40808359921E+03  0.61463249924E+03  0.45960949205E+03 0.  0.
      99925    2    3    3    0    0  0.23871354223E+02  0.10627469071E+03  0.19670709279E+03  0.34594739172E+03  0.26291018627E+03 0.  0.
         25    1    4    4    0    0  0.28815645485E+01  0.45507181264E+02  0.48687093613E+02  0.14176441071E+03  0.12509000000E+03 0.  0.
         25    1    4    4    0    0  0.20989789674E+02  0.60767509448E+02  0.14801999918E+03  0.20418298100E+03  0.12509000000E+03 0.  0.
         25    1    3    3    0    0 -0.23871354223E+02 -0.10627469071E+03  0.21137650642E+03  0.26868510753E+03  0.12509000000E+03 0.  0.
<mgrwt>
<rscale>  2 0.45960949E+03</rscale>
<asrwt>0</asrwt>
<pdfrwt beam="1">  1       21 0.75199712E-01 0.45960949E+03</pdfrwt>
<pdfrwt beam="2">  1       21 0.15187419E-01 0.45960949E+03</pdfrwt>
<totfact> 0.55729745E+04</totfact>
</mgrwt>
</event>
<event>
 7    0  0.4712189E-002  0.4472669E+03  0.7546771E-02  0.1028540E+00
         21   -1    0    0  502  501  0.00000000000E+00  0.00000000000E+00  0.49714343607E+02  0.49714343607E+02  0.00000000000E+00 0.  1.
         21   -1    0    0  501  502 -0.00000000000E+00 -0.00000000000E+00 -0.10059857020E+04  0.10059857020E+04  0.00000000000E+00 0.  1.
      99926    2    1    2    0    0  0.00000000000E+00  0.00000000000E+00 -0.95627135836E+03  0.10557000456E+04  0.44726689505E+03 0.  0.
      99925    2    3    3    0    0  0.77865374486E+02  0.40946003737E+02 -0.46824202225E+03  0.54427093732E+03  0.26313621956E+03 0.  0.
         25    1    3    3    0    0 -0.77865374486E+02 -0.40946003737E+02 -0.48802933610E+03  0.51142910825E+03  0.12509000000E+03 0.  0.
         25    1    4    4    0    0  0.24597570647E+00  0.13186827619E+02 -0.24532659162E+03  0.27569294075E+03  0.12509000000E+03 0.  0.
         25    1    4    4    0    0  0.77619398780E+02  0.27759176118E+02 -0.22291543063E+03  0.26857799657E+03  0.12509000000E+03 0.  0.
<mgrwt>
<rscale>  2 0.44726690E+03</rscale>
<asrwt>0</asrwt>
<pdfrwt beam="1">  1       21 0.73109336E-02 0.44726690E+03</pdfrwt>
<pdfrwt beam="2">  1       21 0.14793906E+00 0.44726690E+03</pdfrwt>
<totfact> 0.39393337E+04</totfact>
</mgrwt>
</event>
<event>
 7    0  0.4712189E-002  0.4468251E+03  0.7546771E-02  0.1028673E+00
         21   -1    0    0  502  501  0.00000000000E+00  0.00000000000E+00  0.94307566014E+03  0.94307566014E+03  0.00000000000E+00 0.  1.
         21   -1    0    0  501  502 -0.00000000000E+00 -0.00000000000E+00 -0.52925937508E+02  0.52925937508E+02  0.00000000000E+00 0.  1.
      99926    2    1    2    0    0  0.00000000000E+00  0.00000000000E+00  0.89014972263E+03  0.99600159765E+03  0.44682508190E+03 0.  0.
      99925    2    3    3    0    0 -0.93787541597E+02  0.43249599724E+02  0.61019444381E+03  0.67244465200E+03  0.26301695747E+03 0.  0.
         25    1    4    4    0    0 -0.14706060011E+02  0.42187830146E+02  0.25158334295E+03  0.28449563751E+03  0.12509000000E+03 0.  0.
         25    1    3    3    0    0  0.93787541597E+02 -0.43249599724E+02  0.27995527882E+03  0.32355694565E+03  0.12509000000E+03 0.  0.
         25    1    4    4    0    0 -0.79081481586E+02  0.10617695781E+01  0.35861110086E+03  0.38794901449E+03  0.12509000000E+03 0.  0.
<mgrwt>
<rscale>  2 0.44682508E+03</rscale>
<asrwt>0</asrwt>
<pdfrwt beam="1">  1       21 0.13868759E+00 0.44682508E+03</pdfrwt>
<pdfrwt beam="2">  1       21 0.77832267E-02 0.44682508E+03</pdfrwt>
<totfact> 0.41936921E+04</totfact>
</mgrwt>
</event>
<event>
 7    0  0.4712189E-002  0.4550734E+03  0.7546771E-02  0.1026220E+00
         21   -1    0    0  502  501  0.00000000000E+00  0.00000000000E+00  0.20938000352E+03  0.20938000352E+03  0.00000000000E+00 0.  1.
         21   -1    0    0  501  502 -0.00000000000E+00 -0.00000000000E+00 -0.24726789070E+03  0.24726789070E+03  0.00000000000E+00 0.  1.
      99926    2    1    2    0    0  0.00000000000E+00  0.00000000000E+00 -0.37887887178E+02  0.45664789422E+03  0.45507340870E+03 0.  0.
      99925    2    3    3    0    0  0.47139304189E+02  0.79066167799E+02  0.42389566706E+02  0.28181783219E+03  0.26296547736E+03 0.  0.
         25    1    3    3    0    0 -0.47139304189E+02 -0.79066167799E+02 -0.80277453884E+02  0.17483006204E+03  0.12509000000E+03 0.  0.
         25    1    4    4    0    0  0.10749141866E+02 -0.46426762366E-01  0.28692670512E+02  0.12878790179E+03  0.12509000000E+03 0.  0.
         25    1    4    4    0    0  0.36390162324E+02  0.79112594561E+02  0.13696896194E+02  0.15302993040E+03  0.12509000000E+03 0.  0.
<mgrwt>
<rscale>  2 0.45507341E+03</rscale>
<asrwt>0</asrwt>
<pdfrwt beam="1">  1       21 0.30791177E-01 0.45507341E+03</pdfrwt>
<pdfrwt beam="2">  1       21 0.36362925E-01 0.45507341E+03</pdfrwt>
<totfact> 0.68385204E+04</totfact>
</mgrwt>
</event>
<event>
 7    0  0.4712189E-002  0.4262521E+03  0.7546771E-02  0.1035050E+00
         21   -1    0    0  502  501  0.00000000000E+00  0.00000000000E+00  0.24228933729E+03  0.24228933729E+03  0.00000000000E+00 0. -1.
         21   -1    0    0  501  502 -0.00000000000E+00 -0.00000000000E+00 -0.18747304700E+03  0.18747304700E+03  0.00000000000E+00 0. -1.
      99926    2    1    2    0    0 -0.71054273576E-14  0.00000000000E+00  0.54816290285E+02  0.42976238429E+03  0.42625213345E+03 0.  0.
      99925    2    3    3    0    0  0.38683876778E+02  0.73490585063E+02  0.42042169247E+02  0.27907066360E+03  0.26308854569E+03 0.  0.
         25    1    4    4    0    0 -0.20625268471E+02  0.44565188543E+02  0.23724110689E+02  0.13646171352E+03  0.12509000000E+03 0.  0.
         25    1    3    3    0    0 -0.38683876778E+02 -0.73490585063E+02  0.12774121038E+02  0.15069172069E+03  0.12509000000E+03 0.  0.
         25    1    4    4    0    0  0.59309145248E+02  0.28925396520E+02  0.18318058558E+02  0.14260895008E+03  0.12509000000E+03 0.  0.
<mgrwt>
<rscale>  2 0.42625213E+03</rscale>
<asrwt>0</asrwt>
<pdfrwt beam="1">  1       21 0.35630785E-01 0.42625213E+03</pdfrwt>
<pdfrwt beam="2">  1       21 0.27569566E-01 0.42625213E+03</pdfrwt>
<totfact> 0.89206060E+04</totfact>
</mgrwt>
</event>
<event>
 7    0  0.4712189E-002  0.4555487E+03  0.7546771E-02  0.1026080E+00
         21   -1    0    0  502  501  0.00000000000E+00  0.00000000000E+00  0.10563720061E+03  0.10563720061E+03  0.00000000000E+00 0.  1.
         21   -1    0    0  501  502 -0.00000000000E+00 -0.00000000000E+00 -0.49112577288E+03  0.49112577288E+03  0.00000000000E+00 0.  1.
      99926    2    1    2    0    0  0.00000000000E+00  0.71054273576E-14 -0.38548857227E+03  0.59676297349E+03  0.45554868804E+03 0.  0.
      99925    2    3    3    0    0 -0.92970912027E+02  0.59285569545E+02 -0.20639355796E+03  0.35205722878E+03  0.26303540129E+03 0.  0.
         25    1    4    4    0    0 -0.46369355524E+02 -0.10669440466E+02 -0.85064302547E+02  0.15857931063E+03  0.12509000000E+03 0.  0.
         25    1    3    3    0    0  0.92970912027E+02 -0.59285569545E+02 -0.17909501432E+03  0.24470574471E+03  0.12509000000E+03 0.  0.
         25    1    4    4    0    0 -0.46601556502E+02  0.69955010011E+02 -0.12132925541E+03  0.19347791815E+03  0.12509000000E+03 0.  0.
<mgrwt>
<rscale>  2 0.45554869E+03</rscale>
<asrwt>0</asrwt>
<pdfrwt beam="1">  1       21 0.15534883E-01 0.45554869E+03</pdfrwt>
<pdfrwt beam="2">  1       21 0.72224378E-01 0.45554869E+03</pdfrwt>
<totfact> 0.58623368E+04</totfact>
</mgrwt>
</event>
<event>
 7    0  0.4712189E-002  0.4521537E+03  0.7546771E-02  0.1027082E+00
         21   -1    0    0  502  501  0.00000000000E+00  0.00000000000E+00  0.21544326420E+03  0.21544326420E+03  0.00000000000E+00 0. -1.
         21   -1    0    0  501  502 -0.00000000000E+00 -0.00000000000E+00 -0.23723528093E+03  0.23723528093E+03  0.00000000000E+00 0. -1.
      99926    2    1    2    0    0  0.00000000000E+00  0.35527136788E-14 -0.21792016734E+02  0.45267854513E+03  0.45215370531E+03 0.  0.
      99925    2    3    3    0    0 -0.26746696997E+02  0.18969393531E+02 -0.11935931883E+03  0.29068437785E+03  0.26301242717E+03 0.  0.
         25    1    4    4    0    0 -0.45198061219E+02  0.35131968765E+02 -0.60724307515E+02  0.15037310129E+03  0.12509000000E+03 0.  0.
         25    1    4    4    0    0  0.18451364222E+02 -0.16162575234E+02 -0.58635011318E+02  0.14031127657E+03  0.12509000000E+03 0.  0.
         25    1    3    3    0    0  0.26746696997E+02 -0.18969393531E+02  0.97567302099E+02  0.16199416727E+03  0.12509000000E+03 0.  0.
<mgrwt>
<rscale>  2 0.45215371E+03</rscale>
<asrwt>0</asrwt>
<pdfrwt beam="1">  1       21 0.31682833E-01 0.45215371E+03</pdfrwt>
<pdfrwt beam="2">  1       21 0.34887541E-01 0.45215371E+03</pdfrwt>
<totfact> 0.70299218E+04</totfact>
</mgrwt>
</event>
<event>
 7    0  0.4712189E-002  0.4160154E+03  0.7546771E-02  0.1038371E+00
         21   -1    0    0  502  501  0.00000000000E+00  0.00000000000E+00  0.19079699932E+04  0.19079699932E+04  0.00000000000E+00 0. -1.
         21   -1    0    0  501  502 -0.00000000000E+00 -0.00000000000E+00 -0.22677083716E+02  0.22677083716E+02  0.00000000000E+00 0. -1.
      99926    2    1    2    0    0  0.35527136788E-14  0.71054273576E-14  0.18852929095E+04  0.19306470769E+04  0.41601536156E+03 0.  0.
      99925    2    3    3    0    0  0.22270428106E+02  0.52350707736E+02  0.14284039756E+04  0.14535395686E+04  0.26306423390E+03 0.  0.
         25    1    4    4    0    0 -0.13298047653E+02 -0.22462959633E+01  0.76851442730E+03  0.77874502694E+03  0.12509000000E+03 0.  0.
         25    1    3    3    0    0 -0.22270428106E+02 -0.52350707736E+02  0.45688893386E+03  0.47710750838E+03  0.12509000000E+03 0.  0.
         25    1    4    4    0    0  0.35568475759E+02  0.54597003699E+02  0.65988954835E+03  0.67479454162E+03  0.12509000000E+03 0.  0.
<mgrwt>
<rscale>  2 0.41601536E+03</rscale>
<asrwt>0</asrwt>
<pdfrwt beam="1">  1       21 0.28058371E+00 0.41601536E+03</pdfrwt>
<pdfrwt beam="2">  1       21 0.33348666E-02 0.41601536E+03</pdfrwt>
<totfact> 0.20379732E+04</totfact>
</mgrwt>
</event>
<event>
 7    0  0.4712189E-002  0.4562691E+03  0.7546771E-02  0.1025869E+00
         21   -1    0    0  502  501  0.00000000000E+00  0.00000000000E+00  0.75125979351E+02  0.75125979351E+02  0.00000000000E+00 0. -1.
         21   -1    0    0  501  502 -0.00000000000E+00 -0.00000000000E+00 -0.69277449408E+03  0.69277449408E+03  0.00000000000E+00 0. -1.
      99926    2    1    2    0    0  0.14210854715E-13  0.71054273576E-14 -0.61764851473E+03  0.76790047343E+03  0.45626905368E+03 0.  0.
      99925    2    3    3    0    0 -0.80399151061E+02 -0.37118248792E+02 -0.51010595962E+03  0.58067147689E+03  0.26292486789E+03 0.  0.
         25    1    3    3    0    0  0.80399151061E+02  0.37118248792E+02 -0.10754255511E+03  0.18722899654E+03  0.12509000000E+03 0.  0.
         25    1    4    4    0    0  0.66018304277E+00 -0.17957526000E+02 -0.21147384331E+03  0.24635665830E+03  0.12509000000E+03 0.  0.
         25    1    4    4    0    0 -0.81059334104E+02 -0.19160722792E+02 -0.29863211631E+03  0.33431481860E+03  0.12509000000E+03 0.  0.
<mgrwt>
<rscale>  2 0.45626905E+03</rscale>
<asrwt>0</asrwt>
<pdfrwt beam="1">  1       21 0.11047939E-01 0.45626905E+03</pdfrwt>
<pdfrwt beam="2">  1       21 0.10187860E+00 0.45626905E+03</pdfrwt>
<totfact> 0.48867843E+04</totfact>
</mgrwt>
</event>
<event>
 7    0  0.4712189E-002  0.4510762E+03  0.7546771E-02  0.1027402E+00
         21   -1    0    0  502  501  0.00000000000E+00  0.00000000000E+00  0.55649946549E+03  0.55649946549E+03  0.00000000000E+00 0.  1.
         21   -1    0    0  501  502 -0.00000000000E+00 -0.00000000000E+00 -0.91406095762E+02  0.91406095762E+02  0.00000000000E+00 0.  1.
      99926    2    1    2    0    0  0.71054273576E-14  0.00000000000E+00  0.46509336973E+03  0.64790556126E+03  0.45107623938E+03 0.  0.
      99925    2    3    3    0    0 -0.48082359747E+02 -0.96002162617E+02  0.32378069585E+03  0.43077631761E+03  0.26307027248E+03 0.  0.
         25    1    3    3    0    0  0.48082359747E+02  0.96002162617E+02  0.14131267388E+03  0.21712924364E+03  0.12509000000E+03 0.  0.
         25    1    4    4    0    0 -0.33681684479E+02 -0.47910335763E+02  0.22366388832E+03  0.26287430301E+03  0.12509000000E+03 0.  0.
         25    1    4    4    0    0 -0.14400675268E+02 -0.48091826854E+02  0.10011680753E+03  0.16790201460E+03  0.12509000000E+03 0.  0.
<mgrwt>
<rscale>  2 0.45107624E+03</rscale>
<asrwt>0</asrwt>
<pdfrwt beam="1">  1       21 0.81838155E-01 0.45107624E+03</pdfrwt>
<pdfrwt beam="2">  1       21 0.13442073E-01 0.45107624E+03</pdfrwt>
<totfact> 0.57584265E+04</totfact>
</mgrwt>
</event>
<event>
 7    0  0.4712189E-002  0.4587498E+03  0.7546771E-02  0.1025144E+00
         21   -1    0    0  502  501  0.00000000000E+00  0.00000000000E+00  0.73039913826E+02  0.73039913826E+02  0.00000000000E+00 0. -1.
         21   -1    0    0  501  502 -0.00000000000E+00 -0.00000000000E+00 -0.72033007788E+03  0.72033007788E+03  0.00000000000E+00 0. -1.
      99926    2    1    2    0    0  0.00000000000E+00 -0.35527136788E-14 -0.64729016405E+03  0.79336999170E+03  0.45874980900E+03 0.  0.
      99925    2    3    3    0    0 -0.10119858753E+03  0.19114808586E+02 -0.31274962099E+03  0.42165583663E+03  0.26339094349E+03 0.  0.
         25    1    3    3    0    0  0.10119858753E+03 -0.19114808586E+02 -0.33454054306E+03  0.37171415507E+03  0.12509000000E+03 0.  0.
         25    1    4    4    0    0 -0.34624958646E+02  0.38899623164E+02 -0.11590966924E+03  0.17831048193E+03  0.12509000000E+03 0.  0.
         25    1    4    4    0    0 -0.66573628887E+02 -0.19784814578E+02 -0.19683995174E+03  0.24334535470E+03  0.12509000000E+03 0.  0.
<mgrwt>
<rscale>  2 0.45874981E+03</rscale>
<asrwt>0</asrwt>
<pdfrwt beam="1">  1       21 0.10741163E-01 0.45874981E+03</pdfrwt>
<pdfrwt beam="2">  1       21 0.10593090E+00 0.45874981E+03</pdfrwt>
<totfact> 0.46697660E+04</totfact>
</mgrwt>
</event>
<event>
 7    0  0.4712189E-002  0.4539573E+03  0.7546771E-02  0.1026548E+00
         21   -1    0    0  502  501  0.00000000000E+00  0.00000000000E+00  0.97489424460E+02  0.97489424460E+02  0.00000000000E+00 0.  1.
         21   -1    0    0  501  502 -0.00000000000E+00 -0.00000000000E+00 -0.52846050708E+03  0.52846050708E+03  0.00000000000E+00 0.  1.
      99926    2    1    2    0    0  0.00000000000E+00 -0.88817841970E-15 -0.43097108262E+03  0.62594993154E+03  0.45395731379E+03 0.  0.
      99925    2    3    3    0    0  0.48563120306E+02  0.12871736528E+01 -0.13177688507E+03  0.29804032598E+03  0.26287421898E+03 0.  0.
         25    1    4    4    0    0  0.24326364613E+02 -0.10691403851E+02 -0.10904135008E+03  0.16805832993E+03  0.12509000000E+03 0.  0.
         25    1    3    3    0    0 -0.48563120306E+02 -0.12871736528E+01 -0.29919419755E+03  0.32790960556E+03  0.12509000000E+03 0.  0.
         25    1    4    4    0    0  0.24236755693E+02  0.11978577504E+02 -0.22735534984E+02  0.12998199605E+03  0.12509000000E+03 0.  0.
<mgrwt>
<rscale>  2 0.45395731E+03</rscale>
<asrwt>0</asrwt>
<pdfrwt beam="1">  1       21 0.14336680E-01 0.45395731E+03</pdfrwt>
<pdfrwt beam="2">  1       21 0.77714780E-01 0.45395731E+03</pdfrwt>
<totfact> 0.57581297E+04</totfact>
</mgrwt>
</event>
<event>
 6    0  0.4712189E-002  0.4479009E+03  0.7546771E-02  0.1028350E+00
         21   -1    0    0  502  501  0.00000000000E+00  0.00000000000E+00  0.55633886780E+03  0.55633886780E+03  0.00000000000E+00 0.  1.
         21   -1    0    0  501  502 -0.00000000000E+00 -0.00000000000E+00 -0.90149756436E+02  0.90149756436E+02  0.00000000000E+00 0.  1.
      99926    2    1    2    0    0  0.00000000000E+00 -0.35527136788E-14  0.46618911137E+03  0.64648862424E+03  0.44790094185E+03 0.  0.
         25    1    3    3    0    0  0.44798274108E+02 -0.20818753785E+01  0.31523267191E+03  0.34209701125E+03  0.12509000000E+03 0.  0.
         25    1    3    3    0    0 -0.23871287309E+02 -0.31378790614E+02  0.94153503340E+02  0.16145233708E+03  0.12509000000E+03 0.  0.
         25    1    3    3    0    0 -0.20926986798E+02  0.33460665992E+02  0.56802936121E+02  0.14293927591E+03  0.12509000000E+03 0.  0.
<mgrwt>
<rscale>  2 0.44790094E+03</rscale>
<asrwt>0</asrwt>
<pdfrwt beam="1">  1       21 0.81814538E-01 0.44790094E+03</pdfrwt>
<pdfrwt beam="2">  1       21 0.13257317E-01 0.44790094E+03</pdfrwt>
<totfact> 0.59147992E+04</totfact>
</mgrwt>
</event>
<event>
 7    0  0.4712189E-002  0.4535124E+03  0.7546771E-02  0.1026680E+00
         21   -1    0    0  502  501  0.00000000000E+00  0.00000000000E+00  0.60030785521E+02  0.60030785521E+02  0.00000000000E+00 0. -1.
         21   -1    0    0  501  502 -0.00000000000E+00 -0.00000000000E+00 -0.85653328878E+03  0.85653328878E+03  0.00000000000E+00 0. -1.
      99926    2    1    2    0    0  0.00000000000E+00  0.00000000000E+00 -0.79650250326E+03  0.91656407430E+03  0.45351236433E+03 0.  0.
      99925    2    3    3    0    0 -0.45941318604E+02 -0.63662133659E+02 -0.34081939688E+03  0.43754625255E+03  0.26291707783E+03 0.  0.
         25    1    3    3    0    0  0.45941318604E+02  0.63662133659E+02 -0.45568310638E+03  0.47901782175E+03  0.12509000000E+03 0.  0.
         25    1    4    4    0    0 -0.36942893737E+02 -0.54759386231E+02 -0.22962762535E+03  0.26970302594E+03  0.12509000000E+03 0.  0.
         25    1    4    4    0    0 -0.89984248672E+01 -0.89027474277E+01 -0.11119177153E+03  0.16784322661E+03  0.12509000000E+03 0.  0.
<mgrwt>
<rscale>  2 0.45351236E+03</rscale>
<asrwt>0</asrwt>
<pdfrwt beam="1">  1       21 0.88280573E-02 0.45351236E+03</pdfrwt>
<pdfrwt beam="2">  1       21 0.12596077E+00 0.45351236E+03</pdfrwt>
<totfact> 0.43023825E+04</totfact>
</mgrwt>
</event>
<event>
 7    0  0.4712189E-002  0.4693635E+03  0.7546771E-02  0.1022100E+00
         21   -1    0    0  502  501  0.00000000000E+00  0.00000000000E+00  0.22313375832E+03  0.22313375832E+03  0.00000000000E+00 0.  1.
         21   -1    0    0  501  502 -0.00000000000E+00 -0.00000000000E+00 -0.24682744195E+03  0.24682744195E+03  0.00000000000E+00 0.  1.
      99926    2    1    2    0    0  0.00000000000E+00 -0.17763568394E-14 -0.23693683630E+02  0.46996120027E+03  0.46936354686E+03 0.  0.
      99925    2    3    3    0    0 -0.12558276523E+03 -0.11813785919E+02 -0.19919782036E+02  0.29227510938E+03  0.26290177897E+03 0.  0.
         25    1    3    3    0    0  0.12558276523E+03  0.11813785919E+02 -0.37739015940E+01  0.17768609089E+03  0.12509000000E+03 0.  0.
         25    1    4    4    0    0 -0.98063404456E+02  0.51682219379E+01  0.11047439325E+02  0.15941359988E+03  0.12509000000E+03 0.  0.
         25    1    4    4    0    0 -0.27519360778E+02 -0.16982007857E+02 -0.30967221362E+02  0.13286150950E+03  0.12509000000E+03 0.  0.
<mgrwt>
<rscale>  2 0.46936355E+03</rscale>
<asrwt>0</asrwt>
<pdfrwt beam="1">  1       21 0.32813788E-01 0.46936355E+03</pdfrwt>
<pdfrwt beam="2">  1       21 0.36298153E-01 0.46936355E+03</pdfrwt>
<totfact> 0.60255970E+04</totfact>
</mgrwt>
</event>
<event>
 7    0  0.4712189E-002  0.4532446E+03  0.7546771E-02  0.1026759E+00
         21   -1    0    0  502  501  0.00000000000E+00  0.00000000000E+00  0.30657170746E+02  0.30657170746E+02  0.00000000000E+00 0.  1.
         21   -1    0    0  501  502 -0.00000000000E+00 -0.00000000000E+00 -0.16752251611E+04  0.16752251611E+04  0.00000000000E+00 0.  1.
      99926    2    1    2    0    0  0.00000000000E+00  0.00000000000E+00 -0.16445679903E+04  0.17058823318E+04  0.45324458651E+03 0.  0.
      99925    2    3    3    0    0  0.63773677647E+02 -0.59804437432E+02 -0.77660248489E+03  0.82460185466E+03  0.26308391526E+03 0.  0.
         25    1    4    4    0    0  0.53053560916E+02 -0.15357344606E+02 -0.48717339748E+03  0.50599995620E+03  0.12509000000E+03 0.  0.
         25    1    4    4    0    0  0.10720116731E+02 -0.44447092825E+02 -0.28942908741E+03  0.31860189846E+03  0.12509000000E+03 0.  0.
         25    1    3    3    0    0 -0.63773677647E+02  0.59804437432E+02 -0.86796550541E+03  0.88128047714E+03  0.12509000000E+03 0.  0.
<mgrwt>
<rscale>  2 0.45324459E+03</rscale>
<asrwt>0</asrwt>
<pdfrwt beam="1">  1       21 0.45084075E-02 0.45324459E+03</pdfrwt>
<pdfrwt beam="2">  1       21 0.24635664E+00 0.45324459E+03</pdfrwt>
<totfact> 0.19402726E+04</totfact>
</mgrwt>
</event>
<event>
 7    0  0.4712189E-002  0.4506498E+03  0.7546771E-02  0.1027528E+00
         21   -1    0    0  502  501  0.00000000000E+00  0.00000000000E+00  0.12682146808E+04  0.12682146808E+04  0.00000000000E+00 0. -1.
         21   -1    0    0  501  502 -0.00000000000E+00 -0.00000000000E+00 -0.40033685708E+02  0.40033685708E+02  0.00000000000E+00 0. -1.
      99926    2    1    2    0    0  0.14210854715E-13  0.00000000000E+00  0.12281809951E+04  0.13082483665E+04  0.45064978837E+03 0.  0.
      99925    2    3    3    0    0 -0.94257054865E+02 -0.28713023509E+02  0.91150387698E+03  0.95378999751E+03  0.26299659979E+03 0.  0.
         25    1    4    4    0    0 -0.65808173491E+02 -0.50993908707E+02  0.46344674417E+03  0.48719758539E+03  0.12509000000E+03 0.  0.
         25    1    4    4    0    0 -0.28448881375E+02  0.22280885198E+02  0.44805713280E+03  0.46659241213E+03  0.12509000000E+03 0.  0.
         25    1    3    3    0    0  0.94257054865E+02  0.28713023509E+02  0.31667711810E+03  0.35445836898E+03  0.12509000000E+03 0.  0.
<mgrwt>
<rscale>  2 0.45064979E+03</rscale>
<asrwt>0</asrwt>
<pdfrwt beam="1">  1       21 0.18650213E+00 0.45064979E+03</pdfrwt>
<pdfrwt beam="2">  1       21 0.58873075E-02 0.45064979E+03</pdfrwt>
<totfact> 0.29873999E+04</totfact>
</mgrwt>
</event>
<event>
 7    0  0.4712189E-002  0.4525755E+03  0.7546771E-02  0.1026957E+00
         21   -1    0    0  502  501  0.00000000000E+00  0.00000000000E+00  0.25366338654E+03  0.25366338654E+03  0.00000000000E+00 0.  1.
         21   -1    0    0  501  502 -0.00000000000E+00 -0.00000000000E+00 -0.20186648034E+03  0.20186648034E+03  0.00000000000E+00 0.  1.
      99926    2    1    2    0    0  0.00000000000E+00  0.00000000000E+00  0.51796906201E+02  0.45552986687E+03  0.45257545241E+03 0.  0.
      99925    2    3    3    0    0 -0.52297278611E+02 -0.71500954971E+02  0.99900869589E+02  0.29487840779E+03  0.26291766720E+03 0.  0.
         25    1    4    4    0    0 -0.10653122468E+02 -0.56439297113E+02  0.17689042046E+02  0.13877785697E+03  0.12509000000E+03 0.  0.
         25    1    4    4    0    0 -0.41644156143E+02 -0.15061657858E+02  0.82211827543E+02  0.15610055082E+03  0.12509000000E+03 0.  0.
         25    1    3    3    0    0  0.52297278611E+02  0.71500954971E+02 -0.48103963387E+02  0.16065145908E+03  0.12509000000E+03 0.  0.
<mgrwt>
<rscale>  2 0.45257545E+03</rscale>
<asrwt>0</asrwt>
<pdfrwt beam="1">  1       21 0.37303439E-01 0.45257545E+03</pdfrwt>
<pdfrwt beam="2">  1       21 0.29686247E-01 0.45257545E+03</pdfrwt>
<totfact> 0.69848318E+04</totfact>
</mgrwt>
</event>
<event>
 7    0  0.4712189E-002  0.4469850E+03  0.7546771E-02  0.1028625E+00
         21   -1    0    0  502  501  0.00000000000E+00  0.00000000000E+00  0.17849915073E+04  0.17849915073E+04  0.00000000000E+00 0.  1.
         21   -1    0    0  501  502 -0.00000000000E+00 -0.00000000000E+00 -0.27982713469E+02  0.27982713469E+02  0.00000000000E+00 0.  1.
      99926    2    1    2    0    0  0.00000000000E+00  0.00000000000E+00  0.17570087939E+04  0.18129742208E+04  0.44698503731E+03 0.  0.
      99925    2    3    3    0    0 -0.10262616341E+03  0.12914311884E+02  0.11978178347E+04  0.12307019943E+04  0.26298464733E+03 0.  0.
         25    1    4    4    0    0 -0.67641067422E+02 -0.25781688278E+02  0.53555428264E+03  0.55471245452E+03  0.12509000000E+03 0.  0.
         25    1    4    4    0    0 -0.34985095990E+02  0.38696000162E+02  0.66226355204E+03  0.67598953974E+03  0.12509000000E+03 0.  0.
         25    1    3    3    0    0  0.10262616341E+03 -0.12914311884E+02  0.55919095920E+03  0.58227222656E+03  0.12509000000E+03 0.  0.
<mgrwt>
<rscale>  2 0.44698504E+03</rscale>
<asrwt>0</asrwt>
<pdfrwt beam="1">  1       21 0.26249867E+00 0.44698504E+03</pdfrwt>
<pdfrwt beam="2">  1       21 0.41151061E-02 0.44698504E+03</pdfrwt>
<totfact> 0.18112249E+04</totfact>
</mgrwt>
</event>
<event>
 7    0  0.4712189E-002  0.4133991E+03  0.7546771E-02  0.1039236E+00
         21   -1    0    0  502  501  0.00000000000E+00  0.00000000000E+00  0.15005643336E+03  0.15005643336E+03  0.00000000000E+00 0. -1.
         21   -1    0    0  501  502 -0.00000000000E+00 -0.00000000000E+00 -0.28472419323E+03  0.28472419323E+03  0.00000000000E+00 0. -1.
      99926    2    1    2    0    0  0.00000000000E+00 -0.14210854715E-13 -0.13466775987E+03  0.43478062659E+03  0.41339906593E+03 0.  0.
      99925    2    3    3    0    0 -0.34783105231E+01  0.64914900819E+02 -0.70782511827E+02  0.28000699831E+03  0.26299755157E+03 0.  0.
         25    1    4    4    0    0 -0.20978649410E+02  0.69178220873E+02 -0.40618059377E+02  0.15007686305E+03  0.12509000000E+03 0.  0.
         25    1    3    3    0    0  0.34783105231E+01 -0.64914900819E+02 -0.63885248038E+02  0.15477362827E+03  0.12509000000E+03 0.  0.
         25    1    4    4    0    0  0.17500338887E+02 -0.42633200546E+01 -0.30164452450E+02  0.12993013527E+03  0.12509000000E+03 0.  0.
<mgrwt>
<rscale>  2 0.41339907E+03</rscale>
<asrwt>0</asrwt>
<pdfrwt beam="1">  1       21 0.22067123E-01 0.41339907E+03</pdfrwt>
<pdfrwt beam="2">  1       21 0.41871205E-01 0.41339907E+03</pdfrwt>
<totfact> 0.99004144E+04</totfact>
</mgrwt>
</event>
<event>
 7    0  0.4712189E-002  0.4271437E+03  0.7546771E-02  0.1034766E+00
         21   -1    0    0  502  501  0.00000000000E+00  0.00000000000E+00  0.53752026462E+02  0.53752026462E+02  0.00000000000E+00 0.  1.
         21   -1    0    0  501  502 -0.00000000000E+00 -0.00000000000E+00 -0.84858058195E+03  0.84858058195E+03  0.00000000000E+00 0.  1.
      99926    2    1    2    0    0  0.00000000000E+00  0.17763568394E-14 -0.79482855549E+03  0.90233260841E+03  0.42714365685E+03 0.  0.
      99925    2    3    3    0    0 -0.81117620330E+02  0.12926864519E+02 -0.47253064096E+03  0.54698682475E+03  0.26298708648E+03 0.  0.
         25    1    4    4    0    0 -0.76939513441E+01 -0.67533300176E+01 -0.26274463903E+03  0.29118217286E+03  0.12509000000E+03 0.  0.
         25    1    4    4    0    0 -0.73423668986E+02  0.19680194536E+02 -0.20978600193E+03  0.25580465189E+03  0.12509000000E+03 0.  0.
         25    1    3    3    0    0  0.81117620330E+02 -0.12926864519E+02 -0.32229791453E+03  0.35534578366E+03  0.12509000000E+03 0.  0.
<mgrwt>
<rscale>  2 0.42714366E+03</rscale>
<asrwt>0</asrwt>
<pdfrwt beam="1">  1       21 0.79047094E-02 0.42714366E+03</pdfrwt>
<pdfrwt beam="2">  1       21 0.12479127E+00 0.42714366E+03</pdfrwt>
<totfact> 0.53970899E+04</totfact>
</mgrwt>
</event>
<event>
 7    0  0.4712189E-002  0.4552437E+03  0.7546771E-02  0.1026170E+00
         21   -1    0    0  502  501  0.00000000000E+00  0.00000000000E+00  0.17755153767E+04  0.17755153767E+04  0.00000000000E+00 0. -1.
         21   -1    0    0  501  502 -0.00000000000E+00 -0.00000000000E+00 -0.29181220755E+02  0.29181220755E+02  0.00000000000E+00 0. -1.
      99926    2    1    2    0    0  0.00000000000E+00  0.00000000000E+00  0.17463341559E+04  0.18046965974E+04  0.45524369808E+03 0.  0.
      99925    2    3    3    0    0  0.30455429789E+02  0.62087106511E+02  0.74269371861E+03  0.79092937686E+03  0.26304558068E+03 0.  0.
         25    1    4    4    0    0 -0.23073968892E+02  0.36079024558E+02  0.40049065802E+03  0.42175156113E+03  0.12509000000E+03 0.  0.
         25    1    3    3    0    0 -0.30455429789E+02 -0.62087106511E+02  0.10036404373E+04  0.10137672206E+04  0.12509000000E+03 0.  0.
         25    1    4    4    0    0  0.53529398681E+02  0.26008081953E+02  0.34220306059E+03  0.36917781573E+03  0.12509000000E+03 0.  0.
<mgrwt>
<rscale>  2 0.45524370E+03</rscale>
<asrwt>0</asrwt>
<pdfrwt beam="1">  1       21 0.26110513E+00 0.45524370E+03</pdfrwt>
<pdfrwt beam="2">  1       21 0.42913572E-02 0.45524370E+03</pdfrwt>
<totfact> 0.17136950E+04</totfact>
</mgrwt>
</event>
<event>
 7    0  0.4712189E-002  0.4538202E+03  0.7546771E-02  0.1026589E+00
         21   -1    0    0  502  501  0.00000000000E+00  0.00000000000E+00  0.13327456176E+03  0.13327456176E+03  0.00000000000E+00 0. -1.
         21   -1    0    0  501  502 -0.00000000000E+00 -0.00000000000E+00 -0.38633166383E+03  0.38633166383E+03  0.00000000000E+00 0. -1.
      99926    2    1    2    0    0  0.00000000000E+00  0.00000000000E+00 -0.25305710207E+03  0.51960622559E+03  0.45382015465E+03 0.  0.
      99925    2    3    3    0    0  0.99020184958E+02  0.16781717428E+02 -0.10206575188E+03  0.29930525192E+03  0.26282996985E+03 0.  0.
         25    1    3    3    0    0 -0.99020184958E+02 -0.16781717428E+02 -0.15099135018E+03  0.22030097367E+03  0.12509000000E+03 0.  0.
         25    1    4    4    0    0  0.93125223073E+01  0.15594322868E+02 -0.58769372412E+02  0.13939603011E+03  0.12509000000E+03 0.  0.
         25    1    4    4    0    0  0.89707662651E+02  0.11873945600E+01 -0.43296379473E+02  0.15990922181E+03  0.12509000000E+03 0.  0.
<mgrwt>
<rscale>  2 0.45382015E+03</rscale>
<asrwt>0</asrwt>
<pdfrwt beam="1">  1       21 0.19599200E-01 0.45382015E+03</pdfrwt>
<pdfrwt beam="2">  1       21 0.56813480E-01 0.45382015E+03</pdfrwt>
<totfact> 0.64515893E+04</totfact>
</mgrwt>
</event>
<event>
 7    0  0.4712189E-002  0.4504395E+03  0.7546771E-02  0.1027591E+00
         21   -1    0    0  502  501  0.00000000000E+00  0.00000000000E+00  0.30903724685E+04  0.30903724685E+04  0.00000000000E+00 0.  1.
         21   -1    0    0  501  502 -0.00000000000E+00 -0.00000000000E+00 -0.16413532513E+02  0.16413532513E+02  0.00000000000E+00 0.  1.
      99926    2    1    2    0    0  0.00000000000E+00  0.00000000000E+00  0.30739589360E+04  0.31067860010E+04  0.45043946981E+03 0.  0.
      99925    2    3    3    0    0  0.42785327635E+02 -0.85017754681E+02  0.15772886469E+04  0.16018846537E+04  0.26293794930E+03 0.  0.
         25    1    3    3    0    0 -0.42785327635E+02  0.85017754681E+02  0.14966702891E+04  0.15049013473E+04  0.12509000000E+03 0.  0.
         25    1    4    4    0    0  0.26128510224E+02 -0.62766605051E+00  0.73282463859E+03  0.74388342637E+03  0.12509000000E+03 0.  0.
         25    1    4    4    0    0  0.16656817412E+02 -0.84390088631E+02  0.84446400835E+03  0.85800122734E+03  0.12509000000E+03 0.  0.
<mgrwt>
<rscale>  2 0.45043947E+03</rscale>
<asrwt>0</asrwt>
<pdfrwt beam="1">  1       21 0.45446614E+00 0.45043947E+03</pdfrwt>
<pdfrwt beam="2">  1       21 0.24137569E-02 0.45043947E+03</pdfrwt>
<totfact> 0.27934398E+03</totfact>
</mgrwt>
</event>
<event>
 7    0  0.4712189E-002  0.4597009E+03  0.7546771E-02  0.1024868E+00
         21   -1    0    0  502  501  0.00000000000E+00  0.00000000000E+00  0.72567070379E+02  0.72567070379E+02  0.00000000000E+00 0.  1.
         21   -1    0    0  501  502 -0.00000000000E+00 -0.00000000000E+00 -0.72803306015E+03  0.72803306015E+03  0.00000000000E+00 0.  1.
      99926    2    1    2    0    0  0.14210854715E-13 -0.71054273576E-14 -0.65546598977E+03  0.80060013053E+03  0.45970088673E+03 0.  0.
      99925    2    3    3    0    0  0.71899556261E+02 -0.47242809276E+02 -0.27145232647E+03  0.38766498923E+03  0.26305198937E+03 0.  0.
         25    1    3    3    0    0 -0.71899556261E+02  0.47242809276E+02 -0.38401366330E+03  0.41293514130E+03  0.12509000000E+03 0.  0.
         25    1    4    4    0    0  0.46217295496E+02 -0.64081312070E+02 -0.14385520900E+03  0.20635959444E+03  0.12509000000E+03 0.  0.
         25    1    4    4    0    0  0.25682260764E+02  0.16838502794E+02 -0.12759711747E+03  0.18130539479E+03  0.12509000000E+03 0.  0.
<mgrwt>
<rscale>  2 0.45970089E+03</rscale>
<asrwt>0</asrwt>
<pdfrwt beam="1">  1       21 0.10671628E-01 0.45970089E+03</pdfrwt>
<pdfrwt beam="2">  1       21 0.10706369E+00 0.45970089E+03</pdfrwt>
<totfact> 0.46014621E+04</totfact>
</mgrwt>
</event>
<event>
 7    0  0.4712189E-002  0.4374312E+03  0.7546771E-02  0.1031538E+00
         21   -1    0    0  502  501  0.00000000000E+00  0.00000000000E+00  0.39862802743E+03  0.39862802743E+03  0.00000000000E+00 0.  1.
         21   -1    0    0  501  502 -0.00000000000E+00 -0.00000000000E+00 -0.12000288224E+03  0.12000288224E+03  0.00000000000E+00 0.  1.
      99926    2    1    2    0    0  0.35527136788E-14  0.14210854715E-13  0.27862514519E+03  0.51863090966E+03  0.43743119336E+03 0.  0.
      99925    2    3    3    0    0 -0.18306342662E+02 -0.68595232567E+02  0.10221368644E+03  0.29101513914E+03  0.26306224625E+03 0.  0.
         25    1    3    3    0    0  0.18306342662E+02  0.68595232567E+02  0.17641145875E+03  0.22761577052E+03  0.12509000000E+03 0.  0.
         25    1    4    4    0    0 -0.13678194712E+02 -0.29344821359E+02  0.79138102109E+01  0.12945403834E+03  0.12509000000E+03 0.  0.
         25    1    4    4    0    0 -0.46281479500E+01 -0.39250411209E+02  0.94299876233E+02  0.16156110080E+03  0.12509000000E+03 0.  0.
<mgrwt>
<rscale>  2 0.43743119E+03</rscale>
<asrwt>0</asrwt>
<pdfrwt beam="1">  1       21 0.58621768E-01 0.43743119E+03</pdfrwt>
<pdfrwt beam="2">  1       21 0.17647483E-01 0.43743119E+03</pdfrwt>
<totfact> 0.73720740E+04</totfact>
</mgrwt>
</event>
<event>
 7    0  0.4712189E-002  0.4582761E+03  0.7546771E-02  0.1025282E+00
         21   -1    0    0  502  501  0.00000000000E+00  0.00000000000E+00  0.28011608117E+04  0.28011608117E+04  0.00000000000E+00 0. -1.
         21   -1    0    0  501  502 -0.00000000000E+00 -0.00000000000E+00 -0.18743743558E+02  0.18743743558E+02  0.00000000000E+00 0. -1.
      99926    2    1    2    0    0  0.00000000000E+00  0.00000000000E+00  0.27824170681E+04  0.28199045553E+04  0.45827607364E+03 0.  0.
      99925    2    3    3    0    0 -0.53309109298E+02  0.47931516971E+02  0.23086534486E+04  0.23246886763E+04  0.26297795460E+03 0.  0.
         25    1    3    3    0    0  0.53309109298E+02 -0.47931516971E+02  0.47376361952E+03  0.49521587892E+03  0.12509000000E+03 0.  0.
         25    1    4    4    0    0 -0.56194673062E+02  0.34836091875E+02  0.99216863175E+03  0.10022063143E+04  0.12509000000E+03 0.  0.
         25    1    4    4    0    0  0.28855637642E+01  0.13095425096E+02  0.13164848169E+04  0.13224823620E+04  0.12509000000E+03 0.  0.
<mgrwt>
<rscale>  2 0.45827607E+03</rscale>
<asrwt>0</asrwt>
<pdfrwt beam="1">  1       21 0.41193512E+00 0.45827607E+03</pdfrwt>
<pdfrwt beam="2">  1       21 0.27564348E-02 0.45827607E+03</pdfrwt>
<totfact> 0.42715855E+03</totfact>
</mgrwt>
</event>
<event>
 7    0  0.4712189E-002  0.4582826E+03  0.7546771E-02  0.1025281E+00
         21   -1    0    0  502  501  0.00000000000E+00  0.00000000000E+00  0.16780291139E+03  0.16780291139E+03  0.00000000000E+00 0.  1.
         21   -1    0    0  501  502 -0.00000000000E+00 -0.00000000000E+00 -0.31290115240E+03  0.31290115240E+03  0.00000000000E+00 0.  1.
      99926    2    1    2    0    0  0.14210854715E-13  0.00000000000E+00 -0.14509824101E+03  0.48070406379E+03  0.45828255192E+03 0.  0.
      99925    2    3    3    0    0  0.86953515075E+02  0.70293050554E+02 -0.12416601883E+03  0.31162510955E+03  0.26304178742E+03 0.  0.
         25    1    4    4    0    0  0.42087771171E+01  0.32032243654E+02 -0.38974689279E+02  0.13494559253E+03  0.12509000000E+03 0.  0.
         25    1    3    3    0    0 -0.86953515075E+02 -0.70293050554E+02 -0.20932222181E+02  0.16907895424E+03  0.12509000000E+03 0.  0.
         25    1    4    4    0    0  0.82744737958E+02  0.38260806900E+02 -0.85191329555E+02  0.17667951702E+03  0.12509000000E+03 0.  0.
<mgrwt>
<rscale>  2 0.45828255E+03</rscale>
<asrwt>0</asrwt>
<pdfrwt beam="1">  1       21 0.24676899E-01 0.45828255E+03</pdfrwt>
<pdfrwt beam="2">  1       21 0.46014875E-01 0.45828255E+03</pdfrwt>
<totfact> 0.64940361E+04</totfact>
</mgrwt>
</event>
<event>
 7    0  0.4712189E-002  0.4575501E+03  0.7546771E-02  0.1025494E+00
         21   -1    0    0  502  501  0.00000000000E+00  0.00000000000E+00  0.40818847430E+03  0.40818847430E+03  0.00000000000E+00 0.  1.
         21   -1    0    0  501  502 -0.00000000000E+00 -0.00000000000E+00 -0.12822024146E+03  0.12822024146E+03  0.00000000000E+00 0.  1.
      99926    2    1    2    0    0  0.00000000000E+00  0.00000000000E+00  0.27996823283E+03  0.53640871576E+03  0.45755010540E+03 0.  0.
      99925    2    3    3    0    0 -0.96026784583E+02  0.38618741578E+02  0.23590755964E+03  0.36817851164E+03  0.26304085077E+03 0.  0.
         25    1    4    4    0    0 -0.63070427887E+02  0.56981163516E+02  0.11288577969E+03  0.18872053207E+03  0.12509000000E+03 0.  0.
         25    1    3    3    0    0  0.96026784583E+02 -0.38618741578E+02  0.44060673189E+02  0.16823020413E+03  0.12509000000E+03 0.  0.
         25    1    4    4    0    0 -0.32956356696E+02 -0.18362421938E+02  0.12302177996E+03  0.17945797957E+03  0.12509000000E+03 0.  0.
<mgrwt>
<rscale>  2 0.45755011E+03</rscale>
<asrwt>0</asrwt>
<pdfrwt beam="1">  1       21 0.60027716E-01 0.45755011E+03</pdfrwt>
<pdfrwt beam="2">  1       21 0.18855918E-01 0.45755011E+03</pdfrwt>
<totfact> 0.61521921E+04</totfact>
</mgrwt>
</event>
<event>
 7    0  0.4712189E-002  0.4667603E+03  0.7546771E-02  0.1022839E+00
         21   -1    0    0  502  501  0.00000000000E+00  0.00000000000E+00  0.91299334407E+03  0.91299334407E+03  0.00000000000E+00 0. -1.
         21   -1    0    0  501  502 -0.00000000000E+00 -0.00000000000E+00 -0.59656829772E+02  0.59656829772E+02  0.00000000000E+00 0. -1.
      99926    2    1    2    0    0  0.00000000000E+00  0.00000000000E+00  0.85333651430E+03  0.97265017385E+03  0.46676027470E+03 0.  0.
      99925    2    3    3    0    0 -0.85202941817E+02 -0.66707330105E+02  0.40183019931E+03  0.49180210038E+03  0.26209232662E+03 0.  0.
         25    1    3    3    0    0  0.85202941817E+02  0.66707330105E+02  0.45150631499E+03  0.48084807347E+03  0.12509000000E+03 0.  0.
         25    1    4    4    0    0 -0.10753921696E+02 -0.56193146413E+02  0.19028452575E+03  0.23479570987E+03  0.12509000000E+03 0.  0.
         25    1    4    4    0    0 -0.74449020121E+02 -0.10514183693E+02  0.21154567357E+03  0.25700639050E+03  0.12509000000E+03 0.  0.
<mgrwt>
<rscale>  2 0.46676027E+03</rscale>
<asrwt>0</asrwt>
<pdfrwt beam="1">  1       21 0.13426372E+00 0.46676027E+03</pdfrwt>
<pdfrwt beam="2">  1       21 0.87730638E-02 0.46676027E+03</pdfrwt>
<totfact> 0.36740867E+04</totfact>
</mgrwt>
</event>
<event>
 7    0  0.4712189E-002  0.4459464E+03  0.7546771E-02  0.1028938E+00
         21   -1    0    0  502  501  0.00000000000E+00  0.00000000000E+00  0.10578063196E+04  0.10578063196E+04  0.00000000000E+00 0. -1.
         21   -1    0    0  501  502 -0.00000000000E+00 -0.00000000000E+00 -0.47000138311E+02  0.47000138311E+02  0.00000000000E+00 0. -1.
      99926    2    1    2    0    0  0.35527136788E-14  0.00000000000E+00  0.10108061813E+04  0.11048064579E+04  0.44594637940E+03 0.  0.
      99925    2    3    3    0    0 -0.24949735597E+02 -0.91923540421E+01  0.89174912023E+03  0.93008072835E+03  0.26291952977E+03 0.  0.
         25    1    4    4    0    0 -0.52686402926E+02 -0.77720154119E+00  0.47232991132E+03  0.49144634938E+03  0.12509000000E+03 0.  0.
         25    1    4    4    0    0  0.27736667329E+02 -0.84151525009E+01  0.41941920891E+03  0.43863437896E+03  0.12509000000E+03 0.  0.
         25    1    3    3    0    0  0.24949735597E+02  0.91923540421E+01  0.11905706102E+03  0.17472572953E+03  0.12509000000E+03 0.  0.
<mgrwt>
<rscale>  2 0.44594638E+03</rscale>
<asrwt>0</asrwt>
<pdfrwt beam="1">  1       21 0.15555974E+00 0.44594638E+03</pdfrwt>
<pdfrwt beam="2">  1       21 0.69117857E-02 0.44594638E+03</pdfrwt>
<totfact> 0.37935640E+04</totfact>
</mgrwt>
</event>
<event>
 7    0  0.4712189E-002  0.4474439E+03  0.7546771E-02  0.1028487E+00
         21   -1    0    0  502  501  0.00000000000E+00  0.00000000000E+00  0.15816519930E+03  0.15816519930E+03  0.00000000000E+00 0. -1.
         21   -1    0    0  501  502 -0.00000000000E+00 -0.00000000000E+00 -0.31645088648E+03  0.31645088648E+03  0.00000000000E+00 0. -1.
      99926    2    1    2    0    0 -0.14210854715E-13  0.00000000000E+00 -0.15828568718E+03  0.47461608578E+03  0.44744392957E+03 0.  0.
      99925    2    3    3    0    0 -0.90212554429E+02  0.26295997228E+02 -0.15230643854E+03  0.31804966549E+03  0.26292309531E+03 0.  0.
         25    1    3    3    0    0  0.90212554429E+02 -0.26295997228E+02 -0.59792486311E+01  0.15656642029E+03  0.12509000000E+03 0.  0.
         25    1    4    4    0    0 -0.23453636374E+02 -0.89825083494E+00 -0.34921015315E+02  0.13197676055E+03  0.12509000000E+03 0.  0.
         25    1    4    4    0    0 -0.66758918055E+02  0.27194248063E+02 -0.11738542323E+03  0.18607290494E+03  0.12509000000E+03 0.  0.
<mgrwt>
<rscale>  2 0.44744393E+03</rscale>
<asrwt>0</asrwt>
<pdfrwt beam="1">  1       21 0.23259588E-01 0.44744393E+03</pdfrwt>
<pdfrwt beam="2">  1       21 0.46536895E-01 0.44744393E+03</pdfrwt>
<totfact> 0.71273720E+04</totfact>
</mgrwt>
</event>
<event>
 7    0  0.4712189E-002  0.4570244E+03  0.7546771E-02  0.1025648E+00
         21   -1    0    0  502  501  0.00000000000E+00  0.00000000000E+00  0.64407060034E+03  0.64407060034E+03  0.00000000000E+00 0. -1.
         21   -1    0    0  501  502 -0.00000000000E+00 -0.00000000000E+00 -0.81074690458E+02  0.81074690458E+02  0.00000000000E+00 0. -1.
      99926    2    1    2    0    0  0.00000000000E+00  0.00000000000E+00  0.56299590988E+03  0.72514529080E+03  0.45702439565E+03 0.  0.
      99925    2    3    3    0    0 -0.10730532535E+03 -0.32231396452E+02  0.31153174926E+03  0.42276303612E+03  0.26291302393E+03 0.  0.
         25    1    3    3    0    0  0.10730532535E+03  0.32231396452E+02  0.25146416063E+03  0.30238225468E+03  0.12509000000E+03 0.  0.
         25    1    4    4    0    0 -0.53512170900E+02 -0.25027436419E+02  0.21513262112E+03  0.25577231629E+03  0.12509000000E+03 0.  0.
         25    1    4    4    0    0 -0.53793154446E+02 -0.72039600336E+01  0.96399128137E+02  0.16699071983E+03  0.12509000000E+03 0.  0.
<mgrwt>
<rscale>  2 0.45702440E+03</rscale>
<asrwt>0</asrwt>
<pdfrwt beam="1">  1       21 0.94716262E-01 0.45702440E+03</pdfrwt>
<pdfrwt beam="2">  1       21 0.11922749E-01 0.45702440E+03</pdfrwt>
<totfact> 0.50746181E+04</totfact>
</mgrwt>
</event>
<event>
 7    0  0.4712189E-002  0.4759245E+03  0.7546771E-02  0.1020261E+00
         21   -1    0    0  502  501  0.00000000000E+00  0.00000000000E+00  0.21977738862E+03  0.21977738862E+03  0.00000000000E+00 0. -1.
         21   -1    0    0  501  502 -0.00000000000E+00 -0.00000000000E+00 -0.25765179290E+03  0.25765179290E+03  0.00000000000E+00 0. -1.
      99926    2    1    2    0    0 -0.14210854715E-13  0.71054273576E-14 -0.37874404288E+02  0.47742918152E+03  0.47592452434E+03 0.  0.
      99925    2    3    3    0    0  0.11536847457E+03 -0.40463717624E+02  0.25967417120E+02  0.29122906437E+03  0.26304536455E+03 0.  0.
         25    1    4    4    0    0  0.34493529873E+02 -0.45814886680E+02 -0.97557109975E+01  0.13795466444E+03  0.12509000000E+03 0.  0.
         25    1    3    3    0    0 -0.11536847457E+03  0.40463717624E+02 -0.63841821407E+02  0.18620011715E+03  0.12509000000E+03 0.  0.
         25    1    4    4    0    0  0.80874944693E+02  0.53511690568E+01  0.35723128117E+02  0.15327439992E+03  0.12509000000E+03 0.  0.
<mgrwt>
<rscale>  2 0.47592452E+03</rscale>
<asrwt>0</asrwt>
<pdfrwt beam="1">  1       21 0.32320204E-01 0.47592452E+03</pdfrwt>
<pdfrwt beam="2">  1       21 0.37889969E-01 0.47592452E+03</pdfrwt>
<totfact> 0.56834939E+04</totfact>
</mgrwt>
</event>
<event>
 7    0  0.4712189E-002  0.4514841E+03  0.7546771E-02  0.1027280E+00
         21   -1    0    0  502  501  0.00000000000E+00  0.00000000000E+00  0.22863054709E+03  0.22863054709E+03  0.00000000000E+00 0.  1.
         21   -1    0    0  501  502 -0.00000000000E+00 -0.00000000000E+00 -0.22289008975E+03  0.22289008975E+03  0.00000000000E+00 0.  1.
      99926    2    1    2    0    0  0.00000000000E+00  0.00000000000E+00  0.57404573395E+01  0.45152063684E+03  0.45148414440E+03 0.  0.
      99925    2    3    3    0    0 -0.80243028586E+02  0.73718387928E+02 -0.10347938699E+02  0.28484823678E+03  0.26297926498E+03 0.  0.
         25    1    4    4    0    0 -0.35203945900E+02  0.37001503022E+02  0.35146333831E+02  0.13961089468E+03  0.12509000000E+03 0.  0.
         25    1    3    3    0    0  0.80243028586E+02 -0.73718387928E+02  0.16088396039E+02  0.16667240006E+03  0.12509000000E+03 0.  0.
         25    1    4    4    0    0 -0.45039082686E+02  0.36716884906E+02 -0.45494272530E+02  0.14523734210E+03  0.12509000000E+03 0.  0.
<mgrwt>
<rscale>  2 0.45148414E+03</rscale>
<asrwt>0</asrwt>
<pdfrwt beam="1">  1       21 0.33622139E-01 0.45148414E+03</pdfrwt>
<pdfrwt beam="2">  1       21 0.32777954E-01 0.45148414E+03</pdfrwt>
<totfact> 0.70765889E+04</totfact>
</mgrwt>
</event>
<event>
 7    0  0.4712189E-002  0.4282972E+03  0.7546771E-02  0.1034399E+00
         21   -1    0    0  502  501  0.00000000000E+00  0.00000000000E+00  0.63824704731E+02  0.63824704731E+02  0.00000000000E+00 0. -1.
         21   -1    0    0  501  502 -0.00000000000E+00 -0.00000000000E+00 -0.71852455099E+03  0.71852455099E+03  0.00000000000E+00 0. -1.
      99926    2    1    2    0    0 -0.71054273576E-14  0.00000000000E+00 -0.65469984626E+03  0.78234925572E+03  0.42829717398E+03 0.  0.
      99925    2    3    3    0    0  0.63027124249E+02 -0.32580408533E+02 -0.51190850533E+03  0.57968999352E+03  0.26259525766E+03 0.  0.
         25    1    4    4    0    0  0.19541146056E+02  0.24882026312E+01 -0.31784804964E+03  0.34214461607E+03  0.12509000000E+03 0.  0.
         25    1    3    3    0    0 -0.63027124249E+02  0.32580408533E+02 -0.14279134092E+03  0.20265926220E+03  0.12509000000E+03 0.  0.
         25    1    4    4    0    0  0.43485978192E+02 -0.35068611164E+02 -0.19406045569E+03  0.23754537746E+03  0.12509000000E+03 0.  0.
<mgrwt>
<rscale>  2 0.42829717E+03</rscale>
<asrwt>0</asrwt>
<pdfrwt beam="1">  1       21 0.93859850E-02 0.42829717E+03</pdfrwt>
<pdfrwt beam="2">  1       21 0.10566539E+00 0.42829717E+03</pdfrwt>
<totfact> 0.60312972E+04</totfact>
</mgrwt>
</event>
<event>
 7    0  0.4712189E-002  0.4195631E+03  0.7546771E-02  0.1037209E+00
         21   -1    0    0  502  501  0.00000000000E+00  0.00000000000E+00  0.18221831312E+04  0.18221831312E+04  0.00000000000E+00 0.  1.
         21   -1    0    0  501  502 -0.00000000000E+00 -0.00000000000E+00 -0.24151418862E+02  0.24151418862E+02  0.00000000000E+00 0.  1.
      99926    2    1    2    0    0  0.71054273576E-14  0.00000000000E+00  0.17980317124E+04  0.18463345501E+04  0.41956314445E+03 0.  0.
      99925    2    3    3    0    0  0.60534397940E+02 -0.95134214310E+01  0.13645729712E+04  0.13910446348E+04  0.26304156309E+03 0.  0.
         25    1    3    3    0    0 -0.60534397940E+02  0.95134214310E+01  0.43345874118E+03  0.45528991525E+03  0.12509000000E+03 0.  0.
         25    1    4    4    0    0  0.44217352504E+02  0.59891527283E+01  0.88524631997E+03  0.89515339430E+03  0.12509000000E+03 0.  0.
         25    1    4    4    0    0  0.16317045436E+02 -0.15502574159E+02  0.47932665123E+03  0.49589124055E+03  0.12509000000E+03 0.  0.
<mgrwt>
<rscale>  2 0.41956314E+03</rscale>
<asrwt>0</asrwt>
<pdfrwt beam="1">  1       21 0.26796801E+00 0.41956314E+03</pdfrwt>
<pdfrwt beam="2">  1       21 0.35516805E-02 0.41956314E+03</pdfrwt>
<totfact> 0.21790019E+04</totfact>
</mgrwt>
</event>
<event>
 7    0  0.4712189E-002  0.4518503E+03  0.7546771E-02  0.1027172E+00
         21   -1    0    0  502  501  0.00000000000E+00  0.00000000000E+00  0.10062920778E+04  0.10062920778E+04  0.00000000000E+00 0. -1.
         21   -1    0    0  501  502 -0.00000000000E+00 -0.00000000000E+00 -0.50723017275E+02  0.50723017275E+02  0.00000000000E+00 0. -1.
      99926    2    1    2    0    0  0.14210854715E-13  0.00000000000E+00  0.95556906050E+03  0.10570150950E+04  0.45185028691E+03 0.  0.
      99925    2    3    3    0    0  0.86999448623E+02 -0.31406501400E+02  0.46289201309E+03  0.54035906486E+03  0.26298979220E+03 0.  0.
         25    1    4    4    0    0  0.18664461822E+02 -0.95063353576E+01  0.28051185813E+03  0.30785246986E+03  0.12509000000E+03 0.  0.
         25    1    3    3    0    0 -0.86999448623E+02  0.31406501400E+02  0.49267704741E+03  0.51665603019E+03  0.12509000000E+03 0.  0.
         25    1    4    4    0    0  0.68334986801E+02 -0.21900166043E+02  0.18238015496E+03  0.23250659499E+03  0.12509000000E+03 0.  0.
<mgrwt>
<rscale>  2 0.45185029E+03</rscale>
<asrwt>0</asrwt>
<pdfrwt beam="1">  1       21 0.14798412E+00 0.45185029E+03</pdfrwt>
<pdfrwt beam="2">  1       21 0.74592679E-02 0.45185029E+03</pdfrwt>
<totfact> 0.37945271E+04</totfact>
</mgrwt>
</event>
<event>
 7    0  0.4712189E-002  0.4559928E+03  0.7546771E-02  0.1025950E+00
         21   -1    0    0  502  501  0.00000000000E+00  0.00000000000E+00  0.15605771873E+03  0.15605771873E+03  0.00000000000E+00 0. -1.
         21   -1    0    0  501  502 -0.00000000000E+00 -0.00000000000E+00 -0.33309698081E+03  0.33309698081E+03  0.00000000000E+00 0. -1.
      99926    2    1    2    0    0  0.00000000000E+00  0.00000000000E+00 -0.17703926207E+03  0.48915469954E+03  0.45599278477E+03 0.  0.
      99925    2    3    3    0    0  0.69708007453E+02  0.58494920662E+02 -0.38423666228E+02  0.28144660254E+03  0.26354307031E+03 0.  0.
         25    1    4    4    0    0  0.24960398890E+02  0.41413098696E+02  0.19484863083E+02  0.13551839080E+03  0.12509000000E+03 0.  0.
         25    1    4    4    0    0  0.44747608563E+02  0.17081821966E+02 -0.57908529311E+02  0.14592821174E+03  0.12509000000E+03 0.  0.
         25    1    3    3    0    0 -0.69708007453E+02 -0.58494920662E+02 -0.13861559585E+03  0.20770809700E+03  0.12509000000E+03 0.  0.
<mgrwt>
<rscale>  2 0.45599278E+03</rscale>
<asrwt>0</asrwt>
<pdfrwt beam="1">  1       21 0.22949665E-01 0.45599278E+03</pdfrwt>
<pdfrwt beam="2">  1       21 0.48984850E-01 0.45599278E+03</pdfrwt>
<totfact> 0.65521577E+04</totfact>
</mgrwt>
</event>
<event>
 7    0  0.4712189E-002  0.4604535E+03  0.7546771E-02  0.1024650E+00
         21   -1    0    0  502  501  0.00000000000E+00  0.00000000000E+00  0.31617235402E+03  0.31617235402E+03  0.00000000000E+00 0.  1.
         21   -1    0    0  501  502 -0.00000000000E+00 -0.00000000000E+00 -0.16764383616E+03  0.16764383616E+03  0.00000000000E+00 0.  1.
      99926    2    1    2    0    0  0.00000000000E+00  0.00000000000E+00  0.14852851786E+03  0.48381619018E+03  0.46045345614E+03 0.  0.
      99925    2    3    3    0    0 -0.50192315634E+02 -0.43421043218E+02 -0.97555801712E+01  0.27143441288E+03  0.26301485435E+03 0.  0.
         25    1    3    3    0    0  0.50192315634E+02  0.43421043218E+02  0.15828409803E+03  0.21238177731E+03  0.12509000000E+03 0.  0.
         25    1    4    4    0    0  0.58231660127E+01 -0.47923611262E+02 -0.23942829921E+01  0.13410377500E+03  0.12509000000E+03 0.  0.
         25    1    4    4    0    0 -0.56015481647E+02  0.45025680440E+01 -0.73612971791E+01  0.13733063788E+03  0.12509000000E+03 0.  0.
<mgrwt>
<rscale>  2 0.46045346E+03</rscale>
<asrwt>0</asrwt>
<pdfrwt beam="1">  1       21 0.46495934E-01 0.46045346E+03</pdfrwt>
<pdfrwt beam="2">  1       21 0.24653505E-01 0.46045346E+03</pdfrwt>
<totfact> 0.63624295E+04</totfact>
</mgrwt>
</event>
<event>
 7    0  0.4712189E-002  0.4570634E+03  0.7546771E-02  0.1025636E+00
         21   -1    0    0  502  501  0.00000000000E+00  0.00000000000E+00  0.24520390837E+03  0.24520390837E+03  0.00000000000E+00 0.  1.
         21   -1    0    0  501  502 -0.00000000000E+00 -0.00000000000E+00 -0.21299304746E+03  0.21299304746E+03  0.00000000000E+00 0.  1.
      99926    2    1    2    0    0  0.00000000000E+00  0.00000000000E+00  0.32210860907E+02  0.45819695584E+03  0.45706335532E+03 0.  0.
      99925    2    3    3    0    0  0.11274310806E+03 -0.11589259518E+02  0.41161537519E+02  0.28916162798E+03  0.26282095725E+03 0.  0.
         25    1    3    3    0    0 -0.11274310806E+03  0.11589259518E+02 -0.89506766126E+01  0.16903532786E+03  0.12509000000E+03 0.  0.
         25    1    4    4    0    0  0.24506380890E+02 -0.32445800100E+02  0.13666000091E+02  0.13224053957E+03  0.12509000000E+03 0.  0.
         25    1    4    4    0    0  0.88236727175E+02  0.20856540582E+02  0.27495537428E+02  0.15692108840E+03  0.12509000000E+03 0.  0.
<mgrwt>
<rscale>  2 0.45706336E+03</rscale>
<asrwt>0</asrwt>
<pdfrwt beam="1">  1       21 0.36059399E-01 0.45706336E+03</pdfrwt>
<pdfrwt beam="2">  1       21 0.31322507E-01 0.45706336E+03</pdfrwt>
<totfact> 0.67199121E+04</totfact>
</mgrwt>
</event>
<event>
 7    0  0.4712189E-002  0.4509011E+03  0.7546771E-02  0.1027454E+00
         21   -1    0    0  502  501  0.00000000000E+00  0.00000000000E+00  0.13431540875E+03  0.13431540875E+03  0.00000000000E+00 0. -1.
         21   -1    0    0  501  502 -0.00000000000E+00 -0.00000000000E+00 -0.37842229418E+03  0.37842229418E+03  0.00000000000E+00 0. -1.
      99926    2    1    2    0    0 -0.35527136788E-14  0.00000000000E+00 -0.24410688543E+03  0.51273770294E+03  0.45090107618E+03 0.  0.
      99925    2    3    3    0    0 -0.10297032818E+02 -0.36862447267E+02 -0.27081829837E+03  0.37922412091E+03  0.26268519990E+03 0.  0.
         25    1    3    3    0    0  0.10297032818E+02  0.36862447267E+02  0.26711412939E+02  0.13351358202E+03  0.12509000000E+03 0.  0.
         25    1    4    4    0    0 -0.40366669683E+02 -0.64911004735E+00 -0.12437957189E+03  0.18096318788E+03  0.12509000000E+03 0.  0.
         25    1    4    4    0    0  0.30069636865E+02 -0.36213337219E+02 -0.14643872647E+03  0.19826093303E+03  0.12509000000E+03 0.  0.
<mgrwt>
<rscale>  2 0.45090108E+03</rscale>
<asrwt>0</asrwt>
<pdfrwt beam="1">  1       21 0.19752266E-01 0.45090108E+03</pdfrwt>
<pdfrwt beam="2">  1       21 0.55650337E-01 0.45090108E+03</pdfrwt>
<totfact> 0.66522206E+04</totfact>
</mgrwt>
</event>
<event>
 7    0  0.4712189E-002  0.4476500E+03  0.7546771E-02  0.1028425E+00
         21   -1    0    0  502  501  0.00000000000E+00  0.00000000000E+00  0.93834224202E+02  0.93834224202E+02  0.00000000000E+00 0. -1.
         21   -1    0    0  501  502 -0.00000000000E+00 -0.00000000000E+00 -0.53389512672E+03  0.53389512672E+03  0.00000000000E+00 0. -1.
      99926    2    1    2    0    0  0.14210854715E-13  0.00000000000E+00 -0.44006090252E+03  0.62772935092E+03  0.44765001964E+03 0.  0.
      99925    2    3    3    0    0 -0.10296743737E+03 -0.22592954510E+02 -0.29567338226E+03  0.40953677805E+03  0.26303020520E+03 0.  0.
         25    1    4    4    0    0 -0.25656539667E+02 -0.38658319634E+02 -0.11592691800E+03  0.17674637796E+03  0.12509000000E+03 0.  0.
         25    1    4    4    0    0 -0.77310897700E+02  0.16065365124E+02 -0.17974646426E+03  0.23279040009E+03  0.12509000000E+03 0.  0.
         25    1    3    3    0    0  0.10296743737E+03  0.22592954510E+02 -0.14438752026E+03  0.21819257288E+03  0.12509000000E+03 0.  0.
<mgrwt>
<rscale>  2 0.44765002E+03</rscale>
<asrwt>0</asrwt>
<pdfrwt beam="1">  1       21 0.13799151E-01 0.44765002E+03</pdfrwt>
<pdfrwt beam="2">  1       21 0.78513990E-01 0.44765002E+03</pdfrwt>
<totfact> 0.60434037E+04</totfact>
</mgrwt>
</event>
<event>
 7    0  0.4712189E-002  0.4531907E+03  0.7546771E-02  0.1026775E+00
         21   -1    0    0  502  501  0.00000000000E+00  0.00000000000E+00  0.25487973241E+03  0.25487973241E+03  0.00000000000E+00 0.  1.
         21   -1    0    0  501  502 -0.00000000000E+00 -0.00000000000E+00 -0.20144969420E+03  0.20144969420E+03  0.00000000000E+00 0.  1.
      99926    2    1    2    0    0  0.17763568394E-14  0.35527136788E-14  0.53430038217E+02  0.45632942661E+03  0.45319066253E+03 0.  0.
      99925    2    3    3    0    0  0.15461571547E+02  0.31479422616E+02 -0.72826938631E+02  0.27517108000E+03  0.26303107428E+03 0.  0.
         25    1    4    4    0    0  0.15043521875E+02 -0.95223190509E+00  0.16760997318E+01  0.12600607805E+03  0.12509000000E+03 0.  0.
         25    1    4    4    0    0  0.41804967168E+00  0.32431654521E+02 -0.74503038363E+02  0.14916500195E+03  0.12509000000E+03 0.  0.
         25    1    3    3    0    0 -0.15461571547E+02 -0.31479422616E+02  0.12625697685E+03  0.18115834661E+03  0.12509000000E+03 0.  0.
<mgrwt>
<rscale>  2 0.45319066E+03</rscale>
<asrwt>0</asrwt>
<pdfrwt beam="1">  1       21 0.37482314E-01 0.45319066E+03</pdfrwt>
<pdfrwt beam="2">  1       21 0.29624955E-01 0.45319066E+03</pdfrwt>
<totfact> 0.69445494E+04</totfact>
</mgrwt>
</event>
<event>
 7    0  0.4712189E-002  0.4591146E+03  0.7546771E-02  0.1025038E+00
         21   -1    0    0  502  501  0.00000000000E+00  0.00000000000E+00  0.20128255371E+03  0.20128255371E+03  0.00000000000E+00 0. -1.
         21   -1    0    0  501  502 -0.00000000000E+00 -0.00000000000E+00 -0.26180387017E+03  0.26180387017E+03  0.00000000000E+00 0. -1.
      99926    2    1    2    0    0  0.00000000000E+00  0.00000000000E+00 -0.60521316461E+02  0.46308642389E+03  0.45911458945E+03 0.  0.
      99925    2    3    3    0    0  0.14319873313E+02 -0.10538049629E+03 -0.87224710707E+02  0.29674133939E+03  0.26293946942E+03 0.  0.
         25    1    4    4    0    0 -0.18887333036E+02 -0.29664908014E+02 -0.16592189340E+02  0.13099445394E+03  0.12509000000E+03 0.  0.
         25    1    4    4    0    0  0.33207206348E+02 -0.75715588280E+02 -0.70632521367E+02  0.16574688545E+03  0.12509000000E+03 0.  0.
         25    1    3    3    0    0 -0.14319873313E+02  0.10538049629E+03  0.26703394246E+02  0.16634508449E+03  0.12509000000E+03 0.  0.
<mgrwt>
<rscale>  2 0.45911459E+03</rscale>
<asrwt>0</asrwt>
<pdfrwt beam="1">  1       21 0.29600376E-01 0.45911459E+03</pdfrwt>
<pdfrwt beam="2">  1       21 0.38500569E-01 0.45911459E+03</pdfrwt>
<totfact> 0.65771403E+04</totfact>
</mgrwt>
</event>
<event>
 7    0  0.4712189E-002  0.4315571E+03  0.7546771E-02  0.1033369E+00
         21   -1    0    0  502  501  0.00000000000E+00  0.00000000000E+00  0.26480375101E+03  0.26480375101E+03  0.00000000000E+00 0.  1.
         21   -1    0    0  501  502 -0.00000000000E+00 -0.00000000000E+00 -0.17582973171E+03  0.17582973171E+03  0.00000000000E+00 0.  1.
      99926    2    1    2    0    0  0.00000000000E+00 -0.35527136788E-14  0.88974019291E+02  0.44063348272E+03  0.43155705299E+03 0.  0.
      99925    2    3    3    0    0  0.86474917059E+02 -0.18174939661E+02  0.71180984200E+02  0.28645066944E+03  0.26301903696E+03 0.  0.
         25    1    4    4    0    0  0.74130084844E+02  0.13771430272E+02  0.21800816045E+02  0.14767432225E+03  0.12509000000E+03 0.  0.
         25    1    4    4    0    0  0.12344832215E+02 -0.31946369933E+02  0.49380168155E+02  0.13877634720E+03  0.12509000000E+03 0.  0.
         25    1    3    3    0    0 -0.86474917059E+02  0.18174939661E+02  0.17793035091E+02  0.15418281328E+03  0.12509000000E+03 0.  0.
<mgrwt>
<rscale>  2 0.43155705E+03</rscale>
<asrwt>0</asrwt>
<pdfrwt beam="1">  1       21 0.38941728E-01 0.43155705E+03</pdfrwt>
<pdfrwt beam="2">  1       21 0.25857313E-01 0.43155705E+03</pdfrwt>
<totfact> 0.84299069E+04</totfact>
</mgrwt>
</event>
<event>
 7    0  0.4712189E-002  0.4609333E+03  0.7546771E-02  0.1024511E+00
         21   -1    0    0  502  501  0.00000000000E+00  0.00000000000E+00  0.21925501770E+03  0.21925501770E+03  0.00000000000E+00 0.  1.
         21   -1    0    0  501  502 -0.00000000000E+00 -0.00000000000E+00 -0.24225160024E+03  0.24225160024E+03  0.00000000000E+00 0.  1.
      99926    2    1    2    0    0  0.00000000000E+00  0.00000000000E+00 -0.22996582549E+02  0.46150661794E+03  0.46093330927E+03 0.  0.
      99925    2    3    3    0    0 -0.39681108754E+02 -0.55843086626E+02  0.82812301865E+02  0.28392264108E+03  0.26279487830E+03 0.  0.
         25    1    3    3    0    0  0.39681108754E+02  0.55843086626E+02 -0.10580888441E+03  0.17758397686E+03  0.12509000000E+03 0.  0.
         25    1    4    4    0    0 -0.42381337666E+02 -0.27227263331E-01  0.59869539013E+02  0.14501051109E+03  0.12509000000E+03 0.  0.
         25    1    4    4    0    0  0.27002289123E+01 -0.55815859363E+02  0.22942762852E+02  0.13891213000E+03  0.12509000000E+03 0.  0.
<mgrwt>
<rscale>  2 0.46093331E+03</rscale>
<asrwt>0</asrwt>
<pdfrwt beam="1">  1       21 0.32243385E-01 0.46093331E+03</pdfrwt>
<pdfrwt beam="2">  1       21 0.35625235E-01 0.46093331E+03</pdfrwt>
<totfact> 0.64942427E+04</totfact>
</mgrwt>
</event>
<event>
 7    0  0.4712189E-002  0.4167225E+03  0.7546771E-02  0.1038138E+00
         21   -1    0    0  502  501  0.00000000000E+00  0.00000000000E+00  0.15965932361E+04  0.15965932361E+04  0.00000000000E+00 0.  1.
         21   -1    0    0  501  502 -0.00000000000E+00 -0.00000000000E+00 -0.27191906008E+02  0.27191906008E+02  0.00000000000E+00 0.  1.
      99926    2    1    2    0    0  0.00000000000E+00  0.00000000000E+00  0.15694013301E+04  0.16237851421E+04  0.41672251299E+03 0.  0.
      99925    2    3    3    0    0 -0.44787868641E+02  0.80726230933E+01  0.12416601970E+04  0.12700438823E+04  0.26309750647E+03 0.  0.
         25    1    3    3    0    0  0.44787868641E+02 -0.80726230933E+01  0.32774113311E+03  0.35374125975E+03  0.12509000000E+03 0.  0.
         25    1    4    4    0    0  0.16507005258E+02  0.12570832968E+01  0.65395441877E+03  0.66601647984E+03  0.12509000000E+03 0.  0.
         25    1    4    4    0    0 -0.61294873899E+02  0.68155397965E+01  0.58770577820E+03  0.60402740251E+03  0.12509000000E+03 0.  0.
<mgrwt>
<rscale>  2 0.41672251E+03</rscale>
<asrwt>0</asrwt>
<pdfrwt beam="1">  1       21 0.23479306E+00 0.41672251E+03</pdfrwt>
<pdfrwt beam="2">  1       21 0.39988108E-02 0.41672251E+03</pdfrwt>
<totfact> 0.28462812E+04</totfact>
</mgrwt>
</event>
<event>
 7    0  0.4712189E-002  0.4554440E+03  0.7546771E-02  0.1026111E+00
         21   -1    0    0  502  501  0.00000000000E+00  0.00000000000E+00  0.30428859779E+03  0.30428859779E+03  0.00000000000E+00 0. -1.
         21   -1    0    0  501  502 -0.00000000000E+00 -0.00000000000E+00 -0.17042143011E+03  0.17042143011E+03  0.00000000000E+00 0. -1.
      99926    2    1    2    0    0  0.00000000000E+00  0.00000000000E+00  0.13386716768E+03  0.47471002790E+03  0.45544395045E+03 0.  0.
      99925    2    3    3    0    0 -0.15732049588E+02  0.68808479766E+02 -0.85630719605E+01  0.27243302590E+03  0.26299110846E+03 0.  0.
         25    1    4    4    0    0 -0.48295115865E+02  0.36329278788E+02 -0.80218238700E+01  0.13915492256E+03  0.12509000000E+03 0.  0.
         25    1    4    4    0    0  0.32563066277E+02  0.32479200978E+02 -0.54124809050E+00  0.13327810334E+03  0.12509000000E+03 0.  0.
         25    1    3    3    0    0  0.15732049588E+02 -0.68808479766E+02  0.14243023964E+03  0.20227700200E+03  0.12509000000E+03 0.  0.
<mgrwt>
<rscale>  2 0.45544395E+03</rscale>
<asrwt>0</asrwt>
<pdfrwt beam="1">  1       21 0.44748323E-01 0.45544395E+03</pdfrwt>
<pdfrwt beam="2">  1       21 0.25061975E-01 0.45544395E+03</pdfrwt>
<totfact> 0.66851417E+04</totfact>
</mgrwt>
</event>
<event>
 7    0  0.4712189E-002  0.4545655E+03  0.7546771E-02  0.1026369E+00
         21   -1    0    0  502  501  0.00000000000E+00  0.00000000000E+00  0.37847417518E+02  0.37847417518E+02  0.00000000000E+00 0. -1.
         21   -1    0    0  501  502 -0.00000000000E+00 -0.00000000000E+00 -0.13648872178E+04  0.13648872178E+04  0.00000000000E+00 0. -1.
      99926    2    1    2    0    0  0.00000000000E+00  0.00000000000E+00 -0.13270398003E+04  0.14027346353E+04  0.45456553498E+03 0.  0.
      99925    2    3    3    0    0 -0.70324176535E+02 -0.65337567392E+02 -0.10179069510E+04  0.10557114169E+04  0.26301624921E+03 0.  0.
         25    1    4    4    0    0 -0.60089598912E+02 -0.43431026474E+02 -0.42240991796E+03  0.44673779877E+03  0.12509000000E+03 0.  0.
         25    1    3    3    0    0  0.70324176535E+02  0.65337567392E+02 -0.30913284926E+03  0.34702321840E+03  0.12509000000E+03 0.  0.
         25    1    4    4    0    0 -0.10234577623E+02 -0.21906540917E+02 -0.59549703306E+03  0.60897361815E+03  0.12509000000E+03 0.  0.
<mgrwt>
<rscale>  2 0.45456553E+03</rscale>
<asrwt>0</asrwt>
<pdfrwt beam="1">  1       21 0.55657968E-02 0.45456553E+03</pdfrwt>
<pdfrwt beam="2">  1       21 0.20071870E+00 0.45456553E+03</pdfrwt>
<totfact> 0.26348064E+04</totfact>
</mgrwt>
</event>
<event>
 7    0  0.4712189E-002  0.4574582E+03  0.7546771E-02  0.1025521E+00
         21   -1    0    0  502  501  0.00000000000E+00  0.00000000000E+00  0.33678052142E+03  0.33678052142E+03  0.00000000000E+00 0.  1.
         21   -1    0    0  501  502 -0.00000000000E+00 -0.00000000000E+00 -0.15534451426E+03  0.15534451426E+03  0.00000000000E+00 0.  1.
      99926    2    1    2    0    0  0.00000000000E+00 -0.71054273576E-14  0.18143600715E+03  0.49212503568E+03  0.45745822328E+03 0.  0.
      99925    2    3    3    0    0 -0.39246269727E+02 -0.39474220349E+02  0.53155770177E+01  0.26904568260E+03  0.26317074345E+03 0.  0.
         25    1    4    4    0    0 -0.40270767684E+02 -0.54411087919E+02 -0.73927523326E+01  0.14242353073E+03  0.12509000000E+03 0.  0.
         25    1    4    4    0    0  0.10244979578E+01  0.14936867570E+02  0.12708329350E+02  0.12662215187E+03  0.12509000000E+03 0.  0.
         25    1    3    3    0    0  0.39246269727E+02  0.39474220349E+02  0.17612043013E+03  0.22307935308E+03  0.12509000000E+03 0.  0.
<mgrwt>
<rscale>  2 0.45745822E+03</rscale>
<asrwt>0</asrwt>
<pdfrwt beam="1">  1       21 0.49526547E-01 0.45745822E+03</pdfrwt>
<pdfrwt beam="2">  1       21 0.22844781E-01 0.45745822E+03</pdfrwt>
<totfact> 0.64558427E+04</totfact>
</mgrwt>
</event>
<event>
 7    0  0.4712189E-002  0.4564036E+03  0.7546771E-02  0.1025829E+00
         21   -1    0    0  502  501  0.00000000000E+00  0.00000000000E+00  0.45857547586E+02  0.45857547586E+02  0.00000000000E+00 0. -1.
         21   -1    0    0  501  502 -0.00000000000E+00 -0.00000000000E+00 -0.11356049547E+04  0.11356049547E+04  0.00000000000E+00 0. -1.
      99926    2    1    2    0    0  0.00000000000E+00  0.00000000000E+00 -0.10897474071E+04  0.11814625022E+04  0.45640358564E+03 0.  0.
      99925    2    3    3    0    0 -0.84581718946E+02  0.29395996375E+02 -0.86937546072E+03  0.91270704719E+03  0.26306324430E+03 0.  0.
         25    1    4    4    0    0 -0.70005597549E+02 -0.12464572683E+02 -0.49592064164E+03  0.51637286931E+03  0.12509000000E+03 0.  0.
         25    1    3    3    0    0  0.84581718946E+02 -0.29395996375E+02 -0.22037194635E+03  0.26875545505E+03  0.12509000000E+03 0.  0.
         25    1    4    4    0    0 -0.14576121397E+02  0.41860569058E+02 -0.37345481908E+03  0.39633417788E+03  0.12509000000E+03 0.  0.
<mgrwt>
<rscale>  2 0.45640359E+03</rscale>
<asrwt>0</asrwt>
<pdfrwt beam="1">  1       21 0.67437561E-02 0.45640359E+03</pdfrwt>
<pdfrwt beam="2">  1       21 0.16700075E+00 0.45640359E+03</pdfrwt>
<totfact> 0.32393374E+04</totfact>
</mgrwt>
</event>
<event>
 7    0  0.4712189E-002  0.4289595E+03  0.7546771E-02  0.1034189E+00
         21   -1    0    0  502  501  0.00000000000E+00  0.00000000000E+00  0.19785758651E+02  0.19785758651E+02  0.00000000000E+00 0.  1.
         21   -1    0    0  501  502 -0.00000000000E+00 -0.00000000000E+00 -0.23249839707E+04  0.23249839707E+04  0.00000000000E+00 0.  1.
      99926    2    1    2    0    0  0.00000000000E+00  0.00000000000E+00 -0.23051982120E+04  0.23447697293E+04  0.42895953987E+03 0.  0.
      99925    2    3    3    0    0  0.35806409291E+02 -0.12876963869E+02 -0.10626267583E+04  0.10953381622E+04  0.26294894378E+03 0.  0.
         25    1    4    4    0    0 -0.22687240850E+02 -0.57214789519E+01 -0.52784124139E+03  0.54296531236E+03  0.12509000000E+03 0.  0.
         25    1    3    3    0    0 -0.35806409291E+02  0.12876963869E+02 -0.12425714538E+04  0.12494315671E+04  0.12509000000E+03 0.  0.
         25    1    4    4    0    0  0.58493650141E+02 -0.71554849172E+01 -0.53478551687E+03  0.55237284983E+03  0.12509000000E+03 0.  0.
<mgrwt>
<rscale>  2 0.42895954E+03</rscale>
<asrwt>0</asrwt>
<pdfrwt beam="1">  1       21 0.29096725E-02 0.42895954E+03</pdfrwt>
<pdfrwt beam="2">  1       21 0.34190917E+00 0.42895954E+03</pdfrwt>
<totfact> 0.10897467E+04</totfact>
</mgrwt>
</event>
<event>
 7    0  0.4712189E-002  0.4537550E+03  0.7546771E-02  0.1026608E+00
         21   -1    0    0  502  501  0.00000000000E+00  0.00000000000E+00  0.67464178537E+02  0.67464178537E+02  0.00000000000E+00 0.  1.
         21   -1    0    0  501  502 -0.00000000000E+00 -0.00000000000E+00 -0.76297371738E+03  0.76297371738E+03  0.00000000000E+00 0.  1.
      99926    2    1    2    0    0 -0.17763568394E-14 -0.17763568394E-14 -0.69550953884E+03  0.83043789591E+03  0.45375497832E+03 0.  0.
      99925    2    3    3    0    0  0.11155992636E+02  0.86268144667E+01 -0.64149376647E+03  0.69345581729E+03  0.26299779470E+03 0.  0.
         25    1    3    3    0    0 -0.11155992636E+02 -0.86268144667E+01 -0.54015772374E+02  0.13698207863E+03  0.12509000000E+03 0.  0.
         25    1    4    4    0    0 -0.20983954708E+02  0.34304283627E+02 -0.33694333621E+03  0.36165650851E+03  0.12509000000E+03 0.  0.
         25    1    4    4    0    0  0.32139947344E+02 -0.25677469161E+02 -0.30455043026E+03  0.33179930878E+03  0.12509000000E+03 0.  0.
<mgrwt>
<rscale>  2 0.45375498E+03</rscale>
<asrwt>0</asrwt>
<pdfrwt beam="1">  1       21 0.99212021E-02 0.45375498E+03</pdfrwt>
<pdfrwt beam="2">  1       21 0.11220202E+00 0.45375498E+03</pdfrwt>
<totfact> 0.46782862E+04</totfact>
</mgrwt>
</event>
<event>
 7    0  0.4712189E-002  0.4797235E+03  0.7546771E-02  0.1019211E+00
         21   -1    0    0  502  501  0.00000000000E+00  0.00000000000E+00  0.16713897681E+03  0.16713897681E+03  0.00000000000E+00 0.  1.
         21   -1    0    0  501  502 -0.00000000000E+00 -0.00000000000E+00 -0.34422639499E+03  0.34422639499E+03  0.00000000000E+00 0.  1.
      99926    2    1    2    0    0 -0.14210854715E-13  0.22204460493E-14 -0.17708741817E+03  0.51136537180E+03  0.47972345138E+03 0.  0.
      99925    2    3    3    0    0  0.76069764277E+02 -0.35701462384E+01  0.98949775246E+01  0.27385899424E+03  0.26287160966E+03 0.  0.
         25    1    4    4    0    0  0.67176409454E+02  0.27167358425E+02  0.53811099933E+01  0.14466236482E+03  0.12509000000E+03 0.  0.
         25    1    4    4    0    0  0.88933548224E+01 -0.30737504664E+02  0.45138675313E+01  0.12919662942E+03  0.12509000000E+03 0.  0.
         25    1    3    3    0    0 -0.76069764277E+02  0.35701462384E+01 -0.18698239570E+03  0.23750637756E+03  0.12509000000E+03 0.  0.
<mgrwt>
<rscale>  2 0.47972345E+03</rscale>
<asrwt>0</asrwt>
<pdfrwt beam="1">  1       21 0.24579262E-01 0.47972345E+03</pdfrwt>
<pdfrwt beam="2">  1       21 0.50621528E-01 0.47972345E+03</pdfrwt>
<totfact> 0.53238369E+04</totfact>
</mgrwt>
</event>
<event>
 7    0  0.4712189E-002  0.4341103E+03  0.7546771E-02  0.1032569E+00
         21   -1    0    0  502  501  0.00000000000E+00  0.00000000000E+00  0.59146224301E+03  0.59146224301E+03  0.00000000000E+00 0. -1.
         21   -1    0    0  501  502 -0.00000000000E+00 -0.00000000000E+00 -0.79655014011E+02  0.79655014011E+02  0.00000000000E+00 0. -1.
      99926    2    1    2    0    0  0.00000000000E+00  0.00000000000E+00  0.51180722899E+03  0.67111725702E+03  0.43411027748E+03 0.  0.
      99925    2    3    3    0    0  0.78918825870E+02  0.21328100976E+02  0.26403277814E+03  0.38176840950E+03  0.26334528966E+03 0.  0.
         25    1    4    4    0    0  0.38949408404E+02  0.23402728705E+02  0.18694631145E+03  0.22948022919E+03  0.12509000000E+03 0.  0.
         25    1    4    4    0    0  0.39969417465E+02 -0.20746277290E+01  0.77086466699E+02  0.15228818031E+03  0.12509000000E+03 0.  0.
         25    1    3    3    0    0 -0.78918825870E+02 -0.21328100976E+02  0.24777445085E+03  0.28934884752E+03  0.12509000000E+03 0.  0.
<mgrwt>
<rscale>  2 0.43411028E+03</rscale>
<asrwt>0</asrwt>
<pdfrwt beam="1">  1       21 0.86979739E-01 0.43411028E+03</pdfrwt>
<pdfrwt beam="2">  1       21 0.11713973E-01 0.43411028E+03</pdfrwt>
<totfact> 0.64470267E+04</totfact>
</mgrwt>
</event>
<event>
 7    0  0.4712189E-002  0.4602456E+03  0.7546771E-02  0.1024710E+00
         21   -1    0    0  502  501  0.00000000000E+00  0.00000000000E+00  0.11656193470E+03  0.11656193470E+03  0.00000000000E+00 0.  1.
         21   -1    0    0  501  502 -0.00000000000E+00 -0.00000000000E+00 -0.45432076429E+03  0.45432076429E+03  0.00000000000E+00 0.  1.
      99926    2    1    2    0    0  0.00000000000E+00  0.00000000000E+00 -0.33775882959E+03  0.57088269900E+03  0.46024561817E+03 0.  0.
      99925    2    3    3    0    0 -0.36460339369E+02  0.22349881603E+02 -0.34796984051E+03  0.43829066907E+03  0.26303388971E+03 0.  0.
         25    1    4    4    0    0 -0.90015596333E+01 -0.17385667211E+02 -0.12381660136E+03  0.17709135601E+03  0.12509000000E+03 0.  0.
         25    1    3    3    0    0  0.36460339369E+02 -0.22349881603E+02  0.10211010926E+02  0.13259202992E+03  0.12509000000E+03 0.  0.
         25    1    4    4    0    0 -0.27458779736E+02  0.39735548814E+02 -0.22415323915E+03  0.26119931306E+03  0.12509000000E+03 0.  0.
<mgrwt>
<rscale>  2 0.46024562E+03</rscale>
<asrwt>0</asrwt>
<pdfrwt beam="1">  1       21 0.17141461E-01 0.46024562E+03</pdfrwt>
<pdfrwt beam="2">  1       21 0.66811877E-01 0.46024562E+03</pdfrwt>
<totfact> 0.58061111E+04</totfact>
</mgrwt>
</event>
<event>
 7    0  0.4712189E-002  0.4539648E+03  0.7546771E-02  0.1026546E+00
         21   -1    0    0  502  501  0.00000000000E+00  0.00000000000E+00  0.98609417552E+03  0.98609417552E+03  0.00000000000E+00 0.  1.
         21   -1    0    0  501  502 -0.00000000000E+00 -0.00000000000E+00 -0.52247547859E+02  0.52247547859E+02  0.00000000000E+00 0.  1.
      99926    2    1    2    0    0 -0.14210854715E-13  0.00000000000E+00  0.93384662766E+03  0.10383417234E+04  0.45396476792E+03 0.  0.
      99925    2    3    3    0    0 -0.71772081480E+02 -0.39902218441E+02  0.41488555401E+03  0.49823847141E+03  0.26337830730E+03 0.  0.
         25    1    4    4    0    0 -0.30124694585E+02 -0.11175334539E+02  0.27533772840E+03  0.30412293255E+03  0.12509000000E+03 0.  0.
         25    1    3    3    0    0  0.71772081480E+02  0.39902218441E+02  0.51896107366E+03  0.54010325197E+03  0.12509000000E+03 0.  0.
         25    1    4    4    0    0 -0.41647386895E+02 -0.28726883901E+02  0.13954782561E+03  0.19411553886E+03  0.12509000000E+03 0.  0.
<mgrwt>
<rscale>  2 0.45396477E+03</rscale>
<asrwt>0</asrwt>
<pdfrwt beam="1">  1       21 0.14501384E+00 0.45396477E+03</pdfrwt>
<pdfrwt beam="2">  1       21 0.76834635E-02 0.45396477E+03</pdfrwt>
<totfact> 0.38014378E+04</totfact>
</mgrwt>
</event>
<event>
 7    0  0.4712189E-002  0.4509178E+03  0.7546771E-02  0.1027449E+00
         21   -1    0    0  502  501  0.00000000000E+00  0.00000000000E+00  0.20526048128E+03  0.20526048128E+03  0.00000000000E+00 0.  1.
         21   -1    0    0  501  502 -0.00000000000E+00 -0.00000000000E+00 -0.24764496181E+03  0.24764496181E+03  0.00000000000E+00 0.  1.
      99926    2    1    2    0    0  0.00000000000E+00  0.00000000000E+00 -0.42384480525E+02  0.45290544309E+03  0.45091783751E+03 0.  0.
      99925    2    3    3    0    0 -0.73371719361E+02 -0.61167074336E+02 -0.80329380062E+02  0.29100379490E+03  0.26287940041E+03 0.  0.
         25    1    3    3    0    0  0.73371719361E+02  0.61167074336E+02  0.37944899537E+02  0.16190164819E+03  0.12509000000E+03 0.  0.
         25    1    4    4    0    0 -0.56857404928E+02 -0.44119314217E+02 -0.79200191871E+01  0.14453204899E+03  0.12509000000E+03 0.  0.
         25    1    4    4    0    0 -0.16514314433E+02 -0.17047760119E+02 -0.72409360875E+02  0.14647174591E+03  0.12509000000E+03 0.  0.
<mgrwt>
<rscale>  2 0.45091784E+03</rscale>
<asrwt>0</asrwt>
<pdfrwt beam="1">  1       21 0.30185365E-01 0.45091784E+03</pdfrwt>
<pdfrwt beam="2">  1       21 0.36418377E-01 0.45091784E+03</pdfrwt>
<totfact> 0.70983427E+04</totfact>
</mgrwt>
</event>
<event>
 7    0  0.4712189E-002  0.4473083E+03  0.7546771E-02  0.1028528E+00
         21   -1    0    0  502  501  0.00000000000E+00  0.00000000000E+00  0.33672968080E+03  0.33672968080E+03  0.00000000000E+00 0. -1.
         21   -1    0    0  501  502 -0.00000000000E+00 -0.00000000000E+00 -0.14854993003E+03  0.14854993003E+03  0.00000000000E+00 0. -1.
      99926    2    1    2    0    0 -0.14210854715E-13 -0.71054273576E-14  0.18817975077E+03  0.48527961082E+03  0.44730826293E+03 0.  0.
      99925    2    3    3    0    0  0.73299080679E+02  0.61116345332E+02  0.69421346981E+02  0.28815267338E+03  0.26287768423E+03 0.  0.
         25    1    4    4    0    0  0.29334622365E+02  0.68692656375E+02  0.23185785026E+02  0.14752725117E+03  0.12509000000E+03 0.  0.
         25    1    4    4    0    0  0.43964458314E+02 -0.75763110430E+01  0.46235561956E+02  0.14062542222E+03  0.12509000000E+03 0.  0.
         25    1    3    3    0    0 -0.73299080679E+02 -0.61116345332E+02  0.11875840379E+03  0.19712693744E+03  0.12509000000E+03 0.  0.
<mgrwt>
<rscale>  2 0.44730826E+03</rscale>
<asrwt>0</asrwt>
<pdfrwt beam="1">  1       21 0.49519071E-01 0.44730826E+03</pdfrwt>
<pdfrwt beam="2">  1       21 0.21845578E-01 0.44730826E+03</pdfrwt>
<totfact> 0.70526875E+04</totfact>
</mgrwt>
</event>
<event>
 7    0  0.4712189E-002  0.4661797E+03  0.7546771E-02  0.1023004E+00
         21   -1    0    0  502  501  0.00000000000E+00  0.00000000000E+00  0.58655187536E+03  0.58655187536E+03  0.00000000000E+00 0. -1.
         21   -1    0    0  501  502 -0.00000000000E+00 -0.00000000000E+00 -0.92627557993E+02  0.92627557993E+02  0.00000000000E+00 0. -1.
      99926    2    1    2    0    0  0.00000000000E+00  0.00000000000E+00  0.49392431736E+03  0.67917943335E+03  0.46617965572E+03 0.  0.
      99925    2    3    3    0    0  0.29944747137E+02  0.68515484109E+02  0.16489901301E+03  0.31932360326E+03  0.26303007369E+03 0.  0.
         25    1    4    4    0    0 -0.25842037631E+02  0.35010859056E+02  0.80801012520E+02  0.15514471594E+03  0.12509000000E+03 0.  0.
         25    1    3    3    0    0 -0.29944747137E+02 -0.68515484109E+02  0.32902530436E+03  0.35985583009E+03  0.12509000000E+03 0.  0.
         25    1    4    4    0    0  0.55786784768E+02  0.33504625053E+02  0.84098000488E+02  0.16417888732E+03  0.12509000000E+03 0.  0.
<mgrwt>
<rscale>  2 0.46617966E+03</rscale>
<asrwt>0</asrwt>
<pdfrwt beam="1">  1       21 0.86257627E-01 0.46617966E+03</pdfrwt>
<pdfrwt beam="2">  1       21 0.13621700E-01 0.46617966E+03</pdfrwt>
<totfact> 0.49537435E+04</totfact>
</mgrwt>
</event>
<event>
 7    0  0.4712189E-002  0.4559101E+03  0.7546771E-02  0.1025974E+00
         21   -1    0    0  502  501  0.00000000000E+00  0.00000000000E+00  0.65665926405E+03  0.65665926405E+03  0.00000000000E+00 0. -1.
         21   -1    0    0  501  502 -0.00000000000E+00 -0.00000000000E+00 -0.79133147554E+02  0.79133147554E+02  0.00000000000E+00 0. -1.
      99926    2    1    2    0    0  0.00000000000E+00  0.00000000000E+00  0.57752611650E+03  0.73579241160E+03  0.45591014218E+03 0.  0.
      99925    2    3    3    0    0  0.48474737596E+02 -0.47225609034E+02  0.21477076769E+03  0.34615282234E+03  0.26289776611E+03 0.  0.
         25    1    3    3    0    0 -0.48474737596E+02  0.47225609034E+02  0.36275534880E+03  0.38963958926E+03  0.12509000000E+03 0.  0.
         25    1    4    4    0    0  0.31173126655E+02 -0.13328424076E+02  0.15596664016E+03  0.20278686263E+03  0.12509000000E+03 0.  0.
         25    1    4    4    0    0  0.17301610941E+02 -0.33897184959E+02  0.58804127536E+02  0.14336595971E+03  0.12509000000E+03 0.  0.
<mgrwt>
<rscale>  2 0.45591014E+03</rscale>
<asrwt>0</asrwt>
<pdfrwt beam="1">  1       21 0.96567536E-01 0.45591014E+03</pdfrwt>
<pdfrwt beam="2">  1       21 0.11637228E-01 0.45591014E+03</pdfrwt>
<totfact> 0.50639049E+04</totfact>
</mgrwt>
</event>
<event>
 7    0  0.4712189E-002  0.4067234E+03  0.7546771E-02  0.1041476E+00
         21   -1    0    0  502  501  0.00000000000E+00  0.00000000000E+00  0.10110346525E+04  0.10110346525E+04  0.00000000000E+00 0.  1.
         21   -1    0    0  501  502 -0.00000000000E+00 -0.00000000000E+00 -0.40904604582E+02  0.40904604582E+02  0.00000000000E+00 0.  1.
      99926    2    1    2    0    0  0.00000000000E+00  0.35527136788E-14  0.97013004787E+03  0.10519392570E+04  0.40672335894E+03 0.  0.
      99925    2    3    3    0    0  0.54236002304E+02 -0.16558097976E+02  0.61644275995E+03  0.67252138675E+03  0.26280720079E+03 0.  0.
         25    1    3    3    0    0 -0.54236002304E+02  0.16558097976E+02  0.35368728792E+03  0.37941787028E+03  0.12509000000E+03 0.  0.
         25    1    4    4    0    0  0.16242205648E+02  0.16599730690E+02  0.37455547965E+03  0.39557385623E+03  0.12509000000E+03 0.  0.
         25    1    4    4    0    0  0.37993796656E+02 -0.33157828666E+02  0.24188728031E+03  0.27694753052E+03  0.12509000000E+03 0.  0.
<mgrwt>
<rscale>  2 0.40672336E+03</rscale>
<asrwt>0</asrwt>
<pdfrwt beam="1">  1       21 0.14868155E+00 0.40672336E+03</pdfrwt>
<pdfrwt beam="2">  1       21 0.60153837E-02 0.40672336E+03</pdfrwt>
<totfact> 0.55279201E+04</totfact>
</mgrwt>
</event>
<event>
 7    0  0.4712189E-002  0.4530340E+03  0.7546771E-02  0.1026821E+00
         21   -1    0    0  502  501  0.00000000000E+00  0.00000000000E+00  0.47615883578E+02  0.47615883578E+02  0.00000000000E+00 0.  1.
         21   -1    0    0  501  502 -0.00000000000E+00 -0.00000000000E+00 -0.10775807034E+04  0.10775807034E+04  0.00000000000E+00 0.  1.
      99926    2    1    2    0    0  0.00000000000E+00 -0.71054273576E-14 -0.10299648198E+04  0.11251965870E+04  0.45303402662E+03 0.  0.
      99925    2    3    3    0    0 -0.43502447351E+02  0.61568576308E+02 -0.44601517658E+03  0.52325984075E+03  0.26303644366E+03 0.  0.
         25    1    4    4    0    0 -0.33825111158E+02 -0.80363656482E+01 -0.22446193984E+03  0.25930559549E+03  0.12509000000E+03 0.  0.
         25    1    3    3    0    0  0.43502447351E+02 -0.61568576308E+02 -0.58394964323E+03  0.60193674622E+03  0.12509000000E+03 0.  0.
         25    1    4    4    0    0 -0.96773361935E+01  0.69604941956E+02 -0.22155323674E+03  0.26395424526E+03  0.12509000000E+03 0.  0.
<mgrwt>
<rscale>  2 0.45303403E+03</rscale>
<asrwt>0</asrwt>
<pdfrwt beam="1">  1       21 0.70023359E-02 0.45303403E+03</pdfrwt>
<pdfrwt beam="2">  1       21 0.15846775E+00 0.45303403E+03</pdfrwt>
<totfact> 0.35157111E+04</totfact>
</mgrwt>
</event>
<event>
 7    0  0.4712189E-002  0.4646786E+03  0.7546771E-02  0.1023433E+00
         21   -1    0    0  502  501  0.00000000000E+00  0.00000000000E+00  0.62993531386E+02  0.62993531386E+02  0.00000000000E+00 0.  1.
         21   -1    0    0  501  502 -0.00000000000E+00 -0.00000000000E+00 -0.85693808080E+03  0.85693808080E+03  0.00000000000E+00 0.  1.
      99926    2    1    2    0    0 -0.14210854715E-13 -0.14210854715E-13 -0.79394454941E+03  0.91993161218E+03  0.46467862395E+03 0.  0.
      99925    2    3    3    0    0  0.95084413574E+02  0.71073795664E+02 -0.44029309460E+03  0.52647336825E+03  0.26310391138E+03 0.  0.
         25    1    4    4    0    0  0.96998707112E+01  0.16558222415E+02 -0.21706877759E+03  0.25126604332E+03  0.12509000000E+03 0.  0.
         25    1    3    3    0    0 -0.95084413574E+02 -0.71073795664E+02 -0.35365145481E+03  0.39345824394E+03  0.12509000000E+03 0.  0.
         25    1    4    4    0    0  0.85384542862E+02  0.54515573249E+02 -0.22322431701E+03  0.27520732493E+03  0.12509000000E+03 0.  0.
<mgrwt>
<rscale>  2 0.46467862E+03</rscale>
<asrwt>0</asrwt>
<pdfrwt beam="1">  1       21 0.92637556E-02 0.46467862E+03</pdfrwt>
<pdfrwt beam="2">  1       21 0.12602029E+00 0.46467862E+03</pdfrwt>
<totfact> 0.39318797E+04</totfact>
</mgrwt>
</event>
<event>
 7    0  0.4712189E-002  0.4388989E+03  0.7546771E-02  0.1031085E+00
         21   -1    0    0  502  501  0.00000000000E+00  0.00000000000E+00  0.49610437846E+03  0.49610437846E+03  0.00000000000E+00 0.  1.
         21   -1    0    0  501  502 -0.00000000000E+00 -0.00000000000E+00 -0.97072445042E+02  0.97072445042E+02  0.00000000000E+00 0.  1.
      99926    2    1    2    0    0  0.88817841970E-15  0.00000000000E+00  0.39903193342E+03  0.59317682350E+03  0.43889891781E+03 0.  0.
      99925    2    3    3    0    0  0.49466227934E+01  0.79333867502E+02  0.17904298463E+03  0.32792038664E+03  0.26297729563E+03 0.  0.
         25    1    4    4    0    0  0.11349033635E+02  0.79339960690E+01  0.53526465767E+02  0.13676380916E+03  0.12509000000E+03 0.  0.
         25    1    4    4    0    0 -0.64024108411E+01  0.71399871433E+02  0.12551651887E+03  0.19115657748E+03  0.12509000000E+03 0.  0.
         25    1    3    3    0    0 -0.49466227934E+01 -0.79333867502E+02  0.21998894878E+03  0.26525643686E+03  0.12509000000E+03 0.  0.
<mgrwt>
<rscale>  2 0.43889892E+03</rscale>
<asrwt>0</asrwt>
<pdfrwt beam="1">  1       21 0.72956525E-01 0.43889892E+03</pdfrwt>
<pdfrwt beam="2">  1       21 0.14275360E-01 0.43889892E+03</pdfrwt>
<totfact> 0.67257932E+04</totfact>
</mgrwt>
</event>
<event>
 7    0  0.4712189E-002  0.4505884E+03  0.7546771E-02  0.1027547E+00
         21   -1    0    0  502  501  0.00000000000E+00  0.00000000000E+00  0.25494979513E+03  0.25494979513E+03  0.00000000000E+00 0.  1.
         21   -1    0    0  501  502 -0.00000000000E+00 -0.00000000000E+00 -0.19908814187E+03  0.19908814187E+03  0.00000000000E+00 0.  1.
      99926    2    1    2    0    0 -0.71054273576E-14  0.14210854715E-13  0.55861653255E+02  0.45403793700E+03  0.45058841966E+03 0.  0.
      99925    2    3    3    0    0 -0.63150065377E+02  0.69588421347E+02 -0.19931401814E+02  0.28019152652E+03  0.26321009025E+03 0.  0.
         25    1    4    4    0    0 -0.75398247471E+01  0.66006698390E+02 -0.21383810557E+02  0.14324283104E+03  0.12509000000E+03 0.  0.
         25    1    4    4    0    0 -0.55610240630E+02  0.35817229569E+01  0.14524087432E+01  0.13694869548E+03  0.12509000000E+03 0.  0.
         25    1    3    3    0    0  0.63150065377E+02 -0.69588421347E+02  0.75793055070E+02  0.17384641049E+03  0.12509000000E+03 0.  0.
<mgrwt>
<rscale>  2 0.45058842E+03</rscale>
<asrwt>0</asrwt>
<pdfrwt beam="1">  1       21 0.37492617E-01 0.45058842E+03</pdfrwt>
<pdfrwt beam="2">  1       21 0.29277668E-01 0.45058842E+03</pdfrwt>
<totfact> 0.71085425E+04</totfact>
</mgrwt>
</event>
<event>
 7    0  0.4712189E-002  0.4480213E+03  0.7546771E-02  0.1028314E+00
         21   -1    0    0  502  501  0.00000000000E+00  0.00000000000E+00  0.18152918233E+03  0.18152918233E+03  0.00000000000E+00 0. -1.
         21   -1    0    0  501  502 -0.00000000000E+00 -0.00000000000E+00 -0.27643358681E+03  0.27643358681E+03  0.00000000000E+00 0. -1.
      99926    2    1    2    0    0  0.35527136788E-14  0.14210854715E-13 -0.94904404477E+02  0.45796276914E+03  0.44802126280E+03 0.  0.
      99925    2    3    3    0    0  0.26802691781E+02  0.98221692200E+02 -0.91797815366E+02  0.29664617327E+03  0.26307076634E+03 0.  0.
         25    1    4    4    0    0  0.94023387009E+01  0.88712928594E+02 -0.33650283357E+02  0.15728393860E+03  0.12509000000E+03 0.  0.
         25    1    4    4    0    0  0.17400353080E+02  0.95087636070E+01 -0.58147532009E+02  0.13936223467E+03  0.12509000000E+03 0.  0.
         25    1    3    3    0    0 -0.26802691781E+02 -0.98221692200E+02 -0.31065891107E+01  0.16131659586E+03  0.12509000000E+03 0.  0.
<mgrwt>
<rscale>  2 0.44802126E+03</rscale>
<asrwt>0</asrwt>
<pdfrwt beam="1">  1       21 0.26695468E-01 0.44802126E+03</pdfrwt>
<pdfrwt beam="2">  1       21 0.40651997E-01 0.44802126E+03</pdfrwt>
<totfact> 0.72259975E+04</totfact>
</mgrwt>
</event>
<event>
 7    0  0.4712189E-002  0.4480387E+03  0.7546771E-02  0.1028309E+00
         21   -1    0    0  502  501  0.00000000000E+00  0.00000000000E+00  0.86189079899E+02  0.86189079899E+02  0.00000000000E+00 0. -1.
         21   -1    0    0  501  502 -0.00000000000E+00 -0.00000000000E+00 -0.58226257120E+03  0.58226257120E+03  0.00000000000E+00 0. -1.
      99926    2    1    2    0    0  0.00000000000E+00  0.00000000000E+00 -0.49607349130E+03  0.66845165110E+03  0.44803872722E+03 0.  0.
      99925    2    3    3    0    0  0.78864964773E+02 -0.70445887481E+02 -0.29473096511E+03  0.40889698116E+03  0.26296025114E+03 0.  0.
         25    1    3    3    0    0 -0.78864964773E+02  0.70445887481E+02 -0.20134252619E+03  0.25955466993E+03  0.12509000000E+03 0.  0.
         25    1    4    4    0    0  0.24669990459E+01 -0.50268758797E+02 -0.12690625755E+03  0.18516409074E+03  0.12509000000E+03 0.  0.
         25    1    4    4    0    0  0.76397965727E+02 -0.20177128685E+02 -0.16782470756E+03  0.22373289042E+03  0.12509000000E+03 0.  0.
<mgrwt>
<rscale>  2 0.44803873E+03</rscale>
<asrwt>0</asrwt>
<pdfrwt beam="1">  1       21 0.12674865E-01 0.44803873E+03</pdfrwt>
<pdfrwt beam="2">  1       21 0.85626846E-01 0.44803873E+03</pdfrwt>
<totfact> 0.57752811E+04</totfact>
</mgrwt>
</event>
<event>
 7    0  0.4712189E-002  0.4553827E+03  0.7546771E-02  0.1026129E+00
         21   -1    0    0  502  501  0.00000000000E+00  0.00000000000E+00  0.65944571116E+02  0.65944571116E+02  0.00000000000E+00 0.  1.
         21   -1    0    0  501  502 -0.00000000000E+00 -0.00000000000E+00 -0.78616550755E+03  0.78616550755E+03  0.00000000000E+00 0.  1.
      99926    2    1    2    0    0  0.00000000000E+00  0.00000000000E+00 -0.72022093643E+03  0.85211007867E+03  0.45538268400E+03 0.  0.
      99925    2    3    3    0    0  0.96055448026E+02  0.60263628270E+02 -0.46413435292E+03  0.54537533928E+03  0.26297378035E+03 0.  0.
         25    1    3    3    0    0 -0.96055448026E+02 -0.60263628270E+02 -0.25608658352E+03  0.30673473938E+03  0.12509000000E+03 0.  0.
         25    1    4    4    0    0  0.15674871287E+02  0.24922403123E+02 -0.26345425074E+03  0.29312536243E+03  0.12509000000E+03 0.  0.
         25    1    4    4    0    0  0.80380576739E+02  0.35341225147E+02 -0.20068010218E+03  0.25224997685E+03  0.12509000000E+03 0.  0.
<mgrwt>
<rscale>  2 0.45538268E+03</rscale>
<asrwt>0</asrwt>
<pdfrwt beam="1">  1       21 0.96977321E-02 0.45538268E+03</pdfrwt>
<pdfrwt beam="2">  1       21 0.11561256E+00 0.45538268E+03</pdfrwt>
<totfact> 0.45209267E+04</totfact>
</mgrwt>
</event>
<event>
 7    0  0.4712189E-002  0.4566689E+03  0.7546771E-02  0.1025752E+00
         21   -1    0    0  502  501  0.00000000000E+00  0.00000000000E+00  0.11892037874E+03  0.11892037874E+03  0.00000000000E+00 0. -1.
         21   -1    0    0  501  502 -0.00000000000E+00 -0.00000000000E+00 -0.43841613339E+03  0.43841613339E+03  0.00000000000E+00 0. -1.
      99926    2    1    2    0    0  0.00000000000E+00  0.14210854715E-13 -0.31949575465E+03  0.55733651213E+03  0.45666886309E+03 0.  0.
      99925    2    3    3    0    0 -0.67054338193E+02  0.85346040364E+02 -0.15540626937E+03  0.32419900302E+03  0.26300884799E+03 0.  0.
         25    1    3    3    0    0  0.67054338193E+02 -0.85346040364E+02 -0.16408948528E+03  0.23313750912E+03  0.12509000000E+03 0.  0.
         25    1    4    4    0    0 -0.30115719239E+02  0.83369697013E+02 -0.95777817728E+02  0.18077157242E+03  0.12509000000E+03 0.  0.
         25    1    4    4    0    0 -0.36938618954E+02  0.19763433509E+01 -0.59628451641E+02  0.14342743060E+03  0.12509000000E+03 0.  0.
<mgrwt>
<rscale>  2 0.45666886E+03</rscale>
<asrwt>0</asrwt>
<pdfrwt beam="1">  1       21 0.17488291E-01 0.45666886E+03</pdfrwt>
<pdfrwt beam="2">  1       21 0.64472960E-01 0.45666886E+03</pdfrwt>
<totfact> 0.60580575E+04</totfact>
</mgrwt>
</event>
<event>
 7    0  0.4712189E-002  0.4350149E+03  0.7546771E-02  0.1032287E+00
         21   -1    0    0  502  501  0.00000000000E+00  0.00000000000E+00  0.17293151396E+03  0.17293151396E+03  0.00000000000E+00 0. -1.
         21   -1    0    0  501  502 -0.00000000000E+00 -0.00000000000E+00 -0.27357358945E+03  0.27357358945E+03  0.00000000000E+00 0. -1.
      99926    2    1    2    0    0  0.00000000000E+00  0.00000000000E+00 -0.10064207549E+03  0.44650510340E+03  0.43501491929E+03 0.  0.
      99925    2    3    3    0    0  0.54822197258E+02  0.70915499656E+02 -0.90661525424E+02  0.29229226061E+03  0.26302237930E+03 0.  0.
         25    1    4    4    0    0 -0.85898825509E+01  0.47540755117E+02 -0.59683939297E+02  0.14677734903E+03  0.12509000000E+03 0.  0.
         25    1    4    4    0    0  0.63412079809E+02  0.23374744539E+02 -0.30977586127E+02  0.14551491157E+03  0.12509000000E+03 0.  0.
         25    1    3    3    0    0 -0.54822197258E+02 -0.70915499656E+02 -0.99805500656E+01  0.15421284280E+03  0.12509000000E+03 0.  0.
<mgrwt>
<rscale>  2 0.43501492E+03</rscale>
<asrwt>0</asrwt>
<pdfrwt beam="1">  1       21 0.25431105E-01 0.43501492E+03</pdfrwt>
<pdfrwt beam="2">  1       21 0.40231410E-01 0.43501492E+03</pdfrwt>
<totfact> 0.81378440E+04</totfact>
</mgrwt>
</event>
<event>
 7    0  0.4712189E-002  0.4600399E+03  0.7546771E-02  0.1024770E+00
         21   -1    0    0  502  501  0.00000000000E+00  0.00000000000E+00  0.15436839814E+03  0.15436839814E+03  0.00000000000E+00 0. -1.
         21   -1    0    0  501  502 -0.00000000000E+00 -0.00000000000E+00 -0.34274616412E+03  0.34274616412E+03  0.00000000000E+00 0. -1.
      99926    2    1    2    0    0  0.71054273576E-14  0.00000000000E+00 -0.18837776598E+03  0.49711456227E+03  0.46003989534E+03 0.  0.
      99925    2    3    3    0    0 -0.61010547384E+02  0.50331997356E+01 -0.22683250630E+03  0.35263655306E+03  0.26296755055E+03 0.  0.
         25    1    3    3    0    0  0.61010547384E+02 -0.50331997356E+01  0.38454740327E+02  0.14447800921E+03  0.12509000000E+03 0.  0.
         25    1    4    4    0    0 -0.29192719039E+02  0.85369598504E-01 -0.60351062410E+02  0.14192244702E+03  0.12509000000E+03 0.  0.
         25    1    4    4    0    0 -0.31817828346E+02  0.49478301371E+01 -0.16648144389E+03  0.21071410604E+03  0.12509000000E+03 0.  0.
<mgrwt>
<rscale>  2 0.46003990E+03</rscale>
<asrwt>0</asrwt>
<pdfrwt beam="1">  1       21 0.22701235E-01 0.46003990E+03</pdfrwt>
<pdfrwt beam="2">  1       21 0.50403848E-01 0.46003990E+03</pdfrwt>
<totfact> 0.62918573E+04</totfact>
</mgrwt>
</event>
<event>
 7    0  0.4712189E-002  0.4543830E+03  0.7546771E-02  0.1026423E+00
         21   -1    0    0  502  501  0.00000000000E+00  0.00000000000E+00  0.51516728032E+02  0.51516728032E+02  0.00000000000E+00 0.  1.
         21   -1    0    0  501  502 -0.00000000000E+00 -0.00000000000E+00 -0.10019266647E+04  0.10019266647E+04  0.00000000000E+00 0.  1.
      99926    2    1    2    0    0  0.00000000000E+00  0.00000000000E+00 -0.95040993666E+03  0.10534433927E+04  0.45438302562E+03 0.  0.
      99925    2    3    3    0    0 -0.94556167403E+02 -0.25756308779E+02 -0.72688068968E+03  0.77918605264E+03  0.26300401396E+03 0.  0.
         25    1    4    4    0    0 -0.41981256427E+02  0.23950345316E+02 -0.30299044937E+03  0.33134085990E+03  0.12509000000E+03 0.  0.
         25    1    3    3    0    0  0.94556167403E+02  0.25756308779E+02 -0.22352924699E+03  0.27425734009E+03  0.12509000000E+03 0.  0.
         25    1    4    4    0    0 -0.52574910976E+02 -0.49706654095E+02 -0.42389024031E+03  0.44784519274E+03  0.12509000000E+03 0.  0.
<mgrwt>
<rscale>  2 0.45438303E+03</rscale>
<asrwt>0</asrwt>
<pdfrwt beam="1">  1       21 0.75759898E-02 0.45438303E+03</pdfrwt>
<pdfrwt beam="2">  1       21 0.14734215E+00 0.45438303E+03</pdfrwt>
<totfact> 0.37330732E+04</totfact>
</mgrwt>
</event>
<event>
 7    0  0.4712189E-002  0.4538023E+03  0.7546771E-02  0.1026594E+00
         21   -1    0    0  502  501  0.00000000000E+00  0.00000000000E+00  0.16887257012E+03  0.16887257012E+03  0.00000000000E+00 0. -1.
         21   -1    0    0  501  502 -0.00000000000E+00 -0.00000000000E+00 -0.30486967307E+03  0.30486967307E+03  0.00000000000E+00 0. -1.
      99926    2    1    2    0    0  0.00000000000E+00  0.00000000000E+00 -0.13599710295E+03  0.47374224320E+03  0.45380227079E+03 0.  0.
      99925    2    3    3    0    0 -0.91545419660E+02  0.49108283901E+02 -0.41897077144E+02  0.28587391067E+03  0.26301395461E+03 0.  0.
         25    1    4    4    0    0 -0.27893968198E+02  0.60615035318E+02 -0.15788904036E+02  0.14265010886E+03  0.12509000000E+03 0.  0.
         25    1    4    4    0    0 -0.63651451462E+02 -0.11506751417E+02 -0.26108173108E+02  0.14322380181E+03  0.12509000000E+03 0.  0.
         25    1    3    3    0    0  0.91545419660E+02 -0.49108283901E+02 -0.94100025806E+02  0.18786833252E+03  0.12509000000E+03 0.  0.
<mgrwt>
<rscale>  2 0.45380227E+03</rscale>
<asrwt>0</asrwt>
<pdfrwt beam="1">  1       21 0.24834202E-01 0.45380227E+03</pdfrwt>
<pdfrwt beam="2">  1       21 0.44833775E-01 0.45380227E+03</pdfrwt>
<totfact> 0.67800666E+04</totfact>
</mgrwt>
</event>
<event>
 7    0  0.4712189E-002  0.4608126E+03  0.7546771E-02  0.1024546E+00
         21   -1    0    0  502  501  0.00000000000E+00  0.00000000000E+00  0.48677861396E+02  0.48677861396E+02  0.00000000000E+00 0. -1.
         21   -1    0    0  501  502 -0.00000000000E+00 -0.00000000000E+00 -0.10905792970E+04  0.10905792970E+04  0.00000000000E+00 0. -1.
      99926    2    1    2    0    0  0.00000000000E+00  0.14210854715E-13 -0.10419014357E+04  0.11392571584E+04  0.46081262076E+03 0.  0.
      99925    2    3    3    0    0  0.25785875144E+02 -0.11032017818E+03 -0.56639507241E+03  0.63468876600E+03  0.26304181904E+03 0.  0.
         25    1    4    4    0    0  0.36172615286E+02 -0.91378805683E+02 -0.33121940222E+03  0.36744026009E+03  0.12509000000E+03 0.  0.
         25    1    4    4    0    0 -0.10386740142E+02 -0.18941372502E+02 -0.23517567018E+03  0.26724850591E+03  0.12509000000E+03 0.  0.
         25    1    3    3    0    0 -0.25785875144E+02  0.11032017818E+03 -0.47550636324E+03  0.50456839245E+03  0.12509000000E+03 0.  0.
<mgrwt>
<rscale>  2 0.46081262E+03</rscale>
<asrwt>0</asrwt>
<pdfrwt beam="1">  1       21 0.71585096E-02 0.46081262E+03</pdfrwt>
<pdfrwt beam="2">  1       21 0.16037930E+00 0.46081262E+03</pdfrwt>
<totfact> 0.32639048E+04</totfact>
</mgrwt>
</event>
<event>
 7    0  0.4712189E-002  0.4536764E+03  0.7546771E-02  0.1026631E+00
         21   -1    0    0  502  501  0.00000000000E+00  0.00000000000E+00  0.75615880020E+03  0.75615880020E+03  0.00000000000E+00 0.  1.
         21   -1    0    0  501  502 -0.00000000000E+00 -0.00000000000E+00 -0.68048634944E+02  0.68048634944E+02  0.00000000000E+00 0.  1.
      99926    2    1    2    0    0  0.00000000000E+00  0.00000000000E+00  0.68811016525E+03  0.82420743514E+03  0.45367642281E+03 0.  0.
      99925    2    3    3    0    0  0.11068390541E+03  0.15704670815E+02  0.44923758547E+03  0.53230816986E+03  0.26275466864E+03 0.  0.
         25    1    4    4    0    0  0.68106499535E+02 -0.27686044801E+02  0.20325988559E+03  0.24973406164E+03  0.12509000000E+03 0.  0.
         25    1    4    4    0    0  0.42577405873E+02  0.43390715616E+02  0.24597769988E+03  0.28257410821E+03  0.12509000000E+03 0.  0.
         25    1    3    3    0    0 -0.11068390541E+03 -0.15704670815E+02  0.23887257978E+03  0.29189926529E+03  0.12509000000E+03 0.  0.
<mgrwt>
<rscale>  2 0.45367642E+03</rscale>
<asrwt>0</asrwt>
<pdfrwt beam="1">  1       21 0.11119982E+00 0.45367642E+03</pdfrwt>
<pdfrwt beam="2">  1       21 0.10007153E-01 0.45367642E+03</pdfrwt>
<totfact> 0.47103401E+04</totfact>
</mgrwt>
</event>
<event>
 7    0  0.4712189E-002  0.4548136E+03  0.7546771E-02  0.1026296E+00
         21   -1    0    0  502  501  0.00000000000E+00  0.00000000000E+00  0.87776148851E+03  0.87776148851E+03  0.00000000000E+00 0. -1.
         21   -1    0    0  501  502 -0.00000000000E+00 -0.00000000000E+00 -0.58915618148E+02  0.58915618148E+02  0.00000000000E+00 0. -1.
      99926    2    1    2    0    0  0.00000000000E+00  0.00000000000E+00  0.81884587036E+03  0.93667710666E+03  0.45481363516E+03 0.  0.
      99925    2    3    3    0    0  0.16600500052E+02  0.10391694519E+03  0.59984149985E+03  0.66339203480E+03  0.26306816378E+03 0.  0.
         25    1    4    4    0    0 -0.64020482227E+01  0.65931345283E+02  0.22582039593E+03  0.26651507993E+03  0.12509000000E+03 0.  0.
         25    1    4    4    0    0  0.23002548275E+02  0.37985599903E+02  0.37402110393E+03  0.39687695487E+03  0.12509000000E+03 0.  0.
         25    1    3    3    0    0 -0.16600500052E+02 -0.10391694519E+03  0.21900437051E+03  0.27328507186E+03  0.12509000000E+03 0.  0.
<mgrwt>
<rscale>  2 0.45481364E+03</rscale>
<asrwt>0</asrwt>
<pdfrwt beam="1">  1       21 0.12908256E+00 0.45481364E+03</pdfrwt>
<pdfrwt beam="2">  1       21 0.86640620E-02 0.45481364E+03</pdfrwt>
<totfact> 0.41745866E+04</totfact>
</mgrwt>
</event>
<event>
 7    0  0.4712189E-002  0.4544706E+03  0.7546771E-02  0.1026397E+00
         21   -1    0    0  502  501  0.00000000000E+00  0.00000000000E+00  0.32637846972E+03  0.32637846972E+03  0.00000000000E+00 0.  1.
         21   -1    0    0  501  502 -0.00000000000E+00 -0.00000000000E+00 -0.15820858154E+03  0.15820858154E+03  0.00000000000E+00 0.  1.
      99926    2    1    2    0    0  0.00000000000E+00 -0.35527136788E-14  0.16816988818E+03  0.48458705125E+03  0.45447056995E+03 0.  0.
      99925    2    3    3    0    0 -0.56361335216E+02  0.26727013374E+02  0.20594194624E+03  0.33979350920E+03  0.26297644442E+03 0.  0.
         25    1    4    4    0    0 -0.25254951064E+02  0.53026429944E+02  0.11608135233E+03  0.18047715447E+03  0.12509000000E+03 0.  0.
         25    1    4    4    0    0 -0.31106384152E+02 -0.26299416570E+02  0.89860593906E+02  0.15931635473E+03  0.12509000000E+03 0.  0.
         25    1    3    3    0    0  0.56361335216E+02 -0.26727013374E+02 -0.37772058061E+02  0.14479354206E+03  0.12509000000E+03 0.  0.
<mgrwt>
<rscale>  2 0.45447057E+03</rscale>
<asrwt>0</asrwt>
<pdfrwt beam="1">  1       21 0.47996834E-01 0.45447057E+03</pdfrwt>
<pdfrwt beam="2">  1       21 0.23265968E-01 0.45447057E+03</pdfrwt>
<totfact> 0.66647352E+04</totfact>
</mgrwt>
</event>
<event>
 7    0  0.4712189E-002  0.4434246E+03  0.7546771E-02  0.1029701E+00
         21   -1    0    0  502  501  0.00000000000E+00  0.00000000000E+00  0.88874987029E+02  0.88874987029E+02  0.00000000000E+00 0.  1.
         21   -1    0    0  501  502 -0.00000000000E+00 -0.00000000000E+00 -0.55309546110E+03  0.55309546110E+03  0.00000000000E+00 0.  1.
      99926    2    1    2    0    0 -0.14210854715E-13  0.00000000000E+00 -0.46422047407E+03  0.64197044813E+03  0.44342463590E+03 0.  0.
      99925    2    3    3    0    0  0.77019035752E+02 -0.54501703931E+02 -0.35435975502E+03  0.45060887077E+03  0.26186857551E+03 0.  0.
         25    1    4    4    0    0  0.85193674356E+01 -0.44464030860E+02 -0.20008462386E+03  0.24027275015E+03  0.12509000000E+03 0.  0.
         25    1    3    3    0    0 -0.77019035752E+02  0.54501703931E+02 -0.10986071905E+03  0.19136157736E+03  0.12509000000E+03 0.  0.
         25    1    4    4    0    0  0.68499668317E+02 -0.10037673071E+02 -0.15427513116E+03  0.21033612062E+03  0.12509000000E+03 0.  0.
<mgrwt>
<rscale>  2 0.44342464E+03</rscale>
<asrwt>0</asrwt>
<pdfrwt beam="1">  1       21 0.13069851E-01 0.44342464E+03</pdfrwt>
<pdfrwt beam="2">  1       21 0.81337566E-01 0.44342464E+03</pdfrwt>
<totfact> 0.61602973E+04</totfact>
</mgrwt>
</event>
<event>
 7    0  0.4712189E-002  0.4474379E+03  0.7546771E-02  0.1028489E+00
         21   -1    0    0  502  501  0.00000000000E+00  0.00000000000E+00  0.12118723567E+04  0.12118723567E+04  0.00000000000E+00 0. -1.
         21   -1    0    0  501  502 -0.00000000000E+00 -0.00000000000E+00 -0.41299864468E+02  0.41299864468E+02  0.00000000000E+00 0. -1.
      99926    2    1    2    0    0  0.71054273576E-14  0.35527136788E-14  0.11705724923E+04  0.12531722212E+04  0.44743787987E+03 0.  0.
      99925    2    3    3    0    0 -0.45268933378E+02 -0.23071335296E+02  0.10018656963E+04  0.10370910930E+04  0.26313779472E+03 0.  0.
         25    1    3    3    0    0  0.45268933378E+02  0.23071335296E+02  0.16870679599E+03  0.21608112818E+03  0.12509000000E+03 0.  0.
         25    1    4    4    0    0 -0.24990407018E+01 -0.32847344580E+02  0.38523409195E+03  0.40637175954E+03  0.12509000000E+03 0.  0.
         25    1    4    4    0    0 -0.42769892676E+02  0.97760092842E+01  0.61663160433E+03  0.63071933349E+03  0.12509000000E+03 0.  0.
<mgrwt>
<rscale>  2 0.44743788E+03</rscale>
<asrwt>0</asrwt>
<pdfrwt beam="1">  1       21 0.17821650E+00 0.44743788E+03</pdfrwt>
<pdfrwt beam="2">  1       21 0.60735103E-02 0.44743788E+03</pdfrwt>
<totfact> 0.32369102E+04</totfact>
</mgrwt>
</event>
<event>
 7    0  0.4712189E-002  0.4423472E+03  0.7546771E-02  0.1030029E+00
         21   -1    0    0  502  501  0.00000000000E+00  0.00000000000E+00  0.17697062191E+03  0.17697062191E+03  0.00000000000E+00 0.  1.
         21   -1    0    0  501  502 -0.00000000000E+00 -0.00000000000E+00 -0.27641736627E+03  0.27641736627E+03  0.00000000000E+00 0.  1.
      99926    2    1    2    0    0 -0.14210854715E-13  0.71054273576E-14 -0.99446744361E+02  0.45338798818E+03  0.44234716328E+03 0.  0.
      99925    2    3    3    0    0  0.72208172372E+02 -0.42441558649E+02 -0.12089644444E+03  0.30132581737E+03  0.26299428107E+03 0.  0.
         25    1    4    4    0    0  0.10040269641E+02 -0.24685770675E-01 -0.28917014036E+02  0.12878085815E+03  0.12509000000E+03 0.  0.
         25    1    4    4    0    0  0.62167902731E+02 -0.42416872879E+02 -0.91979430407E+02  0.17254495922E+03  0.12509000000E+03 0.  0.
         25    1    3    3    0    0 -0.72208172372E+02  0.42441558649E+02  0.21449700082E+02  0.15206217081E+03  0.12509000000E+03 0.  0.
<mgrwt>
<rscale>  2 0.44234716E+03</rscale>
<asrwt>0</asrwt>
<pdfrwt beam="1">  1       21 0.26025091E-01 0.44234716E+03</pdfrwt>
<pdfrwt beam="2">  1       21 0.40649613E-01 0.44234716E+03</pdfrwt>
<totfact> 0.76041372E+04</totfact>
</mgrwt>
</event>
<event>
 7    0  0.4712189E-002  0.4511218E+03  0.7546771E-02  0.1027388E+00
         21   -1    0    0  502  501  0.00000000000E+00  0.00000000000E+00  0.10792027217E+04  0.10792027217E+04  0.00000000000E+00 0.  1.
         21   -1    0    0  501  502 -0.00000000000E+00 -0.00000000000E+00 -0.47143800050E+02  0.47143800050E+02  0.00000000000E+00 0.  1.
      99926    2    1    2    0    0  0.71054273576E-14  0.00000000000E+00  0.10320589216E+04  0.11263465217E+04  0.45112178987E+03 0.  0.
      99925    2    3    3    0    0 -0.63396583370E+02 -0.60360344190E+02  0.81586032516E+03  0.86167344197E+03  0.26304097113E+03 0.  0.
         25    1    4    4    0    0 -0.12073476265E+02 -0.57624038439E+02  0.34183660098E+03  0.36873577058E+03  0.12509000000E+03 0.  0.
         25    1    3    3    0    0  0.63396583370E+02  0.60360344190E+02  0.21619859647E+03  0.26467307976E+03  0.12509000000E+03 0.  0.
         25    1    4    4    0    0 -0.51323107105E+02 -0.27363057504E+01  0.47402372418E+03  0.49293767139E+03  0.12509000000E+03 0.  0.
<mgrwt>
<rscale>  2 0.45112179E+03</rscale>
<asrwt>0</asrwt>
<pdfrwt beam="1">  1       21 0.15870627E+00 0.45112179E+03</pdfrwt>
<pdfrwt beam="2">  1       21 0.69329124E-02 0.45112179E+03</pdfrwt>
<totfact> 0.35647594E+04</totfact>
</mgrwt>
</event>
<event>
 7    0  0.4712189E-002  0.4613139E+03  0.7546771E-02  0.1024401E+00
         21   -1    0    0  502  501  0.00000000000E+00  0.00000000000E+00  0.43278678363E+02  0.43278678363E+02  0.00000000000E+00 0.  1.
         21   -1    0    0  501  502 -0.00000000000E+00 -0.00000000000E+00 -0.12293035668E+04  0.12293035668E+04  0.00000000000E+00 0.  1.
      99926    2    1    2    0    0  0.00000000000E+00  0.00000000000E+00 -0.11860248885E+04  0.12725822452E+04  0.46131392210E+03 0.  0.
      99925    2    3    3    0    0 -0.74150908067E+01 -0.86453818325E+02 -0.96640163066E+03  0.10053536357E+04  0.26320063593E+03 0.  0.
         25    1    3    3    0    0  0.74150908067E+01  0.86453818325E+02 -0.21962325781E+03  0.26722860952E+03  0.12509000000E+03 0.  0.
         25    1    4    4    0    0  0.24458133892E+01 -0.63298632107E+02 -0.63361682702E+03  0.64894567601E+03  0.12509000000E+03 0.  0.
         25    1    4    4    0    0 -0.98609041959E+01 -0.23155186218E+02 -0.33278480364E+03  0.35640795967E+03  0.12509000000E+03 0.  0.
<mgrwt>
<rscale>  2 0.46131392E+03</rscale>
<asrwt>0</asrwt>
<pdfrwt beam="1">  1       21 0.63645120E-02 0.46131392E+03</pdfrwt>
<pdfrwt beam="2">  1       21 0.18077992E+00 0.46131392E+03</pdfrwt>
<totfact> 0.28495277E+04</totfact>
</mgrwt>
</event>
<event>
 7    0  0.4712189E-002  0.4542598E+03  0.7546771E-02  0.1026459E+00
         21   -1    0    0  502  501  0.00000000000E+00  0.00000000000E+00  0.28175126574E+03  0.28175126574E+03  0.00000000000E+00 0. -1.
         21   -1    0    0  501  502 -0.00000000000E+00 -0.00000000000E+00 -0.18309767518E+03  0.18309767518E+03  0.00000000000E+00 0. -1.
      99926    2    1    2    0    0  0.00000000000E+00  0.00000000000E+00  0.98653590554E+02  0.46484894092E+03  0.45425984518E+03 0.  0.
      99925    2    3    3    0    0 -0.66421102746E+02  0.78129836649E+02  0.10946603287E+03  0.30273647603E+03  0.26296487845E+03 0.  0.
         25    1    4    4    0    0 -0.22037349405E+02  0.51332247276E+02  0.94662965815E+02  0.16652095837E+03  0.12509000000E+03 0.  0.
         25    1    3    3    0    0  0.66421102746E+02 -0.78129836649E+02 -0.10812442319E+02  0.16211246489E+03  0.12509000000E+03 0.  0.
         25    1    4    4    0    0 -0.44383753341E+02  0.26797589373E+02  0.14803067058E+02  0.13621551766E+03  0.12509000000E+03 0.  0.
<mgrwt>
<rscale>  2 0.45425985E+03</rscale>
<asrwt>0</asrwt>
<pdfrwt beam="1">  1       21 0.41434010E-01 0.45425985E+03</pdfrwt>
<pdfrwt beam="2">  1       21 0.26926129E-01 0.45425985E+03</pdfrwt>
<totfact> 0.68220936E+04</totfact>
</mgrwt>
</event>
<event>
 7    0  0.4712189E-002  0.4536040E+03  0.7546771E-02  0.1026653E+00
         21   -1    0    0  502  501  0.00000000000E+00  0.00000000000E+00  0.24503779879E+03  0.24503779879E+03  0.00000000000E+00 0.  1.
         21   -1    0    0  501  502 -0.00000000000E+00 -0.00000000000E+00 -0.20992334046E+03  0.20992334046E+03  0.00000000000E+00 0.  1.
      99926    2    1    2    0    0  0.00000000000E+00  0.00000000000E+00  0.35114458324E+02  0.45496113925E+03  0.45360402671E+03 0.  0.
      99925    2    3    3    0    0 -0.93328181757E+01  0.75004632968E+02  0.10474569257E+03  0.29306977647E+03  0.26306926332E+03 0.  0.
         25    1    4    4    0    0  0.44075543068E+01  0.37689607342E+02  0.94720479695E+02  0.16142927371E+03  0.12509000000E+03 0.  0.
         25    1    3    3    0    0  0.93328181757E+01 -0.75004632968E+02 -0.69631234246E+02  0.16189136279E+03  0.12509000000E+03 0.  0.
         25    1    4    4    0    0 -0.13740372483E+02  0.37315025626E+02  0.10025212875E+02  0.13164050276E+03  0.12509000000E+03 0.  0.
<mgrwt>
<rscale>  2 0.45360403E+03</rscale>
<asrwt>0</asrwt>
<pdfrwt beam="1">  1       21 0.36034970E-01 0.45360403E+03</pdfrwt>
<pdfrwt beam="2">  1       21 0.30871079E-01 0.45360403E+03</pdfrwt>
<totfact> 0.69317526E+04</totfact>
</mgrwt>
</event>
<event>
 7    0  0.4712189E-002  0.4521844E+03  0.7546771E-02  0.1027073E+00
         21   -1    0    0  502  501  0.00000000000E+00  0.00000000000E+00  0.14970148181E+03  0.14970148181E+03  0.00000000000E+00 0. -1.
         21   -1    0    0  501  502 -0.00000000000E+00 -0.00000000000E+00 -0.34146414229E+03  0.34146414229E+03  0.00000000000E+00 0. -1.
      99926    2    1    2    0    0  0.00000000000E+00  0.71054273576E-14 -0.19176266048E+03  0.49116562410E+03  0.45218442293E+03 0.  0.
      99925    2    3    3    0    0  0.88273778591E+02  0.62982701780E+02 -0.97680754802E+02  0.30075030490E+03  0.26296413316E+03 0.  0.
         25    1    4    4    0    0  0.90078426630E+01  0.29172173519E+02 -0.69282455890E+02  0.14621806910E+03  0.12509000000E+03 0.  0.
         25    1    4    4    0    0  0.79265935928E+02  0.33810528262E+02 -0.28398298912E+02  0.15453223580E+03  0.12509000000E+03 0.  0.
         25    1    3    3    0    0 -0.88273778591E+02 -0.62982701780E+02 -0.94081905674E+02  0.19041531920E+03  0.12509000000E+03 0.  0.
<mgrwt>
<rscale>  2 0.45218442E+03</rscale>
<asrwt>0</asrwt>
<pdfrwt beam="1">  1       21 0.22014924E-01 0.45218442E+03</pdfrwt>
<pdfrwt beam="2">  1       21 0.50215315E-01 0.45218442E+03</pdfrwt>
<totfact> 0.67389599E+04</totfact>
</mgrwt>
</event>
<event>
 7    0  0.4712189E-002  0.4600008E+03  0.7546771E-02  0.1024781E+00
         21   -1    0    0  502  501  0.00000000000E+00  0.00000000000E+00  0.32768743384E+03  0.32768743384E+03  0.00000000000E+00 0.  1.
         21   -1    0    0  501  502 -0.00000000000E+00 -0.00000000000E+00 -0.16143487803E+03  0.16143487803E+03  0.00000000000E+00 0.  1.
      99926    2    1    2    0    0  0.35527136788E-14  0.00000000000E+00  0.16625255581E+03  0.48912231187E+03  0.46000078658E+03 0.  0.
      99925    2    3    3    0    0 -0.18364667941E+02 -0.10007484318E+03  0.42842820909E+02  0.28607131818E+03  0.26391107691E+03 0.  0.
         25    1    3    3    0    0  0.18364667941E+02  0.10007484318E+03  0.12340973490E+03  0.20305099368E+03  0.12509000000E+03 0.  0.
         25    1    4    4    0    0 -0.30465408998E+02 -0.37083023594E+02 -0.13424886060E+02  0.13465150370E+03  0.12509000000E+03 0.  0.
         25    1    4    4    0    0  0.12100741057E+02 -0.62991819590E+02  0.56267706969E+02  0.15141981448E+03  0.12509000000E+03 0.  0.
<mgrwt>
<rscale>  2 0.46000079E+03</rscale>
<asrwt>0</asrwt>
<pdfrwt beam="1">  1       21 0.48189328E-01 0.46000079E+03</pdfrwt>
<pdfrwt beam="2">  1       21 0.23740423E-01 0.46000079E+03</pdfrwt>
<totfact> 0.63483920E+04</totfact>
</mgrwt>
</event>
<event>
 7    0  0.4712189E-002  0.4541994E+03  0.7546771E-02  0.1026477E+00
         21   -1    0    0  502  501  0.00000000000E+00  0.00000000000E+00  0.38897578327E+02  0.38897578327E+02  0.00000000000E+00 0. -1.
         21   -1    0    0  501  502 -0.00000000000E+00 -0.00000000000E+00 -0.13258996204E+04  0.13258996204E+04  0.00000000000E+00 0. -1.
      99926    2    1    2    0    0  0.00000000000E+00  0.00000000000E+00 -0.12870020421E+04  0.13647971988E+04  0.45419944667E+03 0.  0.
      99925    2    3    3    0    0 -0.84407324990E+02  0.73628320531E+02 -0.77989344911E+03  0.83061337339E+03  0.26294306987E+03 0.  0.
         25    1    4    4    0    0 -0.26685662734E+02  0.72383904544E+02 -0.43830193756E+03  0.46228524831E+03  0.12509000000E+03 0.  0.
         25    1    4    4    0    0 -0.57721662256E+02  0.12444159866E+01 -0.34159151155E+03  0.36832812508E+03  0.12509000000E+03 0.  0.
         25    1    3    3    0    0  0.84407324990E+02 -0.73628320531E+02 -0.50710859299E+03  0.53418382536E+03  0.12509000000E+03 0.  0.
<mgrwt>
<rscale>  2 0.45419945E+03</rscale>
<asrwt>0</asrwt>
<pdfrwt beam="1">  1       21 0.57202323E-02 0.45419945E+03</pdfrwt>
<pdfrwt beam="2">  1       21 0.19498523E+00 0.45419945E+03</pdfrwt>
<totfact> 0.27455839E+04</totfact>
</mgrwt>
</event>
<event>
 7    0  0.4712189E-002  0.4603587E+03  0.7546771E-02  0.1024677E+00
         21   -1    0    0  502  501  0.00000000000E+00  0.00000000000E+00  0.29897965439E+02  0.29897965439E+02  0.00000000000E+00 0. -1.
         21   -1    0    0  501  502 -0.00000000000E+00 -0.00000000000E+00 -0.17721116359E+04  0.17721116359E+04  0.00000000000E+00 0. -1.
      99926    2    1    2    0    0  0.00000000000E+00  0.35527136788E-14 -0.17422136705E+04  0.18020096013E+04  0.46035869686E+03 0.  0.
      99925    2    3    3    0    0  0.75894006922E+02 -0.26884774891E+02 -0.75393575854E+03  0.80259805913E+03  0.26317641442E+03 0.  0.
         25    1    4    4    0    0  0.67937523799E+02  0.72477668529E+01 -0.45089606594E+03  0.47288773260E+03  0.12509000000E+03 0.  0.
         25    1    4    4    0    0  0.79564831228E+01 -0.34132541743E+02 -0.30303969260E+03  0.32971032653E+03  0.12509000000E+03 0.  0.
         25    1    3    3    0    0 -0.75894006922E+02  0.26884774891E+02 -0.98827791192E+03  0.99941154221E+03  0.12509000000E+03 0.  0.
<mgrwt>
<rscale>  2 0.46035870E+03</rscale>
<asrwt>0</asrwt>
<pdfrwt beam="1">  1       21 0.43967588E-02 0.46035870E+03</pdfrwt>
<pdfrwt beam="2">  1       21 0.26060470E+00 0.46035870E+03</pdfrwt>
<totfact> 0.16522717E+04</totfact>
</mgrwt>
</event>
<event>
 7    0  0.4712189E-002  0.4554731E+03  0.7546771E-02  0.1026102E+00
         21   -1    0    0  502  501  0.00000000000E+00  0.00000000000E+00  0.72067212666E+03  0.72067212666E+03  0.00000000000E+00 0. -1.
         21   -1    0    0  501  502 -0.00000000000E+00 -0.00000000000E+00 -0.71966056190E+02  0.71966056190E+02  0.00000000000E+00 0. -1.
      99926    2    1    2    0    0  0.13322676296E-14  0.00000000000E+00  0.64870607047E+03  0.79263818285E+03  0.45547307610E+03 0.  0.
      99925    2    3    3    0    0 -0.33020346370E+01  0.10989499741E+03  0.35901268196E+03  0.45848614959E+03  0.26311904087E+03 0.  0.
         25    1    4    4    0    0  0.26128909647E+02  0.74961841649E+02  0.22626775474E+03  0.27045628585E+03  0.12509000000E+03 0.  0.
         25    1    4    4    0    0 -0.29430944284E+02  0.34933155759E+02  0.13274492722E+03  0.18802986374E+03  0.12509000000E+03 0.  0.
         25    1    3    3    0    0  0.33020346370E+01 -0.10989499741E+03  0.28969338851E+03  0.33415203326E+03  0.12509000000E+03 0.  0.
<mgrwt>
<rscale>  2 0.45547308E+03</rscale>
<asrwt>0</asrwt>
<pdfrwt beam="1">  1       21 0.10598119E+00 0.45547308E+03</pdfrwt>
<pdfrwt beam="2">  1       21 0.10583244E-01 0.45547308E+03</pdfrwt>
<totfact> 0.47944708E+04</totfact>
</mgrwt>
</event>
<event>
 7    0  0.4712189E-002  0.4663034E+03  0.7546771E-02  0.1022969E+00
         21   -1    0    0  502  501  0.00000000000E+00  0.00000000000E+00  0.62973124371E+02  0.62973124371E+02  0.00000000000E+00 0.  1.
         21   -1    0    0  501  502 -0.00000000000E+00 -0.00000000000E+00 -0.86322083966E+03  0.86322083966E+03  0.00000000000E+00 0.  1.
      99926    2    1    2    0    0 -0.35527136788E-14  0.00000000000E+00 -0.80024771529E+03  0.92619396403E+03  0.46630339178E+03 0.  0.
      99925    2    3    3    0    0  0.18810825632E+02 -0.87315427579E+02 -0.66789033586E+03  0.72335458165E+03  0.26303330399E+03 0.  0.
         25    1    4    4    0    0  0.38029739995E+02 -0.13964985190E+02 -0.32051933986E+03  0.34644110215E+03  0.12509000000E+03 0.  0.
         25    1    3    3    0    0 -0.18810825632E+02  0.87315427579E+02 -0.13235737943E+03  0.20283938238E+03  0.12509000000E+03 0.  0.
         25    1    4    4    0    0 -0.19218914362E+02 -0.73350442389E+02 -0.34737099601E+03  0.37691347951E+03  0.12509000000E+03 0.  0.
<mgrwt>
<rscale>  2 0.46630339E+03</rscale>
<asrwt>0</asrwt>
<pdfrwt beam="1">  1       21 0.92607544E-02 0.46630339E+03</pdfrwt>
<pdfrwt beam="2">  1       21 0.12694423E+00 0.46630339E+03</pdfrwt>
<totfact> 0.38591552E+04</totfact>
</mgrwt>
</event>
<event>
 7    0  0.4712189E-002  0.4549278E+03  0.7546771E-02  0.1026263E+00
         21   -1    0    0  502  501  0.00000000000E+00  0.00000000000E+00  0.45458765025E+03  0.45458765025E+03  0.00000000000E+00 0.  1.
         21   -1    0    0  501  502 -0.00000000000E+00 -0.00000000000E+00 -0.11381707592E+03  0.11381707592E+03  0.00000000000E+00 0.  1.
      99926    2    1    2    0    0  0.71054273576E-14  0.00000000000E+00  0.34077057433E+03  0.56840472617E+03  0.45492784966E+03 0.  0.
      99925    2    3    3    0    0  0.44900734341E+02  0.78903842547E+02  0.29873592873E+03  0.40822884832E+03  0.26299381204E+03 0.  0.
         25    1    3    3    0    0 -0.44900734341E+02 -0.78903842547E+02  0.42034645607E+02  0.16017587785E+03  0.12509000000E+03 0.  0.
         25    1    4    4    0    0  0.54521529836E+02  0.31070224488E+02  0.11787026180E+03  0.18297230059E+03  0.12509000000E+03 0.  0.
         25    1    4    4    0    0 -0.96207954950E+01  0.47833618059E+02  0.18086566693E+03  0.22525654773E+03  0.12509000000E+03 0.  0.
<mgrwt>
<rscale>  2 0.45492785E+03</rscale>
<asrwt>0</asrwt>
<pdfrwt beam="1">  1       21 0.66851124E-01 0.45492785E+03</pdfrwt>
<pdfrwt beam="2">  1       21 0.16737805E-01 0.45492785E+03</pdfrwt>
<totfact> 0.60701074E+04</totfact>
</mgrwt>
</event>
<event>
 7    0  0.4712189E-002  0.4509654E+03  0.7546771E-02  0.1027435E+00
         21   -1    0    0  502  501  0.00000000000E+00  0.00000000000E+00  0.16307287594E+03  0.16307287594E+03  0.00000000000E+00 0. -1.
         21   -1    0    0  501  502 -0.00000000000E+00 -0.00000000000E+00 -0.31177741315E+03  0.31177741315E+03  0.00000000000E+00 0. -1.
      99926    2    1    2    0    0  0.35527136788E-14 -0.14210854715E-13 -0.14870453720E+03  0.47485028909E+03  0.45096536193E+03 0.  0.
      99925    2    3    3    0    0 -0.25518518671E+02  0.66780033457E+02 -0.18088383984E+03  0.32722311245E+03  0.26314489192E+03 0.  0.
         25    1    3    3    0    0  0.25518518671E+02 -0.66780033457E+02  0.32179302638E+02  0.14762717664E+03  0.12509000000E+03 0.  0.
         25    1    4    4    0    0  0.10103757576E+02  0.67094108212E+02 -0.10232154629E+03  0.17527382066E+03  0.12509000000E+03 0.  0.
         25    1    4    4    0    0 -0.35622276246E+02 -0.31407475476E+00 -0.78562293545E+02  0.15194929179E+03  0.12509000000E+03 0.  0.
<mgrwt>
<rscale>  2 0.45096536E+03</rscale>
<asrwt>0</asrwt>
<pdfrwt beam="1">  1       21 0.23981306E-01 0.45096536E+03</pdfrwt>
<pdfrwt beam="2">  1       21 0.45849619E-01 0.45096536E+03</pdfrwt>
<totfact> 0.69268553E+04</totfact>
</mgrwt>
</event>
<event>
 7    0  0.4909224E-002  0.4249801E+03  0.7546771E-02  0.1035458E+00
         21   -1    0    0  502  501  0.00000000000E+00  0.00000000000E+00  0.41641142854E+02  0.41641142854E+02  0.00000000000E+00 0. -1.
         21   -1    0    0  501  502 -0.00000000000E+00 -0.00000000000E+00 -0.10843128656E+04  0.10843128656E+04  0.00000000000E+00 0. -1.
      99926    2    1    2    0    0  0.71054273576E-14  0.00000000000E+00 -0.10426717228E+04  0.11259540085E+04  0.42498012629E+03 0.  0.
      99925    2    3    3    0    0 -0.35542902949E+02 -0.66069674337E+02 -0.75119667140E+03  0.80001887155E+03  0.26477397132E+03 0.  0.
         25    1    4    4    0    0 -0.49925611853E+02 -0.61093829747E+02 -0.36673546022E+03  0.39543321640E+03  0.12509000000E+03 0.  0.
         25    1    4    4    0    0  0.14382708904E+02 -0.49758445904E+01 -0.38446121119E+03  0.40458565515E+03  0.12509000000E+03 0.  0.
         25    1    3    3    0    0  0.35542902949E+02  0.66069674337E+02 -0.29147505138E+03  0.32593513695E+03  0.12509000000E+03 0.  0.
<mgrwt>
<rscale>  2 0.42498013E+03</rscale>
<asrwt>0</asrwt>
<pdfrwt beam="1">  1       21 0.61236981E-02 0.42498013E+03</pdfrwt>
<pdfrwt beam="2">  1       21 0.15945776E+00 0.42498013E+03</pdfrwt>
<totfact> 0.44032334E+04</totfact>
</mgrwt>
</event>
<event>
 7    0  0.4712189E-002  0.4601706E+03  0.7546771E-02  0.1024732E+00
         21   -1    0    0  502  501  0.00000000000E+00  0.00000000000E+00  0.21001818504E+03  0.21001818504E+03  0.00000000000E+00 0.  1.
         21   -1    0    0  501  502 -0.00000000000E+00 -0.00000000000E+00 -0.25206983984E+03  0.25206983984E+03  0.00000000000E+00 0.  1.
      99926    2    1    2    0    0  0.00000000000E+00  0.00000000000E+00 -0.42051654796E+02  0.46208802487E+03  0.46017062168E+03 0.  0.
      99925    2    3    3    0    0  0.23789260067E+02 -0.42795353945E+02 -0.13400446002E+03  0.29929921167E+03  0.26310730052E+03 0.  0.
         25    1    4    4    0    0  0.10299460747E+01 -0.53614608808E+02 -0.43585867759E+02  0.14290844284E+03  0.12509000000E+03 0.  0.
         25    1    3    3    0    0 -0.23789260067E+02  0.42795353945E+02  0.91952805228E+02  0.16278881320E+03  0.12509000000E+03 0.  0.
         25    1    4    4    0    0  0.22759313993E+02  0.10819254862E+02 -0.90418592265E+02  0.15639076883E+03  0.12509000000E+03 0.  0.
<mgrwt>
<rscale>  2 0.46017062E+03</rscale>
<asrwt>0</asrwt>
<pdfrwt beam="1">  1       21 0.30885028E-01 0.46017062E+03</pdfrwt>
<pdfrwt beam="2">  1       21 0.37069094E-01 0.46017062E+03</pdfrwt>
<totfact> 0.65294096E+04</totfact>
</mgrwt>
</event>
<event>
 7    0  0.4712189E-002  0.4348783E+03  0.7546771E-02  0.1032330E+00
         21   -1    0    0  502  501  0.00000000000E+00  0.00000000000E+00  0.18899728876E+03  0.18899728876E+03  0.00000000000E+00 0. -1.
         21   -1    0    0  501  502 -0.00000000000E+00 -0.00000000000E+00 -0.25016117686E+03  0.25016117686E+03  0.00000000000E+00 0. -1.
      99926    2    1    2    0    0  0.00000000000E+00  0.17763568394E-14 -0.61163888097E+02  0.43915846562E+03  0.43487830104E+03 0.  0.
      99925    2    3    3    0    0  0.51310296122E+01  0.12345722017E+02  0.53827137338E+02  0.26872024119E+03  0.26293433209E+03 0.  0.
         25    1    4    4    0    0 -0.10322655605E+02 -0.32101676574E+02  0.23391203651E+02  0.13165003367E+03  0.12509000000E+03 0.  0.
         25    1    3    3    0    0 -0.51310296122E+01 -0.12345722017E+02 -0.11499102543E+03  0.17043822443E+03  0.12509000000E+03 0.  0.
         25    1    4    4    0    0  0.15453685217E+02  0.44447398592E+02  0.30435933686E+02  0.13707020751E+03  0.12509000000E+03 0.  0.
<mgrwt>
<rscale>  2 0.43487830E+03</rscale>
<asrwt>0</asrwt>
<pdfrwt beam="1">  1       21 0.27793719E-01 0.43487830E+03</pdfrwt>
<pdfrwt beam="2">  1       21 0.36788408E-01 0.43487830E+03</pdfrwt>
<totfact> 0.82136646E+04</totfact>
</mgrwt>
</event>
<event>
 7    0  0.4712189E-002  0.4540646E+03  0.7546771E-02  0.1026517E+00
         21   -1    0    0  502  501  0.00000000000E+00  0.00000000000E+00  0.81693435144E+02  0.81693435144E+02  0.00000000000E+00 0. -1.
         21   -1    0    0  501  502 -0.00000000000E+00 -0.00000000000E+00 -0.63094007600E+03  0.63094007600E+03  0.00000000000E+00 0. -1.
      99926    2    1    2    0    0  0.00000000000E+00  0.14210854715E-13 -0.54924664085E+03  0.71263351114E+03  0.45406458650E+03 0.  0.
      99925    2    3    3    0    0 -0.20103983755E+02  0.99672884039E+02 -0.42072597574E+03  0.50646871435E+03  0.26298547103E+03 0.  0.
         25    1    4    4    0    0  0.18568731013E+02  0.50824265710E+02 -0.25945040836E+03  0.29306983170E+03  0.12509000000E+03 0.  0.
         25    1    4    4    0    0 -0.38672714768E+02  0.48848618330E+02 -0.16127556738E+03  0.21339888265E+03  0.12509000000E+03 0.  0.
         25    1    3    3    0    0  0.20103983755E+02 -0.99672884039E+02 -0.12852066511E+03  0.20616479679E+03  0.12509000000E+03 0.  0.
<mgrwt>
<rscale>  2 0.45406459E+03</rscale>
<asrwt>0</asrwt>
<pdfrwt beam="1">  1       21 0.12013740E-01 0.45406459E+03</pdfrwt>
<pdfrwt beam="2">  1       21 0.92785308E-01 0.45406459E+03</pdfrwt>
<totfact> 0.52608498E+04</totfact>
</mgrwt>
</event>
<event>
 7    0  0.4712189E-002  0.4767533E+03  0.7546771E-02  0.1020031E+00
         21   -1    0    0  502  501  0.00000000000E+00  0.00000000000E+00  0.44056974364E+03  0.44056974364E+03  0.00000000000E+00 0. -1.
         21   -1    0    0  501  502 -0.00000000000E+00 -0.00000000000E+00 -0.12897712352E+03  0.12897712352E+03  0.00000000000E+00 0. -1.
      99926    2    1    2    0    0  0.35527136788E-14 -0.14210854715E-13  0.31159262012E+03  0.56954686716E+03  0.47675326216E+03 0.  0.
      99925    2    3    3    0    0  0.30322969233E+02 -0.11636900839E+03  0.12582028747E+03  0.31534203587E+03  0.26296126382E+03 0.  0.
         25    1    4    4    0    0 -0.90918329937E+01 -0.84242146930E+02  0.43607318976E+02  0.15725300352E+03  0.12509000000E+03 0.  0.
         25    1    3    3    0    0 -0.30322969233E+02  0.11636900839E+03  0.18577233264E+03  0.25420483129E+03  0.12509000000E+03 0.  0.
         25    1    4    4    0    0  0.39414802227E+02 -0.32126861460E+02  0.82212968495E+02  0.15808903235E+03  0.12509000000E+03 0.  0.
<mgrwt>
<rscale>  2 0.47675326E+03</rscale>
<asrwt>0</asrwt>
<pdfrwt beam="1">  1       21 0.64789668E-01 0.47675326E+03</pdfrwt>
<pdfrwt beam="2">  1       21 0.18967224E-01 0.47675326E+03</pdfrwt>
<totfact> 0.51198699E+04</totfact>
</mgrwt>
</event>
<event>
 7    0  0.4712189E-002  0.4605267E+03  0.7546771E-02  0.1024629E+00
         21   -1    0    0  502  501  0.00000000000E+00  0.00000000000E+00  0.10087643935E+03  0.10087643935E+03  0.00000000000E+00 0.  1.
         21   -1    0    0  501  502 -0.00000000000E+00 -0.00000000000E+00 -0.52560545868E+03  0.52560545868E+03  0.00000000000E+00 0.  1.
      99926    2    1    2    0    0  0.00000000000E+00  0.00000000000E+00 -0.42472901933E+03  0.62648189803E+03  0.46052668619E+03 0.  0.
      99925    2    3    3    0    0  0.27450857420E+01  0.87669780429E+02 -0.15766486297E+03  0.31880626102E+03  0.26284158186E+03 0.  0.
         25    1    4    4    0    0  0.10903907146E+02  0.43046877028E+02 -0.33703991867E+02  0.13695034129E+03  0.12509000000E+03 0.  0.
         25    1    3    3    0    0 -0.27450857420E+01 -0.87669780429E+02 -0.26706415636E+03  0.30767563701E+03  0.12509000000E+03 0.  0.
         25    1    4    4    0    0 -0.81588214037E+01  0.44622903401E+02 -0.12396087110E+03  0.18185591973E+03  0.12509000000E+03 0.  0.
<mgrwt>
<rscale>  2 0.46052669E+03</rscale>
<asrwt>0</asrwt>
<pdfrwt beam="1">  1       21 0.14834770E-01 0.46052669E+03</pdfrwt>
<pdfrwt beam="2">  1       21 0.77294921E-01 0.46052669E+03</pdfrwt>
<totfact> 0.54653055E+04</totfact>
</mgrwt>
</event>
<event>
 7    0  0.4712189E-002  0.4568846E+03  0.7546771E-02  0.1025689E+00
         21   -1    0    0  502  501  0.00000000000E+00  0.00000000000E+00  0.87791141589E+02  0.87791141589E+02  0.00000000000E+00 0. -1.
         21   -1    0    0  501  502 -0.00000000000E+00 -0.00000000000E+00 -0.59443227917E+03  0.59443227917E+03  0.00000000000E+00 0. -1.
      99926    2    1    2    0    0  0.00000000000E+00 -0.71054273576E-14 -0.50664113759E+03  0.68222342076E+03  0.45688461732E+03 0.  0.
      99925    2    3    3    0    0  0.98848885035E+02  0.40068121067E+02 -0.25403232632E+03  0.38083450917E+03  0.26291813206E+03 0.  0.
         25    1    3    3    0    0 -0.98848885035E+02 -0.40068121067E+02 -0.25260881127E+03  0.30138891159E+03  0.12509000000E+03 0.  0.
         25    1    4    4    0    0  0.15446087707E+02  0.42953885424E+02 -0.12643164921E+03  0.18361941052E+03  0.12509000000E+03 0.  0.
         25    1    4    4    0    0  0.83402797328E+02 -0.28857643574E+01 -0.12760067711E+03  0.19721509865E+03  0.12509000000E+03 0.  0.
<mgrwt>
<rscale>  2 0.45688462E+03</rscale>
<asrwt>0</asrwt>
<pdfrwt beam="1">  1       21 0.12910462E-01 0.45688462E+03</pdfrwt>
<pdfrwt beam="2">  1       21 0.87416511E-01 0.45688462E+03</pdfrwt>
<totfact> 0.53086952E+04</totfact>
</mgrwt>
</event>
<event>
 7    0  0.4712189E-002  0.4793503E+03  0.7546771E-02  0.1019314E+00
         21   -1    0    0  502  501  0.00000000000E+00  0.00000000000E+00  0.16288990866E+03  0.16288990866E+03  0.00000000000E+00 0. -1.
         21   -1    0    0  501  502 -0.00000000000E+00 -0.00000000000E+00 -0.35265640840E+03  0.35265640840E+03  0.00000000000E+00 0. -1.
      99926    2    1    2    0    0  0.00000000000E+00  0.00000000000E+00 -0.18976649974E+03  0.51554631707E+03  0.47935026924E+03 0.  0.
      99925    2    3    3    0    0  0.12359015356E+03  0.35533915024E+02 -0.73733679464E+02  0.30189166896E+03  0.26299189936E+03 0.  0.
         25    1    4    4    0    0  0.18656801653E+02  0.18706195311E+02 -0.43095299877E+02  0.13491742275E+03  0.12509000000E+03 0.  0.
         25    1    4    4    0    0  0.10493335191E+03  0.16827719713E+02 -0.30638379587E+02  0.16697424621E+03  0.12509000000E+03 0.  0.
         25    1    3    3    0    0 -0.12359015356E+03 -0.35533915024E+02 -0.11603282028E+03  0.21365464810E+03  0.12509000000E+03 0.  0.
<mgrwt>
<rscale>  2 0.47935027E+03</rscale>
<asrwt>0</asrwt>
<pdfrwt beam="1">  1       21 0.23954399E-01 0.47935027E+03</pdfrwt>
<pdfrwt beam="2">  1       21 0.51861236E-01 0.47935027E+03</pdfrwt>
<totfact> 0.53151336E+04</totfact>
</mgrwt>
</event>
<event>
 7    0  0.4712189E-002  0.4516583E+03  0.7546771E-02  0.1027229E+00
         21   -1    0    0  502  501  0.00000000000E+00  0.00000000000E+00  0.24437655639E+04  0.24437655639E+04  0.00000000000E+00 0. -1.
         21   -1    0    0  501  502 -0.00000000000E+00 -0.00000000000E+00 -0.20868944011E+02  0.20868944011E+02  0.00000000000E+00 0. -1.
      99926    2    1    2    0    0  0.00000000000E+00 -0.35527136788E-14  0.24228966199E+04  0.24646345079E+04  0.45165830771E+03 0.  0.
      99925    2    3    3    0    0 -0.56511254118E+02 -0.18574002207E+02  0.20335089667E+04  0.20513443339E+04  0.26327997088E+03 0.  0.
         25    1    4    4    0    0 -0.22168955586E+02 -0.49309256955E+02  0.97695551451E+03  0.98641393484E+03  0.12509000000E+03 0.  0.
         25    1    4    4    0    0 -0.34342298532E+02  0.30735254749E+02  0.10565534522E+04  0.10649303990E+04  0.12509000000E+03 0.  0.
         25    1    3    3    0    0  0.56511254118E+02  0.18574002207E+02  0.38938765318E+03  0.41329017403E+03  0.12509000000E+03 0.  0.
<mgrwt>
<rscale>  2 0.45165831E+03</rscale>
<asrwt>0</asrwt>
<pdfrwt beam="1">  1       21 0.35937709E+00 0.45165831E+03</pdfrwt>
<pdfrwt beam="2">  1       21 0.30689640E-02 0.45165831E+03</pdfrwt>
<totfact> 0.76985523E+03</totfact>
</mgrwt>
</event>
<event>
 7    0  0.4712189E-002  0.4395429E+03  0.7546771E-02  0.1030887E+00
         21   -1    0    0  502  501  0.00000000000E+00  0.00000000000E+00  0.40864284240E+02  0.40864284240E+02  0.00000000000E+00 0.  1.
         21   -1    0    0  501  502 -0.00000000000E+00 -0.00000000000E+00 -0.11819485946E+04  0.11819485946E+04  0.00000000000E+00 0.  1.
      99926    2    1    2    0    0  0.00000000000E+00  0.71054273576E-14 -0.11410843104E+04  0.12228128788E+04  0.43954286856E+03 0.  0.
      99925    2    3    3    0    0 -0.64817438173E+02  0.58913853233E+02 -0.85013840003E+03  0.89422624912E+03  0.26312191663E+03 0.  0.
         25    1    4    4    0    0 -0.52210752791E+02  0.60945355336E+02 -0.39485353894E+03  0.42189705421E+03  0.12509000000E+03 0.  0.
         25    1    3    3    0    0  0.64817438173E+02 -0.58913853233E+02 -0.29094591033E+03  0.32858662972E+03  0.12509000000E+03 0.  0.
         25    1    4    4    0    0 -0.12606685382E+02 -0.20315021033E+01 -0.45528486109E+03  0.47232919490E+03  0.12509000000E+03 0.  0.
<mgrwt>
<rscale>  2 0.43954287E+03</rscale>
<asrwt>0</asrwt>
<pdfrwt beam="1">  1       21 0.60094529E-02 0.43954287E+03</pdfrwt>
<pdfrwt beam="2">  1       21 0.17381599E+00 0.43954287E+03</pdfrwt>
<totfact> 0.35527940E+04</totfact>
</mgrwt>
</event>
<event>
 7    0  0.4712189E-002  0.4574190E+03  0.7546771E-02  0.1025532E+00
         21   -1    0    0  502  501  0.00000000000E+00  0.00000000000E+00  0.77985112195E+02  0.77985112195E+02  0.00000000000E+00 0.  1.
         21   -1    0    0  501  502 -0.00000000000E+00 -0.00000000000E+00 -0.67074380043E+03  0.67074380043E+03  0.00000000000E+00 0.  1.
      99926    2    1    2    0    0  0.17763568394E-14  0.00000000000E+00 -0.59275868824E+03  0.74872891263E+03  0.45741897875E+03 0.  0.
      99925    2    3    3    0    0 -0.13093275172E+02 -0.10531429917E+03 -0.29712215396E+03  0.41062980886E+03  0.26281691363E+03 0.  0.
         25    1    4    4    0    0  0.16215568412E+02 -0.67513985706E+02 -0.10973930129E+03  0.18030891623E+03  0.12509000000E+03 0.  0.
         25    1    3    3    0    0  0.13093275172E+02  0.10531429917E+03 -0.29563653428E+03  0.33809910376E+03  0.12509000000E+03 0.  0.
         25    1    4    4    0    0 -0.29308843583E+02 -0.37800313460E+02 -0.18738285266E+03  0.23032089263E+03  0.12509000000E+03 0.  0.
<mgrwt>
<rscale>  2 0.45741898E+03</rscale>
<asrwt>0</asrwt>
<pdfrwt beam="1">  1       21 0.11468398E-01 0.45741898E+03</pdfrwt>
<pdfrwt beam="2">  1       21 0.98638800E-01 0.45741898E+03</pdfrwt>
<totfact> 0.49390100E+04</totfact>
</mgrwt>
</event>
<event>
 7    0  0.4712189E-002  0.4536838E+03  0.7546771E-02  0.1026629E+00
         21   -1    0    0  502  501  0.00000000000E+00  0.00000000000E+00  0.14343341531E+03  0.14343341531E+03  0.00000000000E+00 0. -1.
         21   -1    0    0  501  502 -0.00000000000E+00 -0.00000000000E+00 -0.35875347951E+03  0.35875347951E+03  0.00000000000E+00 0. -1.
      99926    2    1    2    0    0  0.00000000000E+00  0.14210854715E-13 -0.21532006420E+03  0.50218689481E+03  0.45368375249E+03 0.  0.
      99925    2    3    3    0    0 -0.21387579236E+02 -0.10953792221E+03 -0.12589330466E+03  0.31218521490E+03  0.26297243068E+03 0.  0.
         25    1    4    4    0    0  0.18896605788E+02 -0.81116959397E+02 -0.79049852373E+02  0.16980409321E+03  0.12509000000E+03 0.  0.
         25    1    4    4    0    0 -0.40284185024E+02 -0.28420962814E+02 -0.46843452284E+02  0.14238112168E+03  0.12509000000E+03 0.  0.
         25    1    3    3    0    0  0.21387579236E+02  0.10953792221E+03 -0.89426759543E+02  0.19000167991E+03  0.12509000000E+03 0.  0.
<mgrwt>
<rscale>  2 0.45368375E+03</rscale>
<asrwt>0</asrwt>
<pdfrwt beam="1">  1       21 0.21093149E-01 0.45368375E+03</pdfrwt>
<pdfrwt beam="2">  1       21 0.52757864E-01 0.45368375E+03</pdfrwt>
<totfact> 0.65802109E+04</totfact>
</mgrwt>
</event>
<event>
 7    0  0.4712189E-002  0.4368543E+03  0.7546771E-02  0.1031716E+00
         21   -1    0    0  502  501  0.00000000000E+00  0.00000000000E+00  0.26927533775E+03  0.26927533775E+03  0.00000000000E+00 0.  1.
         21   -1    0    0  501  502 -0.00000000000E+00 -0.00000000000E+00 -0.17718081641E+03  0.17718081641E+03  0.00000000000E+00 0.  1.
      99926    2    1    2    0    0  0.00000000000E+00  0.00000000000E+00  0.92094521345E+02  0.44645615416E+03  0.43685431980E+03 0.  0.
      99925    2    3    3    0    0  0.36480011023E+02  0.28836255126E+02 -0.25787578424E+02  0.26839431558E+03  0.26307449253E+03 0.  0.
         25    1    4    4    0    0 -0.11180252490E+02  0.10598774795E+02  0.15843154193E+02  0.12702694875E+03  0.12509000000E+03 0.  0.
         25    1    4    4    0    0  0.47660263514E+02  0.18237480332E+02 -0.41630732616E+02  0.14136736683E+03  0.12509000000E+03 0.  0.
         25    1    3    3    0    0 -0.36480011023E+02 -0.28836255126E+02  0.11788209977E+03  0.17806183858E+03  0.12509000000E+03 0.  0.
<mgrwt>
<rscale>  2 0.43685432E+03</rscale>
<asrwt>0</asrwt>
<pdfrwt beam="1">  1       21 0.39599314E-01 0.43685432E+03</pdfrwt>
<pdfrwt beam="2">  1       21 0.26056002E-01 0.43685432E+03</pdfrwt>
<totfact> 0.80157951E+04</totfact>
</mgrwt>
</event>
<event>
 7    0  0.4712189E-002  0.4358194E+03  0.7546771E-02  0.1032037E+00
         21   -1    0    0  502  501  0.00000000000E+00  0.00000000000E+00  0.36106922727E+03  0.36106922727E+03  0.00000000000E+00 0. -1.
         21   -1    0    0  501  502 -0.00000000000E+00 -0.00000000000E+00 -0.13151114963E+03  0.13151114963E+03  0.00000000000E+00 0. -1.
      99926    2    1    2    0    0  0.71054273576E-14  0.17763568394E-14  0.22955807764E+03  0.49258037690E+03  0.43581936247E+03 0.  0.
      99925    2    3    3    0    0 -0.40624123412E+02 -0.14142209161E+02  0.24170544825E+03  0.35974443224E+03  0.26295286902E+03 0.  0.
         25    1    4    4    0    0  0.14415829427E+02 -0.23423587909E+02  0.98487242051E+02  0.16156647411E+03  0.12509000000E+03 0.  0.
         25    1    4    4    0    0 -0.55039952839E+02  0.92813787483E+01  0.14321820620E+03  0.19817795813E+03  0.12509000000E+03 0.  0.
         25    1    3    3    0    0  0.40624123412E+02  0.14142209161E+02 -0.12147370612E+02  0.13283594467E+03  0.12509000000E+03 0.  0.
<mgrwt>
<rscale>  2 0.43581936E+03</rscale>
<asrwt>0</asrwt>
<pdfrwt beam="1">  1       21 0.53098416E-01 0.43581936E+03</pdfrwt>
<pdfrwt beam="2">  1       21 0.19339875E-01 0.43581936E+03</pdfrwt>
<totfact> 0.76844600E+04</totfact>
</mgrwt>
</event>
<event>
 7    0  0.4712189E-002  0.4546841E+03  0.7546771E-02  0.1026334E+00
         21   -1    0    0  502  501  0.00000000000E+00  0.00000000000E+00  0.12342483570E+03  0.12342483570E+03  0.00000000000E+00 0. -1.
         21   -1    0    0  501  502 -0.00000000000E+00 -0.00000000000E+00 -0.41875201813E+03  0.41875201813E+03  0.00000000000E+00 0. -1.
      99926    2    1    2    0    0  0.15543122345E-14  0.00000000000E+00 -0.29532718243E+03  0.54217685383E+03  0.45468406189E+03 0.  0.
      99925    2    3    3    0    0  0.14221068327E+01 -0.10340662179E+03 -0.23972175676E+03  0.37061222087E+03  0.26304361953E+03 0.  0.
         25    1    4    4    0    0  0.39718477914E+02 -0.59685873976E+02 -0.13385179893E+03  0.19673274566E+03  0.12509000000E+03 0.  0.
         25    1    4    4    0    0 -0.38296371081E+02 -0.43720747809E+02 -0.10586995783E+03  0.17387947521E+03  0.12509000000E+03 0.  0.
         25    1    3    3    0    0 -0.14221068327E+01  0.10340662179E+03 -0.55605425674E+02  0.17156463296E+03  0.12509000000E+03 0.  0.
<mgrwt>
<rscale>  2 0.45468406E+03</rscale>
<asrwt>0</asrwt>
<pdfrwt beam="1">  1       21 0.18150711E-01 0.45468406E+03</pdfrwt>
<pdfrwt beam="2">  1       21 0.61581180E-01 0.45468406E+03</pdfrwt>
<totfact> 0.62542672E+04</totfact>
</mgrwt>
</event>
<event>
 7    0  0.4712189E-002  0.4586459E+03  0.7546771E-02  0.1025175E+00
         21   -1    0    0  502  501  0.00000000000E+00  0.00000000000E+00  0.19117289486E+03  0.19117289486E+03  0.00000000000E+00 0.  1.
         21   -1    0    0  501  502 -0.00000000000E+00 -0.00000000000E+00 -0.27508620248E+03  0.27508620248E+03  0.00000000000E+00 0.  1.
      99926    2    1    2    0    0  0.00000000000E+00  0.00000000000E+00 -0.83913307619E+02  0.46625909735E+03  0.45864594478E+03 0.  0.
      99925    2    3    3    0    0  0.10915604925E+03  0.29455296046E+02 -0.85191443339E+02  0.29764178126E+03  0.26182129475E+03 0.  0.
         25    1    4    4    0    0  0.48825319676E+02 -0.14865439937E+02 -0.15271745230E+02  0.13596186027E+03  0.12509000000E+03 0.  0.
         25    1    3    3    0    0 -0.10915604925E+03 -0.29455296046E+02  0.12781357199E+01  0.16861731608E+03  0.12509000000E+03 0.  0.
         25    1    4    4    0    0  0.60330729570E+02  0.44320735983E+02 -0.69919698109E+02  0.16167992099E+03  0.12509000000E+03 0.  0.
<mgrwt>
<rscale>  2 0.45864594E+03</rscale>
<asrwt>0</asrwt>
<pdfrwt beam="1">  1       21 0.28113661E-01 0.45864594E+03</pdfrwt>
<pdfrwt beam="2">  1       21 0.40453853E-01 0.45864594E+03</pdfrwt>
<totfact> 0.65789254E+04</totfact>
</mgrwt>
</event>
<event>
 7    0  0.4712189E-002  0.4606499E+03  0.7546771E-02  0.1024593E+00
         21   -1    0    0  502  501  0.00000000000E+00  0.00000000000E+00  0.17903783131E+03  0.17903783131E+03  0.00000000000E+00 0.  1.
         21   -1    0    0  501  502 -0.00000000000E+00 -0.00000000000E+00 -0.29630371642E+03  0.29630371642E+03  0.00000000000E+00 0.  1.
      99926    2    1    2    0    0  0.71054273576E-14  0.00000000000E+00 -0.11726588511E+03  0.47534154773E+03  0.46064986616E+03 0.  0.
      99925    2    3    3    0    0  0.43485186957E+02 -0.10441293943E+03 -0.10902844361E+03  0.30649727940E+03  0.26317362588E+03 0.  0.
         25    1    3    3    0    0 -0.43485186957E+02  0.10441293943E+03 -0.82374414965E+01  0.16884426833E+03  0.12509000000E+03 0.  0.
         25    1    4    4    0    0  0.32208636378E+02 -0.76324489664E+02 -0.23234882875E+02  0.15182289637E+03  0.12509000000E+03 0.  0.
         25    1    4    4    0    0  0.11276550578E+02 -0.28088449764E+02 -0.85793560739E+02  0.15467438304E+03  0.12509000000E+03 0.  0.
<mgrwt>
<rscale>  2 0.46064987E+03</rscale>
<asrwt>0</asrwt>
<pdfrwt beam="1">  1       21 0.26329093E-01 0.46064987E+03</pdfrwt>
<pdfrwt beam="2">  1       21 0.43574075E-01 0.46064987E+03</pdfrwt>
<totfact> 0.64118001E+04</totfact>
</mgrwt>
</event>
<event>
 7    0  0.4712189E-002  0.4587570E+03  0.7546771E-02  0.1025142E+00
         21   -1    0    0  502  501  0.00000000000E+00  0.00000000000E+00  0.21311541530E+03  0.21311541530E+03  0.00000000000E+00 0. -1.
         21   -1    0    0  501  502 -0.00000000000E+00 -0.00000000000E+00 -0.24688268037E+03  0.24688268037E+03  0.00000000000E+00 0. -1.
      99926    2    1    2    0    0 -0.71054273576E-14  0.00000000000E+00 -0.33767265074E+02  0.45999809567E+03  0.45875703790E+03 0.  0.
      99925    2    3    3    0    0  0.56813719097E+02  0.94866459002E+02  0.16148353981E+02  0.28573817243E+03  0.26297925798E+03 0.  0.
         25    1    4    4    0    0  0.16451228231E+02  0.62986223648E+02 -0.27391207962E+02  0.14365129186E+03  0.12509000000E+03 0.  0.
         25    1    3    3    0    0 -0.56813719097E+02 -0.94866459002E+02 -0.49915619056E+02  0.17425992324E+03  0.12509000000E+03 0.  0.
         25    1    4    4    0    0  0.40362490866E+02  0.31880235354E+02  0.43539561943E+02  0.14208688057E+03  0.12509000000E+03 0.  0.
<mgrwt>
<rscale>  2 0.45875704E+03</rscale>
<asrwt>0</asrwt>
<pdfrwt beam="1">  1       21 0.31340502E-01 0.45875704E+03</pdfrwt>
<pdfrwt beam="2">  1       21 0.36306276E-01 0.45875704E+03</pdfrwt>
<totfact> 0.66175157E+04</totfact>
</mgrwt>
</event>
<event>
 7    0  0.4712189E-002  0.4584502E+03  0.7546771E-02  0.1025232E+00
         21   -1    0    0  502  501  0.00000000000E+00  0.00000000000E+00  0.96863120998E+02  0.96863120998E+02  0.00000000000E+00 0. -1.
         21   -1    0    0  501  502 -0.00000000000E+00 -0.00000000000E+00 -0.54245778475E+03  0.54245778475E+03  0.00000000000E+00 0. -1.
      99926    2    1    2    0    0  0.00000000000E+00  0.00000000000E+00 -0.44559466375E+03  0.63932090574E+03  0.45845023302E+03 0.  0.
      99925    2    3    3    0    0  0.93287797542E+02 -0.66077970863E+02 -0.31000973601E+03  0.42229627089E+03  0.26298135406E+03 0.  0.
         25    1    3    3    0    0 -0.93287797542E+02  0.66077970863E+02 -0.13558492774E+03  0.21702463486E+03  0.12509000000E+03 0.  0.
         25    1    4    4    0    0  0.21426404108E+02 -0.37686397975E+02 -0.99900604486E+02  0.16585232667E+03  0.12509000000E+03 0.  0.
         25    1    4    4    0    0  0.71861393435E+02 -0.28391572888E+02 -0.21010913152E+03  0.25644394422E+03  0.12509000000E+03 0.  0.
<mgrwt>
<rscale>  2 0.45845023E+03</rscale>
<asrwt>0</asrwt>
<pdfrwt beam="1">  1       21 0.14244577E-01 0.45845023E+03</pdfrwt>
<pdfrwt beam="2">  1       21 0.79773204E-01 0.45845023E+03</pdfrwt>
<totfact> 0.54813119E+04</totfact>
</mgrwt>
</event>
<event>
 7    0  0.4712189E-002  0.4505762E+03  0.7546771E-02  0.1027550E+00
         21   -1    0    0  502  501  0.00000000000E+00  0.00000000000E+00  0.26857626689E+03  0.26857626689E+03  0.00000000000E+00 0.  1.
         21   -1    0    0  501  502 -0.00000000000E+00 -0.00000000000E+00 -0.18897692804E+03  0.18897692804E+03  0.00000000000E+00 0.  1.
      99926    2    1    2    0    0  0.71054273576E-14  0.71054273576E-14  0.79599338844E+02  0.45755319493E+03  0.45057615499E+03 0.  0.
      99925    2    3    3    0    0  0.54523507853E+02  0.62455195362E+02  0.12199320213E+03  0.30161021791E+03  0.26308348076E+03 0.  0.
         25    1    3    3    0    0 -0.54523507853E+02 -0.62455195362E+02 -0.42393863287E+02  0.15594297702E+03  0.12509000000E+03 0.  0.
         25    1    4    4    0    0  0.35394341086E+02  0.72309733187E+02  0.70814780890E+02  0.16475344666E+03  0.12509000000E+03 0.  0.
         25    1    4    4    0    0  0.19129166767E+02 -0.98545378252E+01  0.51178421242E+02  0.13685677125E+03  0.12509000000E+03 0.  0.
<mgrwt>
<rscale>  2 0.45057615E+03</rscale>
<asrwt>0</asrwt>
<pdfrwt beam="1">  1       21 0.39496510E-01 0.45057615E+03</pdfrwt>
<pdfrwt beam="2">  1       21 0.27790725E-01 0.45057615E+03</pdfrwt>
<totfact> 0.70824587E+04</totfact>
</mgrwt>
</event>
<event>
 7    0  0.4712189E-002  0.4576352E+03  0.7546771E-02  0.1025469E+00
         21   -1    0    0  502  501  0.00000000000E+00  0.00000000000E+00  0.20541274451E+03  0.20541274451E+03  0.00000000000E+00 0. -1.
         21   -1    0    0  501  502 -0.00000000000E+00 -0.00000000000E+00 -0.25488923522E+03  0.25488923522E+03  0.00000000000E+00 0. -1.
      99926    2    1    2    0    0  0.00000000000E+00 -0.17763568394E-14 -0.49476490712E+02  0.46030197972E+03  0.45763521434E+03 0.  0.
      99925    2    3    3    0    0  0.75926967341E+02  0.15713339737E+02 -0.11730031390E+03  0.29825447895E+03  0.26302957468E+03 0.  0.
         25    1    4    4    0    0  0.64981823553E+02  0.69572948551E+01 -0.95755607119E+02  0.17055112353E+03  0.12509000000E+03 0.  0.
         25    1    3    3    0    0 -0.75926967341E+02 -0.15713339737E+02  0.67823823184E+02  0.16204750077E+03  0.12509000000E+03 0.  0.
         25    1    4    4    0    0  0.10945143788E+02  0.87560448822E+01 -0.21544706777E+02  0.12770335542E+03  0.12509000000E+03 0.  0.
<mgrwt>
<rscale>  2 0.45763521E+03</rscale>
<asrwt>0</asrwt>
<pdfrwt beam="1">  1       21 0.30207757E-01 0.45763521E+03</pdfrwt>
<pdfrwt beam="2">  1       21 0.37483711E-01 0.45763521E+03</pdfrwt>
<totfact> 0.66744674E+04</totfact>
</mgrwt>
</event>
<event>
 7    0  0.4712189E-002  0.4514218E+03  0.7546771E-02  0.1027299E+00
         21   -1    0    0  502  501  0.00000000000E+00  0.00000000000E+00  0.82661466615E+02  0.82661466615E+02  0.00000000000E+00 0.  1.
         21   -1    0    0  501  502 -0.00000000000E+00 -0.00000000000E+00 -0.61631399678E+03  0.61631399678E+03  0.00000000000E+00 0.  1.
      99926    2    1    2    0    0  0.14210854715E-13  0.00000000000E+00 -0.53365253016E+03  0.69897546339E+03  0.45142183762E+03 0.  0.
      99925    2    3    3    0    0 -0.96466531449E+02 -0.50738061808E+02 -0.35666925246E+03  0.45638376672E+03  0.26304570758E+03 0.  0.
         25    1    4    4    0    0 -0.84750321500E+01 -0.22428213121E+02 -0.13509872058E+03  0.18567181616E+03  0.12509000000E+03 0.  0.
         25    1    4    4    0    0 -0.87991499299E+02 -0.28309848687E+02 -0.22157053188E+03  0.27071195056E+03  0.12509000000E+03 0.  0.
         25    1    3    3    0    0  0.96466531449E+02  0.50738061808E+02 -0.17698327771E+03  0.24259169667E+03  0.12509000000E+03 0.  0.
<mgrwt>
<rscale>  2 0.45142184E+03</rscale>
<asrwt>0</asrwt>
<pdfrwt beam="1">  1       21 0.12156098E-01 0.45142184E+03</pdfrwt>
<pdfrwt beam="2">  1       21 0.90634408E-01 0.45142184E+03</pdfrwt>
<totfact> 0.54476545E+04</totfact>
</mgrwt>
</event>
<event>
 7    0  0.4712189E-002  0.4493662E+03  0.7546771E-02  0.1027911E+00
         21   -1    0    0  502  501  0.00000000000E+00  0.00000000000E+00  0.23249268702E+03  0.23249268702E+03  0.00000000000E+00 0.  1.
         21   -1    0    0  501  502 -0.00000000000E+00 -0.00000000000E+00 -0.21713586056E+03  0.21713586056E+03  0.00000000000E+00 0.  1.
      99926    2    1    2    0    0  0.00000000000E+00  0.00000000000E+00  0.15356826461E+02  0.44962854758E+03  0.44936621889E+03 0.  0.
      99925    2    3    3    0    0 -0.53893323764E+02  0.22872763157E+02 -0.80869942398E+02  0.28129924892E+03  0.26298605708E+03 0.  0.
         25    1    4    4    0    0  0.11082068961E+02  0.26105441489E+02 -0.43424069151E+02  0.13541589349E+03  0.12509000000E+03 0.  0.
         25    1    3    3    0    0  0.53893323764E+02 -0.22872763157E+02  0.96226768859E+02  0.16832929866E+03  0.12509000000E+03 0.  0.
         25    1    4    4    0    0 -0.64975392725E+02 -0.32326783318E+01 -0.37445873247E+02  0.14588335543E+03  0.12509000000E+03 0.  0.
<mgrwt>
<rscale>  2 0.44936622E+03</rscale>
<asrwt>0</asrwt>
<pdfrwt beam="1">  1       21 0.34190101E-01 0.44936622E+03</pdfrwt>
<pdfrwt beam="2">  1       21 0.31931744E-01 0.44936622E+03</pdfrwt>
<totfact> 0.72129316E+04</totfact>
</mgrwt>
</event>
<event>
 7    0  0.4712189E-002  0.4238629E+03  0.7546771E-02  0.1035816E+00
         21   -1    0    0  502  501  0.00000000000E+00  0.00000000000E+00  0.13456601563E+04  0.13456601563E+04  0.00000000000E+00 0. -1.
         21   -1    0    0  501  502 -0.00000000000E+00 -0.00000000000E+00 -0.33377625671E+02  0.33377625671E+02  0.00000000000E+00 0. -1.
      99926    2    1    2    0    0  0.71054273576E-14 -0.14210854715E-13  0.13122825306E+04  0.13790377820E+04  0.42386290698E+03 0.  0.
      99925    2    3    3    0    0  0.35534909291E+02 -0.66756729660E+02  0.75997004737E+03  0.80770969935E+03  0.26290929003E+03 0.  0.
         25    1    4    4    0    0  0.47750564305E+02 -0.20705454503E+02  0.45294174402E+03  0.47277115375E+03  0.12509000000E+03 0.  0.
         25    1    4    4    0    0 -0.12215655014E+02 -0.46051275157E+02  0.30702830335E+03  0.33493854560E+03  0.12509000000E+03 0.  0.
         25    1    3    3    0    0 -0.35534909291E+02  0.66756729660E+02  0.55231248325E+03  0.57132808262E+03  0.12509000000E+03 0.  0.
<mgrwt>
<rscale>  2 0.42386291E+03</rscale>
<asrwt>0</asrwt>
<pdfrwt beam="1">  1       21 0.19789116E+00 0.42386291E+03</pdfrwt>
<pdfrwt beam="2">  1       21 0.49084753E-02 0.42386291E+03</pdfrwt>
<totfact> 0.34525900E+04</totfact>
</mgrwt>
</event>
<event>
 7    0  0.4712189E-002  0.4549014E+03  0.7546771E-02  0.1026270E+00
         21   -1    0    0  502  501  0.00000000000E+00  0.00000000000E+00  0.51826662119E+03  0.51826662119E+03  0.00000000000E+00 0. -1.
         21   -1    0    0  501  502 -0.00000000000E+00 -0.00000000000E+00 -0.99820851175E+02  0.99820851175E+02  0.00000000000E+00 0. -1.
      99926    2    1    2    0    0  0.00000000000E+00  0.00000000000E+00  0.41844577002E+03  0.61808747237E+03  0.45490137508E+03 0.  0.
      99925    2    3    3    0    0  0.57143220386E+02 -0.83065476545E+02  0.19383497269E+03  0.34193038047E+03  0.26301932899E+03 0.  0.
         25    1    3    3    0    0 -0.57143220386E+02  0.83065476545E+02  0.22461079733E+03  0.27615709190E+03  0.12509000000E+03 0.  0.
         25    1    4    4    0    0  0.67006897004E+02 -0.50717184043E+02  0.12114233372E+03  0.19335234709E+03  0.12509000000E+03 0.  0.
         25    1    4    4    0    0 -0.98636766177E+01 -0.32348292501E+02  0.72692638967E+02  0.14857803338E+03  0.12509000000E+03 0.  0.
<mgrwt>
<rscale>  2 0.45490138E+03</rscale>
<asrwt>0</asrwt>
<pdfrwt beam="1">  1       21 0.76215678E-01 0.45490138E+03</pdfrwt>
<pdfrwt beam="2">  1       21 0.14679537E-01 0.45490138E+03</pdfrwt>
<totfact> 0.57623392E+04</totfact>
</mgrwt>
</event>
<event>
 7    0  0.4712189E-002  0.4565443E+03  0.7546771E-02  0.1025788E+00
         21   -1    0    0  502  501  0.00000000000E+00  0.00000000000E+00  0.72234522423E+03  0.72234522423E+03  0.00000000000E+00 0. -1.
         21   -1    0    0  501  502 -0.00000000000E+00 -0.00000000000E+00 -0.72137497298E+02  0.72137497298E+02  0.00000000000E+00 0. -1.
      99926    2    1    2    0    0 -0.71054273576E-14  0.00000000000E+00  0.65020772693E+03  0.79448272153E+03  0.45654430962E+03 0.  0.
      99925    2    3    3    0    0 -0.63484991945E+02 -0.16542237439E+02  0.57217497782E+03  0.63311169608E+03  0.26294909134E+03 0.  0.
         25    1    4    4    0    0 -0.56860262829E+02 -0.24141740414E+02  0.36672279513E+03  0.39236338984E+03  0.12509000000E+03 0.  0.
         25    1    4    4    0    0 -0.66247291156E+01  0.75995029745E+01  0.20545218269E+03  0.24074830623E+03  0.12509000000E+03 0.  0.
         25    1    3    3    0    0  0.63484991945E+02  0.16542237439E+02  0.78032749105E+02  0.16137102545E+03  0.12509000000E+03 0.  0.
<mgrwt>
<rscale>  2 0.45654431E+03</rscale>
<asrwt>0</asrwt>
<pdfrwt beam="1">  1       21 0.10622723E+00 0.45654431E+03</pdfrwt>
<pdfrwt beam="2">  1       21 0.10608456E-01 0.45654431E+03</pdfrwt>
<totfact> 0.47455068E+04</totfact>
</mgrwt>
</event>
<event>
 7    0  0.4712189E-002  0.4569213E+03  0.7546771E-02  0.1025678E+00
         21   -1    0    0  502  501  0.00000000000E+00  0.00000000000E+00  0.67780627785E+03  0.67780627785E+03  0.00000000000E+00 0. -1.
         21   -1    0    0  501  502 -0.00000000000E+00 -0.00000000000E+00 -0.77004694201E+02  0.77004694201E+02  0.00000000000E+00 0. -1.
      99926    2    1    2    0    0  0.00000000000E+00  0.00000000000E+00  0.60080158365E+03  0.75481097205E+03  0.45692128492E+03 0.  0.
      99925    2    3    3    0    0 -0.73463426752E+02  0.87573986893E+02  0.35529477655E+03  0.45650378360E+03  0.26285974957E+03 0.  0.
         25    1    4    4    0    0 -0.51402743971E+02  0.71876908815E+01  0.15052562079E+03  0.20248302547E+03  0.12509000000E+03 0.  0.
         25    1    3    3    0    0  0.73463426752E+02 -0.87573986893E+02  0.24550680710E+03  0.29830718845E+03  0.12509000000E+03 0.  0.
         25    1    4    4    0    0 -0.22060682781E+02  0.80386296012E+02  0.20476915576E+03  0.25402075813E+03  0.12509000000E+03 0.  0.
<mgrwt>
<rscale>  2 0.45692128E+03</rscale>
<asrwt>0</asrwt>
<pdfrwt beam="1">  1       21 0.99677390E-01 0.45692128E+03</pdfrwt>
<pdfrwt beam="2">  1       21 0.11324220E-01 0.45692128E+03</pdfrwt>
<totfact> 0.49277845E+04</totfact>
</mgrwt>
</event>
<event>
 7    0  0.4712189E-002  0.4563145E+03  0.7546771E-02  0.1025856E+00
         21   -1    0    0  502  501  0.00000000000E+00  0.00000000000E+00  0.42178467415E+03  0.42178467415E+03  0.00000000000E+00 0.  1.
         21   -1    0    0  501  502 -0.00000000000E+00 -0.00000000000E+00 -0.12341781193E+03  0.12341781193E+03  0.00000000000E+00 0.  1.
      99926    2    1    2    0    0  0.00000000000E+00 -0.35527136788E-14  0.29836686222E+03  0.54520248608E+03  0.45631454761E+03 0.  0.
      99925    2    3    3    0    0  0.39719841186E+02 -0.22011654051E+02  0.31296069187E+03  0.41132692199E+03  0.26302711533E+03 0.  0.
         25    1    4    4    0    0  0.40132737861E+02  0.20921420309E+00  0.21041151157E+03  0.24805481798E+03  0.12509000000E+03 0.  0.
         25    1    3    3    0    0 -0.39719841186E+02  0.22011654051E+02 -0.14593829643E+02  0.13387556409E+03  0.12509000000E+03 0.  0.
         25    1    4    4    0    0 -0.41289667541E+00 -0.22220868254E+02  0.10254918030E+03  0.16327210401E+03  0.12509000000E+03 0.  0.
<mgrwt>
<rscale>  2 0.45631455E+03</rscale>
<asrwt>0</asrwt>
<pdfrwt beam="1">  1       21 0.62027157E-01 0.45631455E+03</pdfrwt>
<pdfrwt beam="2">  1       21 0.18149678E-01 0.45631455E+03</pdfrwt>
<totfact> 0.61541999E+04</totfact>
</mgrwt>
</event>
<event>
 7    0  0.4712189E-002  0.4497702E+03  0.7546771E-02  0.1027791E+00
         21   -1    0    0  502  501  0.00000000000E+00  0.00000000000E+00  0.10471515429E+03  0.10471515429E+03  0.00000000000E+00 0. -1.
         21   -1    0    0  501  502 -0.00000000000E+00 -0.00000000000E+00 -0.48296082207E+03  0.48296082207E+03  0.00000000000E+00 0. -1.
      99926    2    1    2    0    0  0.00000000000E+00  0.00000000000E+00 -0.37824566778E+03  0.58767597636E+03  0.44977023912E+03 0.  0.
      99925    2    3    3    0    0 -0.67236278878E+02  0.39103815687E+02 -0.33748720167E+03  0.43484081595E+03  0.26294314657E+03 0.  0.
         25    1    4    4    0    0 -0.44735453363E+02  0.58149175987E+02 -0.16369074794E+03  0.21868872060E+03  0.12509000000E+03 0.  0.
         25    1    3    3    0    0  0.67236278878E+02 -0.39103815687E+02 -0.40758466112E+02  0.15283516041E+03  0.12509000000E+03 0.  0.
         25    1    4    4    0    0 -0.22500825515E+02 -0.19045360301E+02 -0.17379645373E+03  0.21615209535E+03  0.12509000000E+03 0.  0.
<mgrwt>
<rscale>  2 0.44977024E+03</rscale>
<asrwt>0</asrwt>
<pdfrwt beam="1">  1       21 0.15399287E-01 0.44977024E+03</pdfrwt>
<pdfrwt beam="2">  1       21 0.71023651E-01 0.44977024E+03</pdfrwt>
<totfact> 0.61965235E+04</totfact>
</mgrwt>
</event>
<event>
 7    0  0.4712189E-002  0.4657443E+03  0.7546771E-02  0.1023128E+00
         21   -1    0    0  502  501  0.00000000000E+00  0.00000000000E+00  0.27595308762E+03  0.27595308762E+03  0.00000000000E+00 0. -1.
         21   -1    0    0  501  502 -0.00000000000E+00 -0.00000000000E+00 -0.19651685412E+03  0.19651685412E+03  0.00000000000E+00 0. -1.
      99926    2    1    2    0    0 -0.35527136788E-14  0.00000000000E+00  0.79436233502E+02  0.47246994174E+03  0.46574427603E+03 0.  0.
      99925    2    3    3    0    0 -0.30223022108E+02  0.10024950779E+03 -0.15658984401E+02  0.28364726449E+03  0.26314857397E+03 0.  0.
         25    1    4    4    0    0  0.25892096598E+02  0.46206373457E+02 -0.84307233063E+01  0.13610295665E+03  0.12509000000E+03 0.  0.
         25    1    3    3    0    0  0.30223022108E+02 -0.10024950779E+03  0.95095217902E+02  0.18882267725E+03  0.12509000000E+03 0.  0.
         25    1    4    4    0    0 -0.56115118707E+02  0.54043134334E+02 -0.72282610944E+01  0.14754430784E+03  0.12509000000E+03 0.  0.
<mgrwt>
<rscale>  2 0.46574428E+03</rscale>
<asrwt>0</asrwt>
<pdfrwt beam="1">  1       21 0.40581337E-01 0.46574428E+03</pdfrwt>
<pdfrwt beam="2">  1       21 0.28899537E-01 0.46574428E+03</pdfrwt>
<totfact> 0.61808988E+04</totfact>
</mgrwt>
</event>
<event>
 7    0  0.4712189E-002  0.4488427E+03  0.7546771E-02  0.1028068E+00
         21   -1    0    0  502  501  0.00000000000E+00  0.00000000000E+00  0.55604426292E+02  0.55604426292E+02  0.00000000000E+00 0.  1.
         21   -1    0    0  501  502 -0.00000000000E+00 -0.00000000000E+00 -0.90577202314E+03  0.90577202314E+03  0.00000000000E+00 0.  1.
      99926    2    1    2    0    0  0.00000000000E+00  0.00000000000E+00 -0.85016759685E+03  0.96137644943E+03  0.44884266151E+03 0.  0.
      99925    2    3    3    0    0 -0.64859470198E+02  0.80335585550E+02 -0.60053638708E+03  0.66367894160E+03  0.26299282905E+03 0.  0.
         25    1    3    3    0    0  0.64859470198E+02 -0.80335585550E+02 -0.24963120976E+03  0.29769750783E+03  0.12509000000E+03 0.  0.
         25    1    4    4    0    0 -0.67321432345E+02  0.19591817399E+02 -0.29835645414E+03  0.33102884526E+03  0.12509000000E+03 0.  0.
         25    1    4    4    0    0  0.24619621466E+01  0.60743768151E+02 -0.30217993294E+03  0.33265009634E+03  0.12509000000E+03 0.  0.
<mgrwt>
<rscale>  2 0.44884266E+03</rscale>
<asrwt>0</asrwt>
<pdfrwt beam="1">  1       21 0.81771217E-02 0.44884266E+03</pdfrwt>
<pdfrwt beam="2">  1       21 0.13320177E+00 0.44884266E+03</pdfrwt>
<totfact> 0.42702604E+04</totfact>
</mgrwt>
</event>
<event>
 7    0  0.4712189E-002  0.4538889E+03  0.7546771E-02  0.1026569E+00
         21   -1    0    0  502  501  0.00000000000E+00  0.00000000000E+00  0.37508736357E+03  0.37508736357E+03  0.00000000000E+00 0.  1.
         21   -1    0    0  501  502 -0.00000000000E+00 -0.00000000000E+00 -0.13731146043E+03  0.13731146043E+03  0.00000000000E+00 0.  1.
      99926    2    1    2    0    0  0.00000000000E+00  0.00000000000E+00  0.23777590314E+03  0.51239882400E+03  0.45388894536E+03 0.  0.
      99925    2    3    3    0    0  0.15220778804E+02  0.20368550875E+02  0.27300929855E+03  0.37997733698E+03  0.26306301442E+03 0.  0.
         25    1    3    3    0    0 -0.15220778804E+02 -0.20368550875E+02 -0.35233395410E+02  0.13242148702E+03  0.12509000000E+03 0.  0.
         25    1    4    4    0    0  0.16917402001E+02  0.49827525763E+02  0.14420883686E+03  0.19802191177E+03  0.12509000000E+03 0.  0.
         25    1    4    4    0    0 -0.16966231969E+01 -0.29458974888E+02  0.12880046169E+03  0.18195542521E+03  0.12509000000E+03 0.  0.
<mgrwt>
<rscale>  2 0.45388895E+03</rscale>
<asrwt>0</asrwt>
<pdfrwt beam="1">  1       21 0.55159906E-01 0.45388895E+03</pdfrwt>
<pdfrwt beam="2">  1       21 0.20192862E-01 0.45388895E+03</pdfrwt>
<totfact> 0.64979117E+04</totfact>
</mgrwt>
</event>
<event>
 7    0  0.4712189E-002  0.4188095E+03  0.7546771E-02  0.1037454E+00
         21   -1    0    0  502  501  0.00000000000E+00  0.00000000000E+00  0.75907969832E+03  0.75907969832E+03  0.00000000000E+00 0.  1.
         21   -1    0    0  501  502 -0.00000000000E+00 -0.00000000000E+00 -0.57767769261E+02  0.57767769261E+02  0.00000000000E+00 0.  1.
      99926    2    1    2    0    0  0.00000000000E+00  0.00000000000E+00  0.70131192906E+03  0.81684746758E+03  0.41880945960E+03 0.  0.
      99925    2    3    3    0    0  0.36084592242E+02 -0.51625968550E+02  0.38016795699E+03  0.46649293668E+03  0.26290805622E+03 0.  0.
         25    1    4    4    0    0  0.38555194841E+01 -0.22588221793E+01  0.23336116944E+03  0.26481108514E+03  0.12509000000E+03 0.  0.
         25    1    4    4    0    0  0.32229072758E+02 -0.49367146370E+02  0.14680678754E+03  0.20168185154E+03  0.12509000000E+03 0.  0.
         25    1    3    3    0    0 -0.36084592242E+02  0.51625968550E+02  0.32114397207E+03  0.35035453090E+03  0.12509000000E+03 0.  0.
<mgrwt>
<rscale>  2 0.41880946E+03</rscale>
<asrwt>0</asrwt>
<pdfrwt beam="1">  1       21 0.11162936E+00 0.41880946E+03</pdfrwt>
<pdfrwt beam="2">  1       21 0.84952606E-02 0.41880946E+03</pdfrwt>
<totfact> 0.63044569E+04</totfact>
</mgrwt>
</event>
<event>
 7    0  0.4712189E-002  0.4673459E+03  0.7546771E-02  0.1022672E+00
         21   -1    0    0  502  501  0.00000000000E+00  0.00000000000E+00  0.25859226049E+03  0.25859226049E+03  0.00000000000E+00 0. -1.
         21   -1    0    0  501  502 -0.00000000000E+00 -0.00000000000E+00 -0.21115497335E+03  0.21115497335E+03  0.00000000000E+00 0. -1.
      99926    2    1    2    0    0  0.00000000000E+00  0.71054273576E-14  0.47437287142E+02  0.46974723384E+03  0.46734587565E+03 0.  0.
      99925    2    3    3    0    0  0.32706363892E+02 -0.25488126360E+02  0.14746429517E+03  0.30430158941E+03  0.26293418976E+03 0.  0.
         25    1    3    3    0    0 -0.32706363892E+02  0.25488126360E+02 -0.10002700803E+03  0.16544564443E+03  0.12509000000E+03 0.  0.
         25    1    4    4    0    0  0.54004327790E+02 -0.28572414298E+02  0.79855941332E+02  0.16049090237E+03  0.12509000000E+03 0.  0.
         25    1    4    4    0    0 -0.21297963898E+02  0.30842879387E+01  0.67608353838E+02  0.14381068704E+03  0.12509000000E+03 0.  0.
<mgrwt>
<rscale>  2 0.46734588E+03</rscale>
<asrwt>0</asrwt>
<pdfrwt beam="1">  1       21 0.38028274E-01 0.46734588E+03</pdfrwt>
<pdfrwt beam="2">  1       21 0.31052202E-01 0.46734588E+03</pdfrwt>
<totfact> 0.61222179E+04</totfact>
</mgrwt>
</event>
<event>
 7    0  0.4712189E-002  0.4520801E+03  0.7546771E-02  0.1027104E+00
         21   -1    0    0  502  501  0.00000000000E+00  0.00000000000E+00  0.65607871949E+03  0.65607871949E+03  0.00000000000E+00 0.  1.
         21   -1    0    0  501  502 -0.00000000000E+00 -0.00000000000E+00 -0.77878010593E+02  0.77878010593E+02  0.00000000000E+00 0.  1.
      99926    2    1    2    0    0  0.00000000000E+00  0.00000000000E+00  0.57820070889E+03  0.73395673008E+03  0.45208010558E+03 0.  0.
      99925    2    3    3    0    0 -0.15883517735E+02 -0.96956124982E+02  0.28294375787E+03  0.39858089384E+03  0.26297677180E+03 0.  0.
         25    1    4    4    0    0  0.74818433591E+01 -0.38313306033E+02  0.85476216138E+02  0.15645312085E+03  0.12509000000E+03 0.  0.
         25    1    4    4    0    0 -0.23365361094E+02 -0.58642818949E+02  0.19746754173E+03  0.24212777298E+03  0.12509000000E+03 0.  0.
         25    1    3    3    0    0  0.15883517735E+02  0.96956124982E+02  0.29525695103E+03  0.33537583624E+03  0.12509000000E+03 0.  0.
<mgrwt>
<rscale>  2 0.45208011E+03</rscale>
<asrwt>0</asrwt>
<pdfrwt beam="1">  1       21 0.96482162E-01 0.45208011E+03</pdfrwt>
<pdfrwt beam="2">  1       21 0.11452649E-01 0.45208011E+03</pdfrwt>
<totfact> 0.52287962E+04</totfact>
</mgrwt>
</event>
<event>
 7    0  0.4712189E-002  0.4505989E+03  0.7546771E-02  0.1027544E+00
         21   -1    0    0  502  501  0.00000000000E+00  0.00000000000E+00  0.13095021162E+03  0.13095021162E+03  0.00000000000E+00 0. -1.
         21   -1    0    0  501  502 -0.00000000000E+00 -0.00000000000E+00 -0.38762702167E+03  0.38762702167E+03  0.00000000000E+00 0. -1.
      99926    2    1    2    0    0 -0.14210854715E-13 -0.37747582837E-14 -0.25667681005E+03  0.51857723329E+03  0.45059889266E+03 0.  0.
      99925    2    3    3    0    0 -0.10705501989E+03  0.17074904337E+01 -0.18543160646E+03  0.33916965279E+03  0.26303513053E+03 0.  0.
         25    1    4    4    0    0 -0.61555210105E+02 -0.33532717065E+02 -0.70361183583E+02  0.15972379679E+03  0.12509000000E+03 0.  0.
         25    1    3    3    0    0  0.10705501989E+03 -0.17074904337E+01 -0.71245203591E+02  0.17940758050E+03  0.12509000000E+03 0.  0.
         25    1    4    4    0    0 -0.45499809783E+02  0.35240207499E+02 -0.11507042287E+03  0.17944585600E+03  0.12509000000E+03 0.  0.
<mgrwt>
<rscale>  2 0.45059889E+03</rscale>
<asrwt>0</asrwt>
<pdfrwt beam="1">  1       21 0.19257383E-01 0.45059889E+03</pdfrwt>
<pdfrwt beam="2">  1       21 0.57003976E-01 0.45059889E+03</pdfrwt>
<totfact> 0.66268054E+04</totfact>
</mgrwt>
</event>
<event>
 7    0  0.4712189E-002  0.4553419E+03  0.7546771E-02  0.1026141E+00
         21   -1    0    0  502  501  0.00000000000E+00  0.00000000000E+00  0.23988097894E+03  0.23988097894E+03  0.00000000000E+00 0. -1.
         21   -1    0    0  501  502 -0.00000000000E+00 -0.00000000000E+00 -0.21608241677E+03  0.21608241677E+03  0.00000000000E+00 0. -1.
      99926    2    1    2    0    0  0.35527136788E-14  0.17763568394E-14  0.23798562168E+02  0.45596339571E+03  0.45534190084E+03 0.  0.
      99925    2    3    3    0    0  0.29949665498E+02 -0.11515482229E+02 -0.94021863270E+02  0.28115278520E+03  0.26301556810E+03 0.  0.
         25    1    4    4    0    0  0.17865334768E+01 -0.43747241433E+02 -0.52848728838E+02  0.14267974304E+03  0.12509000000E+03 0.  0.
         25    1    4    4    0    0  0.28163132022E+02  0.32231759203E+02 -0.41173134432E+02  0.13847304216E+03  0.12509000000E+03 0.  0.
         25    1    3    3    0    0 -0.29949665498E+02  0.11515482229E+02  0.11782042544E+03  0.17481061050E+03  0.12509000000E+03 0.  0.
<mgrwt>
<rscale>  2 0.45534190E+03</rscale>
<asrwt>0</asrwt>
<pdfrwt beam="1">  1       21 0.35276615E-01 0.45534190E+03</pdfrwt>
<pdfrwt beam="2">  1       21 0.31776826E-01 0.45534190E+03</pdfrwt>
<totfact> 0.68288821E+04</totfact>
</mgrwt>
</event>
<event>
 7    0  0.4712189E-002  0.4596102E+03  0.7546771E-02  0.1024894E+00
         21   -1    0    0  502  501  0.00000000000E+00  0.00000000000E+00  0.20319474807E+03  0.20319474807E+03  0.00000000000E+00 0.  1.
         21   -1    0    0  501  502 -0.00000000000E+00 -0.00000000000E+00 -0.25990036778E+03  0.25990036778E+03  0.00000000000E+00 0.  1.
      99926    2    1    2    0    0  0.00000000000E+00  0.00000000000E+00 -0.56705619704E+02  0.46309511585E+03  0.45961022510E+03 0.  0.
      99925    2    3    3    0    0  0.94821946517E+02  0.28423280099E+02 -0.99147011767E+02  0.29802584477E+03  0.26304028174E+03 0.  0.
         25    1    4    4    0    0  0.59410178814E+02 -0.24142921889E+02 -0.55908016987E+02  0.15128008622E+03  0.12509000000E+03 0.  0.
         25    1    3    3    0    0 -0.94821946517E+02 -0.28423280099E+02  0.42441392062E+02  0.16506927107E+03  0.12509000000E+03 0.  0.
         25    1    4    4    0    0  0.35411767703E+02  0.52566201988E+02 -0.43238994780E+02  0.14674575855E+03  0.12509000000E+03 0.  0.
<mgrwt>
<rscale>  2 0.45961023E+03</rscale>
<asrwt>0</asrwt>
<pdfrwt beam="1">  1       21 0.29881581E-01 0.45961023E+03</pdfrwt>
<pdfrwt beam="2">  1       21 0.38220642E-01 0.45961023E+03</pdfrwt>
<totfact> 0.65513535E+04</totfact>
</mgrwt>
</event>
<event>
 7    0  0.4712189E-002  0.4514766E+03  0.7546771E-02  0.1027283E+00
         21   -1    0    0  502  501  0.00000000000E+00  0.00000000000E+00  0.49914984645E+03  0.49914984645E+03  0.00000000000E+00 0. -1.
         21   -1    0    0  501  502 -0.00000000000E+00 -0.00000000000E+00 -0.10208914879E+03  0.10208914879E+03  0.00000000000E+00 0. -1.
      99926    2    1    2    0    0  0.00000000000E+00  0.00000000000E+00  0.39706069766E+03  0.60123899525E+03  0.45147661266E+03 0.  0.
      99925    2    3    3    0    0  0.80190238470E+02 -0.53406005823E+02  0.18052259424E+03  0.33324844665E+03  0.26302745932E+03 0.  0.
         25    1    3    3    0    0 -0.80190238470E+02  0.53406005823E+02  0.21653810343E+03  0.26799054860E+03  0.12509000000E+03 0.  0.
         25    1    4    4    0    0  0.19554243902E+02 -0.57070330582E+02  0.69451440118E+02  0.15527524504E+03  0.12509000000E+03 0.  0.
         25    1    4    4    0    0  0.60635994568E+02  0.36643247585E+01  0.11107115412E+03  0.17797320161E+03  0.12509000000E+03 0.  0.
<mgrwt>
<rscale>  2 0.45147661E+03</rscale>
<asrwt>0</asrwt>
<pdfrwt beam="1">  1       21 0.73404388E-01 0.45147661E+03</pdfrwt>
<pdfrwt beam="2">  1       21 0.15013110E-01 0.45147661E+03</pdfrwt>
<totfact> 0.60262191E+04</totfact>
</mgrwt>
</event>
<event>
 7    0  0.4712189E-002  0.4635524E+03  0.7546771E-02  0.1023756E+00
         21   -1    0    0  502  501  0.00000000000E+00  0.00000000000E+00  0.27446407214E+02  0.27446407214E+02  0.00000000000E+00 0.  1.
         21   -1    0    0  501  502 -0.00000000000E+00 -0.00000000000E+00 -0.19572760763E+04  0.19572760763E+04  0.00000000000E+00 0.  1.
      99926    2    1    2    0    0  0.00000000000E+00  0.35527136788E-14 -0.19298296691E+04  0.19847224836E+04  0.46355235399E+03 0.  0.
      99925    2    3    3    0    0  0.11546659006E+03 -0.40786846941E+01 -0.13592510991E+04  0.13892759437E+04  0.26301127048E+03 0.  0.
         25    1    3    3    0    0 -0.11546659006E+03  0.40786846941E+01 -0.57057857008E+03  0.59544653985E+03  0.12509000000E+03 0.  0.
         25    1    4    4    0    0  0.83078798197E+02 -0.35447707667E+02 -0.73576447650E+03  0.75176824864E+03  0.12509000000E+03 0.  0.
         25    1    4    4    0    0  0.32387791861E+02  0.31369022973E+02 -0.62348662255E+03  0.63750769506E+03  0.12509000000E+03 0.  0.
<mgrwt>
<rscale>  2 0.46355235E+03</rscale>
<asrwt>0</asrwt>
<pdfrwt beam="1">  1       21 0.40362374E-02 0.46355235E+03</pdfrwt>
<pdfrwt beam="2">  1       21 0.28783464E+00 0.46355235E+03</pdfrwt>
<totfact> 0.13071366E+04</totfact>
</mgrwt>
</event>
<event>
 7    0  0.4712189E-002  0.4466121E+03  0.7546771E-02  0.1028737E+00
         21   -1    0    0  502  501  0.00000000000E+00  0.00000000000E+00  0.27640414773E+03  0.27640414773E+03  0.00000000000E+00 0.  1.
         21   -1    0    0  501  502 -0.00000000000E+00 -0.00000000000E+00 -0.18040827699E+03  0.18040827699E+03  0.00000000000E+00 0.  1.
      99926    2    1    2    0    0  0.00000000000E+00  0.35527136788E-14  0.95995870734E+02  0.45681242472E+03  0.44661211827E+03 0.  0.
      99925    2    3    3    0    0  0.41158952869E+02  0.31373874212E+02 -0.32654059380E+02  0.27005940064E+03  0.26303500318E+03 0.  0.
         25    1    4    4    0    0  0.10800469800E+02 -0.13993384161E+02  0.10885251703E+02  0.12680087442E+03  0.12509000000E+03 0.  0.
         25    1    4    4    0    0  0.30358483069E+02  0.45367258373E+02 -0.43539311083E+02  0.14325852622E+03  0.12509000000E+03 0.  0.
         25    1    3    3    0    0 -0.41158952869E+02 -0.31373874212E+02  0.12864993011E+03  0.18675302408E+03  0.12509000000E+03 0.  0.
<mgrwt>
<rscale>  2 0.44661212E+03</rscale>
<asrwt>0</asrwt>
<pdfrwt beam="1">  1       21 0.40647669E-01 0.44661212E+03</pdfrwt>
<pdfrwt beam="2">  1       21 0.26530629E-01 0.44661212E+03</pdfrwt>
<totfact> 0.73178548E+04</totfact>
</mgrwt>
</event>
<event>
 7    0  0.4712189E-002  0.4512811E+03  0.7546771E-02  0.1027341E+00
         21   -1    0    0  502  501  0.00000000000E+00  0.00000000000E+00  0.33023768190E+03  0.33023768190E+03  0.00000000000E+00 0.  1.
         21   -1    0    0  501  502 -0.00000000000E+00 -0.00000000000E+00 -0.15417278021E+03  0.15417278021E+03  0.00000000000E+00 0.  1.
      99926    2    1    2    0    0  0.00000000000E+00  0.00000000000E+00  0.17606490169E+03  0.48441046211E+03  0.45128111659E+03 0.  0.
      99925    2    3    3    0    0  0.42494884764E+02  0.14273111014E+02  0.21860035391E+03  0.34488874435E+03  0.26296880865E+03 0.  0.
         25    1    3    3    0    0 -0.42494884764E+02 -0.14273111014E+02 -0.42535452224E+02  0.13952171775E+03  0.12509000000E+03 0.  0.
         25    1    4    4    0    0  0.17784779099E+02  0.37413201926E+02  0.75650559349E+02  0.15194262495E+03  0.12509000000E+03 0.  0.
         25    1    4    4    0    0  0.24710105665E+02 -0.23140090911E+02  0.14294979456E+03  0.19294611941E+03  0.12509000000E+03 0.  0.
<mgrwt>
<rscale>  2 0.45128112E+03</rscale>
<asrwt>0</asrwt>
<pdfrwt beam="1">  1       21 0.48564365E-01 0.45128112E+03</pdfrwt>
<pdfrwt beam="2">  1       21 0.22672468E-01 0.45128112E+03</pdfrwt>
<totfact> 0.68376892E+04</totfact>
</mgrwt>
</event>
<event>
 7    0  0.4712189E-002  0.4558587E+03  0.7546771E-02  0.1025989E+00
         21   -1    0    0  502  501  0.00000000000E+00  0.00000000000E+00  0.15432286824E+04  0.15432286824E+04  0.00000000000E+00 0.  1.
         21   -1    0    0  501  502 -0.00000000000E+00 -0.00000000000E+00 -0.33664343004E+02  0.33664343004E+02  0.00000000000E+00 0.  1.
      99926    2    1    2    0    0  0.44408920985E-15  0.00000000000E+00  0.15095643394E+04  0.15768930255E+04  0.45585866099E+03 0.  0.
      99925    2    3    3    0    0 -0.26647408938E+01  0.25795033133E+02  0.56531202039E+03  0.62403813896E+03  0.26300842933E+03 0.  0.
         25    1    4    4    0    0  0.33985786827E+02  0.32887927529E+02  0.28886738689E+03  0.31832141743E+03  0.12509000000E+03 0.  0.
         25    1    3    3    0    0  0.26647408938E+01 -0.25795033133E+02  0.94425231905E+03  0.95285488649E+03  0.12509000000E+03 0.  0.
         25    1    4    4    0    0 -0.36650527721E+02 -0.70928943964E+01  0.27644463350E+03  0.30571672153E+03  0.12509000000E+03 0.  0.
<mgrwt>
<rscale>  2 0.45585866E+03</rscale>
<asrwt>0</asrwt>
<pdfrwt beam="1">  1       21 0.22694535E+00 0.45585866E+03</pdfrwt>
<pdfrwt beam="2">  1       21 0.49506397E-02 0.45585866E+03</pdfrwt>
<totfact> 0.21810141E+04</totfact>
</mgrwt>
</event>
<event>
 7    0  0.4712189E-002  0.4564123E+03  0.7546771E-02  0.1025827E+00
         21   -1    0    0  502  501  0.00000000000E+00  0.00000000000E+00  0.33576403187E+03  0.33576403187E+03  0.00000000000E+00 0.  1.
         21   -1    0    0  501  502 -0.00000000000E+00 -0.00000000000E+00 -0.15510311338E+03  0.15510311338E+03  0.00000000000E+00 0.  1.
      99926    2    1    2    0    0 -0.17763568394E-14 -0.14210854715E-13  0.18066091849E+03  0.49086714526E+03  0.45641229916E+03 0.  0.
      99925    2    3    3    0    0 -0.63785503940E+01 -0.11389340793E+03  0.12466039294E+03  0.31255292475E+03  0.26293862958E+03 0.  0.
         25    1    4    4    0    0 -0.27382798494E+02 -0.77304057879E+02  0.36997841924E+02  0.15408466317E+03  0.12509000000E+03 0.  0.
         25    1    3    3    0    0  0.63785503940E+01  0.11389340793E+03  0.56000525549E+02  0.17831422051E+03  0.12509000000E+03 0.  0.
         25    1    4    4    0    0  0.21004248100E+02 -0.36589350052E+02  0.87662551016E+02  0.15846826157E+03  0.12509000000E+03 0.  0.
<mgrwt>
<rscale>  2 0.45641230E+03</rscale>
<asrwt>0</asrwt>
<pdfrwt beam="1">  1       21 0.49377063E-01 0.45641230E+03</pdfrwt>
<pdfrwt beam="2">  1       21 0.22809281E-01 0.45641230E+03</pdfrwt>
<totfact> 0.65183261E+04</totfact>
</mgrwt>
</event>
<event>
 7    0  0.4712189E-002  0.4562225E+03  0.7546771E-02  0.1025883E+00
         21   -1    0    0  502  501  0.00000000000E+00  0.00000000000E+00  0.14443695800E+03  0.14443695800E+03  0.00000000000E+00 0. -1.
         21   -1    0    0  501  502 -0.00000000000E+00 -0.00000000000E+00 -0.36025917259E+03  0.36025917259E+03  0.00000000000E+00 0. -1.
      99926    2    1    2    0    0  0.00000000000E+00  0.00000000000E+00 -0.21582221459E+03  0.50469613059E+03  0.45622248511E+03 0.  0.
      99925    2    3    3    0    0 -0.66645721630E+02 -0.80738558036E+02 -0.18579050326E+03  0.33883540965E+03  0.26330772257E+03 0.  0.
         25    1    4    4    0    0 -0.74013503587E+02 -0.39613924495E+02 -0.86125119787E+02  0.17352897765E+03  0.12509000000E+03 0.  0.
         25    1    4    4    0    0  0.73677819577E+01 -0.41124633541E+02 -0.99665383477E+02  0.16530643199E+03  0.12509000000E+03 0.  0.
         25    1    3    3    0    0  0.66645721630E+02  0.80738558036E+02 -0.30031711330E+02  0.16586072094E+03  0.12509000000E+03 0.  0.
<mgrwt>
<rscale>  2 0.45622249E+03</rscale>
<asrwt>0</asrwt>
<pdfrwt beam="1">  1       21 0.21240730E-01 0.45622249E+03</pdfrwt>
<pdfrwt beam="2">  1       21 0.52979289E-01 0.45622249E+03</pdfrwt>
<totfact> 0.64315637E+04</totfact>
</mgrwt>
</event>
<event>
 7    0  0.4712189E-002  0.4618365E+03  0.7546771E-02  0.1024250E+00
         21   -1    0    0  502  501  0.00000000000E+00  0.00000000000E+00  0.44580974057E+03  0.44580974057E+03  0.00000000000E+00 0.  1.
         21   -1    0    0  501  502 -0.00000000000E+00 -0.00000000000E+00 -0.11960983493E+03  0.11960983493E+03  0.00000000000E+00 0.  1.
      99926    2    1    2    0    0 -0.14210854715E-13 -0.35527136788E-14  0.32619990563E+03  0.56541957550E+03  0.46183646231E+03 0.  0.
      99925    2    3    3    0    0  0.10935065032E+03  0.28235459981E+02  0.25156436064E+03  0.38110251551E+03  0.26305834688E+03 0.  0.
         25    1    4    4    0    0  0.28572214641E+02  0.30711634839E+02  0.15528227192E+03  0.20376375545E+03  0.12509000000E+03 0.  0.
         25    1    3    3    0    0 -0.10935065032E+03 -0.28235459981E+02  0.74635544998E+02  0.18431705999E+03  0.12509000000E+03 0.  0.
         25    1    4    4    0    0  0.80778435675E+02 -0.24761748575E+01  0.96282088716E+02  0.17733876006E+03  0.12509000000E+03 0.  0.
<mgrwt>
<rscale>  2 0.46183646E+03</rscale>
<asrwt>0</asrwt>
<pdfrwt beam="1">  1       21 0.65560255E-01 0.46183646E+03</pdfrwt>
<pdfrwt beam="2">  1       21 0.17589682E-01 0.46183646E+03</pdfrwt>
<totfact> 0.57676574E+04</totfact>
</mgrwt>
</event>
<event>
 7    0  0.4712189E-002  0.4420040E+03  0.7546771E-02  0.1030134E+00
         21   -1    0    0  502  501  0.00000000000E+00  0.00000000000E+00  0.29898146352E+03  0.29898146352E+03  0.00000000000E+00 0. -1.
         21   -1    0    0  501  502 -0.00000000000E+00 -0.00000000000E+00 -0.16336091678E+03  0.16336091678E+03  0.00000000000E+00 0. -1.
      99926    2    1    2    0    0  0.14210854715E-13  0.71054273576E-14  0.13562054674E+03  0.46234238031E+03  0.44200400895E+03 0.  0.
      99925    2    3    3    0    0 -0.93830874035E+02 -0.34224851858E+02  0.97853097945E+02  0.29787517477E+03  0.26301866390E+03 0.  0.
         25    1    4    4    0    0 -0.44305999949E+01 -0.98138254732E+01  0.39497543115E+02  0.13161878817E+03  0.12509000000E+03 0.  0.
         25    1    4    4    0    0 -0.89400274040E+02 -0.24411026385E+02  0.58355554831E+02  0.16625638661E+03  0.12509000000E+03 0.  0.
         25    1    3    3    0    0  0.93830874035E+02  0.34224851858E+02  0.37767448793E+02  0.16446720553E+03  0.12509000000E+03 0.  0.
<mgrwt>
<rscale>  2 0.44200401E+03</rscale>
<asrwt>0</asrwt>
<pdfrwt beam="1">  1       21 0.43967862E-01 0.44200401E+03</pdfrwt>
<pdfrwt beam="2">  1       21 0.24023664E-01 0.44200401E+03</pdfrwt>
<totfact> 0.75498798E+04</totfact>
</mgrwt>
</event>
<event>
 7    0  0.4712189E-002  0.4565182E+03  0.7546771E-02  0.1025796E+00
         21   -1    0    0  502  501  0.00000000000E+00  0.00000000000E+00  0.53424295674E+03  0.53424295674E+03  0.00000000000E+00 0.  1.
         21   -1    0    0  501  502 -0.00000000000E+00 -0.00000000000E+00 -0.97525339387E+02  0.97525339387E+02  0.00000000000E+00 0.  1.
      99926    2    1    2    0    0  0.00000000000E+00  0.00000000000E+00  0.43671761736E+03  0.63176829613E+03  0.45651823916E+03 0.  0.
      99925    2    3    3    0    0 -0.83382306544E+02  0.56439245188E+02  0.35039050563E+03  0.44945571905E+03  0.26286677141E+03 0.  0.
         25    1    3    3    0    0  0.83382306544E+02 -0.56439245188E+02  0.86327111728E+02  0.18231257708E+03  0.12509000000E+03 0.  0.
         25    1    4    4    0    0 -0.28837667682E+02  0.61781167023E+02  0.14921027209E+03  0.20630011409E+03  0.12509000000E+03 0.  0.
         25    1    4    4    0    0 -0.54544638863E+02 -0.53419218356E+01  0.20118023354E+03  0.24315560496E+03  0.12509000000E+03 0.  0.
<mgrwt>
<rscale>  2 0.45651824E+03</rscale>
<asrwt>0</asrwt>
<pdfrwt beam="1">  1       21 0.78565139E-01 0.45651824E+03</pdfrwt>
<pdfrwt beam="2">  1       21 0.14341962E-01 0.45651824E+03</pdfrwt>
<totfact> 0.56089010E+04</totfact>
</mgrwt>
</event>
<event>
 7    0  0.4712189E-002  0.4129356E+03  0.7546771E-02  0.1039390E+00
         21   -1    0    0  502  501  0.00000000000E+00  0.00000000000E+00  0.22657174122E+02  0.22657174122E+02  0.00000000000E+00 0. -1.
         21   -1    0    0  501  502 -0.00000000000E+00 -0.00000000000E+00 -0.18814770467E+04  0.18814770467E+04  0.00000000000E+00 0. -1.
      99926    2    1    2    0    0  0.00000000000E+00  0.35527136788E-14 -0.18588198726E+04  0.19041342209E+04  0.41293560299E+03 0.  0.
      99925    2    3    3    0    0 -0.13501728576E+02  0.31029088869E+02 -0.14846888510E+04  0.15081965610E+04  0.26307942036E+03 0.  0.
         25    1    4    4    0    0 -0.11145992893E+02  0.28676511987E+02 -0.53452601342E+03  0.54982919404E+03  0.12509000000E+03 0.  0.
         25    1    3    3    0    0  0.13501728576E+02 -0.31029088869E+02 -0.37413102166E+03  0.39593765986E+03  0.12509000000E+03 0.  0.
         25    1    4    4    0    0 -0.23557356835E+01  0.23525768817E+01 -0.95016283755E+03  0.95836736696E+03  0.12509000000E+03 0.  0.
<mgrwt>
<rscale>  2 0.41293560E+03</rscale>
<asrwt>0</asrwt>
<pdfrwt beam="1">  1       21 0.33319366E-02 0.41293560E+03</pdfrwt>
<pdfrwt beam="2">  1       21 0.27668787E+00 0.41293560E+03</pdfrwt>
<totfact> 0.21567298E+04</totfact>
</mgrwt>
</event>
<event>
 7    0  0.4712189E-002  0.4541677E+03  0.7546771E-02  0.1026486E+00
         21   -1    0    0  502  501  0.00000000000E+00  0.00000000000E+00  0.10132441806E+03  0.10132441806E+03  0.00000000000E+00 0.  1.
         21   -1    0    0  501  502 -0.00000000000E+00 -0.00000000000E+00 -0.50893034451E+03  0.50893034451E+03  0.00000000000E+00 0.  1.
      99926    2    1    2    0    0 -0.71054273576E-14  0.00000000000E+00 -0.40760592644E+03  0.61025476257E+03  0.45416768265E+03 0.  0.
      99925    2    3    3    0    0  0.36666394648E+02  0.81157027990E+02 -0.16472190023E+03  0.32290298168E+03  0.26306300286E+03 0.  0.
         25    1    4    4    0    0 -0.16199191618E+02  0.43593665960E+02 -0.55108729506E+02  0.14438594699E+03  0.12509000000E+03 0.  0.
         25    1    3    3    0    0 -0.36666394648E+02 -0.81157027990E+02 -0.24288402622E+03  0.28735178089E+03  0.12509000000E+03 0.  0.
         25    1    4    4    0    0  0.52865586266E+02  0.37563362030E+02 -0.10961317072E+03  0.17851703469E+03  0.12509000000E+03 0.  0.
<mgrwt>
<rscale>  2 0.45416768E+03</rscale>
<asrwt>0</asrwt>
<pdfrwt beam="1">  1       21 0.14900650E-01 0.45416768E+03</pdfrwt>
<pdfrwt beam="2">  1       21 0.74842697E-01 0.45416768E+03</pdfrwt>
<totfact> 0.58434684E+04</totfact>
</mgrwt>
</event>
<event>
 7    0  0.4712189E-002  0.4573177E+03  0.7546771E-02  0.1025562E+00
         21   -1    0    0  502  501  0.00000000000E+00  0.00000000000E+00  0.29229592924E+02  0.29229592924E+02  0.00000000000E+00 0.  1.
         21   -1    0    0  501  502 -0.00000000000E+00 -0.00000000000E+00 -0.17887647745E+04  0.17887647745E+04  0.00000000000E+00 0.  1.
      99926    2    1    2    0    0  0.00000000000E+00  0.00000000000E+00 -0.17595351816E+04  0.18179943674E+04  0.45731768475E+03 0.  0.
      99925    2    3    3    0    0  0.10731902128E+03 -0.14249061357E+02 -0.94531121234E+03  0.98713421779E+03  0.26286929770E+03 0.  0.
         25    1    4    4    0    0  0.15849181921E+02 -0.26257768819E+02 -0.41789172688E+03  0.43728900110E+03  0.12509000000E+03 0.  0.
         25    1    4    4    0    0  0.91469839356E+02  0.12008707461E+02 -0.52741948546E+03  0.54984521669E+03  0.12509000000E+03 0.  0.
         25    1    3    3    0    0 -0.10731902128E+03  0.14249061357E+02 -0.81422396923E+03  0.83086014963E+03  0.12509000000E+03 0.  0.
<mgrwt>
<rscale>  2 0.45731768E+03</rscale>
<asrwt>0</asrwt>
<pdfrwt beam="1">  1       21 0.42984690E-02 0.45731768E+03</pdfrwt>
<pdfrwt beam="2">  1       21 0.26305367E+00 0.45731768E+03</pdfrwt>
<totfact> 0.16615285E+04</totfact>
</mgrwt>
</event>
<event>
 7    0  0.4712189E-002  0.4613051E+03  0.7546771E-02  0.1024403E+00
         21   -1    0    0  502  501  0.00000000000E+00  0.00000000000E+00  0.63311769605E+02  0.63311769605E+02  0.00000000000E+00 0.  1.
         21   -1    0    0  501  502 -0.00000000000E+00 -0.00000000000E+00 -0.84029566647E+03  0.84029566647E+03  0.00000000000E+00 0.  1.
      99926    2    1    2    0    0  0.00000000000E+00 -0.17763568394E-14 -0.77698389686E+03  0.90360743607E+03  0.46130512954E+03 0.  0.
      99925    2    3    3    0    0 -0.28498278888E+02  0.13125578648E+02 -0.26117755674E+03  0.37192320523E+03  0.26292341419E+03 0.  0.
         25    1    4    4    0    0  0.14982490812E+02  0.34548851826E+02 -0.12919193143E+03  0.18372849926E+03  0.12509000000E+03 0.  0.
         25    1    4    4    0    0 -0.43480769700E+02 -0.21423273178E+02 -0.13198562531E+03  0.18819470597E+03  0.12509000000E+03 0.  0.
         25    1    3    3    0    0  0.28498278888E+02 -0.13125578648E+02 -0.51580634012E+03  0.53168423084E+03  0.12509000000E+03 0.  0.
<mgrwt>
<rscale>  2 0.46130513E+03</rscale>
<asrwt>0</asrwt>
<pdfrwt beam="1">  1       21 0.93105553E-02 0.46130513E+03</pdfrwt>
<pdfrwt beam="2">  1       21 0.12357288E+00 0.46130513E+03</pdfrwt>
<totfact> 0.41015614E+04</totfact>
</mgrwt>
</event>
<event>
 7    0  0.4712189E-002  0.4552156E+03  0.7546771E-02  0.1026178E+00
         21   -1    0    0  502  501  0.00000000000E+00  0.00000000000E+00  0.14921534261E+04  0.14921534261E+04  0.00000000000E+00 0. -1.
         21   -1    0    0  501  502 -0.00000000000E+00 -0.00000000000E+00 -0.34718489829E+02  0.34718489829E+02  0.00000000000E+00 0. -1.
      99926    2    1    2    0    0  0.00000000000E+00  0.00000000000E+00  0.14574349363E+04  0.15268719159E+04  0.45521561286E+03 0.  0.
      99925    2    3    3    0    0 -0.20746973802E+02 -0.10400241648E+03  0.10540579906E+04  0.10914325884E+04  0.26256410252E+03 0.  0.
         25    1    4    4    0    0 -0.26859790393E+02 -0.67390160094E+02  0.42323428491E+03  0.44725568755E+03  0.12509000000E+03 0.  0.
         25    1    3    3    0    0  0.20746973802E+02  0.10400241648E+03  0.40337694570E+03  0.43543932755E+03  0.12509000000E+03 0.  0.
         25    1    4    4    0    0  0.61128165915E+01 -0.36612256390E+02  0.63082370566E+03  0.64417690083E+03  0.12509000000E+03 0.  0.
<mgrwt>
<rscale>  2 0.45521561E+03</rscale>
<asrwt>0</asrwt>
<pdfrwt beam="1">  1       21 0.21943428E+00 0.45521561E+03</pdfrwt>
<pdfrwt beam="2">  1       21 0.51056613E-02 0.45521561E+03</pdfrwt>
<totfact> 0.23089469E+04</totfact>
</mgrwt>
</event>
<event>
 7    0  0.4712189E-002  0.4874644E+03  0.7546771E-02  0.1017104E+00
         21   -1    0    0  502  501  0.00000000000E+00  0.00000000000E+00  0.64922656351E+03  0.64922656351E+03  0.00000000000E+00 0.  1.
         21   -1    0    0  501  502 -0.00000000000E+00 -0.00000000000E+00 -0.91501778646E+02  0.91501778646E+02  0.00000000000E+00 0.  1.
      99926    2    1    2    0    0  0.00000000000E+00  0.00000000000E+00  0.55772478487E+03  0.74072834216E+03  0.48746439995E+03 0.  0.
      99925    2    3    3    0    0  0.52608187036E+02  0.10593279866E+03  0.45951623791E+03  0.54253195983E+03  0.26305203925E+03 0.  0.
         25    1    4    4    0    0  0.45999705923E+02  0.32404550143E+02  0.27850236142E+03  0.31044661575E+03  0.12509000000E+03 0.  0.
         25    1    4    4    0    0  0.66084811132E+01  0.73528248513E+02  0.18101387649E+03  0.23208534408E+03  0.12509000000E+03 0.  0.
         25    1    3    3    0    0 -0.52608187036E+02 -0.10593279866E+03  0.98208546950E+02  0.19819638233E+03  0.12509000000E+03 0.  0.
<mgrwt>
<rscale>  2 0.48746440E+03</rscale>
<asrwt>0</asrwt>
<pdfrwt beam="1">  1       21 0.95474492E-01 0.48746440E+03</pdfrwt>
<pdfrwt beam="2">  1       21 0.13456144E-01 0.48746440E+03</pdfrwt>
<totfact> 0.39620499E+04</totfact>
</mgrwt>
</event>
<event>
 7    0  0.4712189E-002  0.4441080E+03  0.7546771E-02  0.1029494E+00
         21   -1    0    0  502  501  0.00000000000E+00  0.00000000000E+00  0.70915181336E+03  0.70915181336E+03  0.00000000000E+00 0. -1.
         21   -1    0    0  501  502 -0.00000000000E+00 -0.00000000000E+00 -0.69530930538E+02  0.69530930538E+02  0.00000000000E+00 0. -1.
      99926    2    1    2    0    0  0.00000000000E+00  0.00000000000E+00  0.63962088282E+03  0.77868274389E+03  0.44410802954E+03 0.  0.
      99925    2    3    3    0    0  0.48647563783E+02 -0.85309874377E+02  0.45873915491E+03  0.53782995126E+03  0.26301156647E+03 0.  0.
         25    1    4    4    0    0  0.36305754117E+02 -0.62586288736E+01  0.18387801316E+03  0.22542384533E+03  0.12509000000E+03 0.  0.
         25    1    4    4    0    0  0.12341809666E+02 -0.79051245503E+02  0.27486114175E+03  0.31240610594E+03  0.12509000000E+03 0.  0.
         25    1    3    3    0    0 -0.48647563783E+02  0.85309874377E+02  0.18088172790E+03  0.24085279263E+03  0.12509000000E+03 0.  0.
<mgrwt>
<rscale>  2 0.44410803E+03</rscale>
<asrwt>0</asrwt>
<pdfrwt beam="1">  1       21 0.10428703E+00 0.44410803E+03</pdfrwt>
<pdfrwt beam="2">  1       21 0.10225137E-01 0.44410803E+03</pdfrwt>
<totfact> 0.53219482E+04</totfact>
</mgrwt>
</event>
<event>
 7    0  0.4712189E-002  0.4489585E+03  0.7546771E-02  0.1028033E+00
         21   -1    0    0  502  501  0.00000000000E+00  0.00000000000E+00  0.13904124043E+04  0.13904124043E+04  0.00000000000E+00 0.  1.
         21   -1    0    0  501  502 -0.00000000000E+00 -0.00000000000E+00 -0.36241715413E+02  0.36241715413E+02  0.00000000000E+00 0.  1.
      99926    2    1    2    0    0  0.00000000000E+00  0.00000000000E+00  0.13541706888E+04  0.14266541197E+04  0.44895848655E+03 0.  0.
      99925    2    3    3    0    0 -0.14545381015E+02  0.52176650450E+02  0.11517132865E+04  0.11825834766E+04  0.26291864481E+03 0.  0.
         25    1    4    4    0    0 -0.11678603990E+02 -0.11200550329E+02  0.47295591853E+03  0.48948610919E+03  0.12509000000E+03 0.  0.
         25    1    3    3    0    0  0.14545381015E+02 -0.52176650450E+02  0.20245740234E+03  0.24407064310E+03  0.12509000000E+03 0.  0.
         25    1    4    4    0    0 -0.28667770248E+01  0.63377200779E+02  0.67875736796E+03  0.69309736737E+03  0.12509000000E+03 0.  0.
<mgrwt>
<rscale>  2 0.44895849E+03</rscale>
<asrwt>0</asrwt>
<pdfrwt beam="1">  1       21 0.20447238E+00 0.44895849E+03</pdfrwt>
<pdfrwt beam="2">  1       21 0.53296650E-02 0.44895849E+03</pdfrwt>
<totfact> 0.26869751E+04</totfact>
</mgrwt>
</event>
<event>
 7    0  0.4712189E-002  0.4383304E+03  0.7546771E-02  0.1031260E+00
         21   -1    0    0  502  501  0.00000000000E+00  0.00000000000E+00  0.11780127710E+04  0.11780127710E+04  0.00000000000E+00 0.  1.
         21   -1    0    0  501  502 -0.00000000000E+00 -0.00000000000E+00 -0.40774922290E+02  0.40774922290E+02  0.00000000000E+00 0.  1.
      99926    2    1    2    0    0  0.00000000000E+00  0.00000000000E+00  0.11372378487E+04  0.12187876933E+04  0.43833037401E+03 0.  0.
      99925    2    3    3    0    0 -0.80908629200E+02 -0.30694268385E+02  0.84646810342E+03  0.89063696989E+03  0.26313041947E+03 0.  0.
         25    1    3    3    0    0  0.80908629200E+02  0.30694268385E+02  0.29076974533E+03  0.32815072344E+03  0.12509000000E+03 0.  0.
         25    1    4    4    0    0 -0.32181540395E+02 -0.91240679024E+01  0.54091696913E+03  0.55619922308E+03  0.12509000000E+03 0.  0.
         25    1    4    4    0    0 -0.48727088805E+02 -0.21570200482E+02  0.30555113428E+03  0.33443774681E+03  0.12509000000E+03 0.  0.
<mgrwt>
<rscale>  2 0.43833037E+03</rscale>
<asrwt>0</asrwt>
<pdfrwt beam="1">  1       21 0.17323715E+00 0.43833037E+03</pdfrwt>
<pdfrwt beam="2">  1       21 0.59963129E-02 0.43833037E+03</pdfrwt>
<totfact> 0.36019503E+04</totfact>
</mgrwt>
</event>
<event>
 7    0  0.4712189E-002  0.4661736E+03  0.7546771E-02  0.1023006E+00
         21   -1    0    0  502  501  0.00000000000E+00  0.00000000000E+00  0.43360679367E+02  0.43360679367E+02  0.00000000000E+00 0.  1.
         21   -1    0    0  501  502 -0.00000000000E+00 -0.00000000000E+00 -0.12529661106E+04  0.12529661106E+04  0.00000000000E+00 0.  1.
      99926    2    1    2    0    0  0.17763568394E-14  0.00000000000E+00 -0.12096054312E+04  0.12963267900E+04  0.46617362336E+03 0.  0.
      99925    2    3    3    0    0  0.12254262919E+02  0.12089238844E+03 -0.69391566279E+03  0.75194771073E+03  0.26294728759E+03 0.  0.
         25    1    4    4    0    0  0.27928747869E+02  0.25235889883E+02 -0.28643982913E+03  0.31482082032E+03  0.12509000000E+03 0.  0.
         25    1    4    4    0    0 -0.15674484950E+02  0.95656498557E+02 -0.40747583366E+03  0.43712689040E+03  0.12509000000E+03 0.  0.
         25    1    3    3    0    0 -0.12254262919E+02 -0.12089238844E+03 -0.51568976843E+03  0.54437907923E+03  0.12509000000E+03 0.  0.
<mgrwt>
<rscale>  2 0.46617362E+03</rscale>
<asrwt>0</asrwt>
<pdfrwt beam="1">  1       21 0.63765720E-02 0.46617362E+03</pdfrwt>
<pdfrwt beam="2">  1       21 0.18425968E+00 0.46617362E+03</pdfrwt>
<totfact> 0.26813561E+04</totfact>
</mgrwt>
</event>
<event>
 7    0  0.4712189E-002  0.4506858E+03  0.7546771E-02  0.1027518E+00
         21   -1    0    0  502  501  0.00000000000E+00  0.00000000000E+00  0.30394248068E+03  0.30394248068E+03  0.00000000000E+00 0. -1.
         21   -1    0    0  501  502 -0.00000000000E+00 -0.00000000000E+00 -0.16706917809E+03  0.16706917809E+03  0.00000000000E+00 0. -1.
      99926    2    1    2    0    0  0.00000000000E+00  0.00000000000E+00  0.13687330259E+03  0.47101165877E+03  0.45068579047E+03 0.  0.
      99925    2    3    3    0    0 -0.48742462796E+02  0.95790906189E+02  0.10580965674E+03  0.30318977825E+03  0.26301451060E+03 0.  0.
         25    1    3    3    0    0  0.48742462796E+02 -0.95790906189E+02  0.31063645850E+02  0.16782188052E+03  0.12509000000E+03 0.  0.
         25    1    4    4    0    0 -0.35916497208E+02  0.60548869002E+02  0.15414588872E+02  0.14436508567E+03  0.12509000000E+03 0.  0.
         25    1    4    4    0    0 -0.12825965588E+02  0.35242037187E+02  0.90395067870E+02  0.15882469258E+03  0.12509000000E+03 0.  0.
<mgrwt>
<rscale>  2 0.45068579E+03</rscale>
<asrwt>0</asrwt>
<pdfrwt beam="1">  1       21 0.44697424E-01 0.45068579E+03</pdfrwt>
<pdfrwt beam="2">  1       21 0.24568997E-01 0.45068579E+03</pdfrwt>
<totfact> 0.69716763E+04</totfact>
</mgrwt>
</event>
<event>
 7    0  0.4712189E-002  0.4562071E+03  0.7546771E-02  0.1025887E+00
         21   -1    0    0  502  501  0.00000000000E+00  0.00000000000E+00  0.41084186109E+03  0.41084186109E+03  0.00000000000E+00 0.  1.
         21   -1    0    0  501  502 -0.00000000000E+00 -0.00000000000E+00 -0.12664538552E+03  0.12664538552E+03  0.00000000000E+00 0.  1.
      99926    2    1    2    0    0  0.00000000000E+00  0.71054273576E-14  0.28419647557E+03  0.53748724661E+03  0.45620708406E+03 0.  0.
      99925    2    3    3    0    0  0.95434280786E+02 -0.53427448357E+02  0.13940587433E+03  0.31709210035E+03  0.26296617296E+03 0.  0.
         25    1    4    4    0    0  0.64420912848E+02 -0.62575668267E+02  0.58957447487E+02  0.16489165226E+03  0.12509000000E+03 0.  0.
         25    1    3    3    0    0 -0.95434280786E+02  0.53427448357E+02  0.14479060124E+03  0.22039514626E+03  0.12509000000E+03 0.  0.
         25    1    4    4    0    0  0.31013367937E+02  0.91482199097E+01  0.80448426839E+02  0.15220044809E+03  0.12509000000E+03 0.  0.
<mgrwt>
<rscale>  2 0.45620708E+03</rscale>
<asrwt>0</asrwt>
<pdfrwt beam="1">  1       21 0.60417920E-01 0.45620708E+03</pdfrwt>
<pdfrwt beam="2">  1       21 0.18624321E-01 0.45620708E+03</pdfrwt>
<totfact> 0.62105564E+04</totfact>
</mgrwt>
</event>
<event>
 7    0  0.4712189E-002  0.4490007E+03  0.7546771E-02  0.1028020E+00
         21   -1    0    0  502  501  0.00000000000E+00  0.00000000000E+00  0.47701415803E+02  0.47701415803E+02  0.00000000000E+00 0. -1.
         21   -1    0    0  501  502 -0.00000000000E+00 -0.00000000000E+00 -0.10565810891E+04  0.10565810891E+04  0.00000000000E+00 0. -1.
      99926    2    1    2    0    0  0.38857805862E-15  0.71054273576E-14 -0.10088796733E+04  0.11042825049E+04  0.44900072989E+03 0.  0.
      99925    2    3    3    0    0 -0.29237805566E+00  0.63781023800E+02 -0.42546828540E+03  0.50421212560E+03  0.26294201118E+03 0.  0.
         25    1    3    3    0    0  0.29237805566E+00 -0.63781023800E+02 -0.58341138788E+03  0.60007037928E+03  0.12509000000E+03 0.  0.
         25    1    4    4    0    0  0.15364355432E+02 -0.53219374033E+01 -0.21649596510E+03  0.25056415833E+03  0.12509000000E+03 0.  0.
         25    1    4    4    0    0 -0.15656733488E+02  0.69102961203E+02 -0.20897232030E+03  0.25364796727E+03  0.12509000000E+03 0.  0.
<mgrwt>
<rscale>  2 0.44900073E+03</rscale>
<asrwt>0</asrwt>
<pdfrwt beam="1">  1       21 0.70149137E-02 0.44900073E+03</pdfrwt>
<pdfrwt beam="2">  1       21 0.15537958E+00 0.44900073E+03</pdfrwt>
<totfact> 0.37048822E+04</totfact>
</mgrwt>
</event>
<event>
 7    0  0.4712189E-002  0.4432767E+03  0.7546771E-02  0.1029746E+00
         21   -1    0    0  502  501  0.00000000000E+00  0.00000000000E+00  0.30777584780E+03  0.30777584780E+03  0.00000000000E+00 0. -1.
         21   -1    0    0  501  502 -0.00000000000E+00 -0.00000000000E+00 -0.15960825433E+03  0.15960825433E+03  0.00000000000E+00 0. -1.
      99926    2    1    2    0    0  0.71054273576E-14  0.00000000000E+00  0.14816759347E+03  0.46738410213E+03  0.44327673429E+03 0.  0.
      99925    2    3    3    0    0 -0.33806417817E+02  0.63431885335E+02  0.16960725443E+03  0.32152922519E+03  0.26352977808E+03 0.  0.
         25    1    4    4    0    0 -0.42783219978E+02  0.20508530258E+02  0.49484099806E+02  0.14264356964E+03  0.12509000000E+03 0.  0.
         25    1    3    3    0    0  0.33806417817E+02 -0.63431885335E+02 -0.21439660959E+02  0.14585487693E+03  0.12509000000E+03 0.  0.
         25    1    4    4    0    0  0.89768021606E+01  0.42923355077E+02  0.12012315462E+03  0.17888565556E+03  0.12509000000E+03 0.  0.
<mgrwt>
<rscale>  2 0.44327673E+03</rscale>
<asrwt>0</asrwt>
<pdfrwt beam="1">  1       21 0.45261154E-01 0.44327673E+03</pdfrwt>
<pdfrwt beam="2">  1       21 0.23471802E-01 0.44327673E+03</pdfrwt>
<totfact> 0.74306351E+04</totfact>
</mgrwt>
</event>
<event>
 7    0  0.4712189E-002  0.4710864E+03  0.7546771E-02  0.1021614E+00
         21   -1    0    0  502  501  0.00000000000E+00  0.00000000000E+00  0.59401244843E+02  0.59401244843E+02  0.00000000000E+00 0.  1.
         21   -1    0    0  501  502 -0.00000000000E+00 -0.00000000000E+00 -0.93399724216E+03  0.93399724216E+03  0.00000000000E+00 0.  1.
      99926    2    1    2    0    0  0.44408920985E-15 -0.14210854715E-13 -0.87459599731E+03  0.99339848700E+03  0.47108639914E+03 0.  0.
      99925    2    3    3    0    0 -0.35449147030E+01  0.68902718178E+02 -0.76922658777E+03  0.81588687735E+03  0.26306216434E+03 0.  0.
         25    1    4    4    0    0 -0.50659934264E+01  0.77905566197E+01 -0.27188995289E+03  0.29942947691E+03  0.12509000000E+03 0.  0.
         25    1    4    4    0    0  0.15210787235E+01  0.61112161559E+02 -0.49733663489E+03  0.51645740044E+03  0.12509000000E+03 0.  0.
         25    1    3    3    0    0  0.35449147030E+01 -0.68902718178E+02 -0.10536940954E+03  0.17751160965E+03  0.12509000000E+03 0.  0.
<mgrwt>
<rscale>  2 0.47108640E+03</rscale>
<asrwt>0</asrwt>
<pdfrwt beam="1">  1       21 0.87354768E-02 0.47108640E+03</pdfrwt>
<pdfrwt beam="2">  1       21 0.13735254E+00 0.47108640E+03</pdfrwt>
<totfact> 0.34837099E+04</totfact>
</mgrwt>
</event>
<event>
 7    0  0.4712189E-002  0.4546314E+03  0.7546771E-02  0.1026350E+00
         21   -1    0    0  502  501  0.00000000000E+00  0.00000000000E+00  0.14147994434E+03  0.14147994434E+03  0.00000000000E+00 0.  1.
         21   -1    0    0  501  502 -0.00000000000E+00 -0.00000000000E+00 -0.36522795953E+03  0.36522795953E+03  0.00000000000E+00 0.  1.
      99926    2    1    2    0    0  0.00000000000E+00  0.00000000000E+00 -0.22374801519E+03  0.50670790387E+03  0.45463141724E+03 0.  0.
      99925    2    3    3    0    0 -0.48439306059E+02  0.72303062370E+02 -0.60803643402E+02  0.28361044625E+03  0.26298992941E+03 0.  0.
         25    1    3    3    0    0  0.48439306059E+02 -0.72303062370E+02 -0.16294437179E+03  0.22309745762E+03  0.12509000000E+03 0.  0.
         25    1    4    4    0    0  0.77640388424E+01  0.60715965380E+02 -0.34891273274E+02  0.14356746777E+03  0.12509000000E+03 0.  0.
         25    1    4    4    0    0 -0.56203344901E+02  0.11587096990E+02 -0.25912370128E+02  0.14004297848E+03  0.12509000000E+03 0.  0.
<mgrwt>
<rscale>  2 0.45463142E+03</rscale>
<asrwt>0</asrwt>
<pdfrwt beam="1">  1       21 0.20805874E-01 0.45463142E+03</pdfrwt>
<pdfrwt beam="2">  1       21 0.53709993E-01 0.45463142E+03</pdfrwt>
<totfact> 0.64991854E+04</totfact>
</mgrwt>
</event>
<event>
 7    0  0.4712189E-002  0.4460654E+03  0.7546771E-02  0.1028902E+00
         21   -1    0    0  502  501  0.00000000000E+00  0.00000000000E+00  0.34030847868E+03  0.34030847868E+03  0.00000000000E+00 0. -1.
         21   -1    0    0  501  502 -0.00000000000E+00 -0.00000000000E+00 -0.14617205776E+03  0.14617205776E+03  0.00000000000E+00 0. -1.
      99926    2    1    2    0    0  0.17763568394E-14  0.00000000000E+00  0.19413642092E+03  0.48648053644E+03  0.44606542391E+03 0.  0.
      99925    2    3    3    0    0  0.74595661348E+01  0.28931936225E+02  0.13884696336E+02  0.26505132794E+03  0.26299566459E+03 0.  0.
         25    1    4    4    0    0  0.24739830922E+02  0.43836137792E+02 -0.11714942634E+02  0.13534553628E+03  0.12509000000E+03 0.  0.
         25    1    3    3    0    0 -0.74595661348E+01 -0.28931936225E+02  0.18025172458E+03  0.22142920850E+03  0.12509000000E+03 0.  0.
         25    1    4    4    0    0 -0.17280264787E+02 -0.14904201567E+02  0.25599638970E+02  0.12970579166E+03  0.12509000000E+03 0.  0.
<mgrwt>
<rscale>  2 0.44606542E+03</rscale>
<asrwt>0</asrwt>
<pdfrwt beam="1">  1       21 0.50045365E-01 0.44606542E+03</pdfrwt>
<pdfrwt beam="2">  1       21 0.21495891E-01 0.44606542E+03</pdfrwt>
<totfact> 0.71145191E+04</totfact>
</mgrwt>
</event>
<event>
 7    0  0.4712189E-002  0.4533118E+03  0.7546771E-02  0.1026739E+00
         21   -1    0    0  502  501  0.00000000000E+00  0.00000000000E+00  0.14879312477E+03  0.14879312477E+03  0.00000000000E+00 0. -1.
         21   -1    0    0  501  502 -0.00000000000E+00 -0.00000000000E+00 -0.34526397726E+03  0.34526397726E+03  0.00000000000E+00 0. -1.
      99926    2    1    2    0    0 -0.17763568394E-14  0.00000000000E+00 -0.19647085248E+03  0.49405710203E+03  0.45331183990E+03 0.  0.
      99925    2    3    3    0    0 -0.13985682683E+02  0.49827965469E+02 -0.23154480875E+03  0.35421391853E+03  0.26301345243E+03 0.  0.
         25    1    4    4    0    0 -0.16223112253E+02 -0.15118614394E+02 -0.11329254325E+03  0.17021888946E+03  0.12509000000E+03 0.  0.
         25    1    3    3    0    0  0.13985682683E+02 -0.49827965469E+02  0.35073956268E+02  0.13984318350E+03  0.12509000000E+03 0.  0.
         25    1    4    4    0    0  0.22374295707E+01  0.64946579863E+02 -0.11825226550E+03  0.18399502907E+03  0.12509000000E+03 0.  0.
<mgrwt>
<rscale>  2 0.45331184E+03</rscale>
<asrwt>0</asrwt>
<pdfrwt beam="1">  1       21 0.21881343E-01 0.45331184E+03</pdfrwt>
<pdfrwt beam="2">  1       21 0.50774113E-01 0.45331184E+03</pdfrwt>
<totfact> 0.66577995E+04</totfact>
</mgrwt>
</event>
<event>
 7    0  0.4712189E-002  0.4556926E+03  0.7546771E-02  0.1026038E+00
         21   -1    0    0  502  501  0.00000000000E+00  0.00000000000E+00  0.87741054823E+02  0.87741054823E+02  0.00000000000E+00 0.  1.
         21   -1    0    0  501  502 -0.00000000000E+00 -0.00000000000E+00 -0.59167224099E+03  0.59167224099E+03  0.00000000000E+00 0.  1.
      99926    2    1    2    0    0  0.00000000000E+00  0.00000000000E+00 -0.50393118617E+03  0.67941329582E+03  0.45569264438E+03 0.  0.
      99925    2    3    3    0    0  0.73759014736E+02  0.46656483956E+02 -0.20801310616E+03  0.34649853506E+03  0.26301057529E+03 0.  0.
         25    1    4    4    0    0  0.57697782027E+02  0.49951348475E+02 -0.14227125541E+03  0.20423709135E+03  0.12509000000E+03 0.  0.
         25    1    3    3    0    0 -0.73759014736E+02 -0.46656483956E+02 -0.29591808001E+03  0.33291476076E+03  0.12509000000E+03 0.  0.
         25    1    4    4    0    0  0.16061232708E+02 -0.32948645191E+01 -0.65741850744E+02  0.14226144371E+03  0.12509000000E+03 0.  0.
<mgrwt>
<rscale>  2 0.45569264E+03</rscale>
<asrwt>0</asrwt>
<pdfrwt beam="1">  1       21 0.12903097E-01 0.45569264E+03</pdfrwt>
<pdfrwt beam="2">  1       21 0.87010620E-01 0.45569264E+03</pdfrwt>
<totfact> 0.53741735E+04</totfact>
</mgrwt>
</event>
<event>
 7    0  0.4712189E-002  0.4538049E+03  0.7546771E-02  0.1026593E+00
         21   -1    0    0  502  501  0.00000000000E+00  0.00000000000E+00  0.71644858278E+03  0.71644858278E+03  0.00000000000E+00 0.  1.
         21   -1    0    0  501  502 -0.00000000000E+00 -0.00000000000E+00 -0.71861004691E+02  0.71861004691E+02  0.00000000000E+00 0.  1.
      99926    2    1    2    0    0  0.00000000000E+00 -0.35527136788E-14  0.64458757809E+03  0.78830958747E+03  0.45380486982E+03 0.  0.
      99925    2    3    3    0    0 -0.53740892521E+02  0.25962918964E+02  0.24111550819E+03  0.36169573868E+03  0.26291626500E+03 0.  0.
         25    1    3    3    0    0  0.53740892521E+02 -0.25962918964E+02  0.40347206990E+03  0.42661384879E+03  0.12509000000E+03 0.  0.
         25    1    4    4    0    0 -0.55354978886E+01 -0.21443518124E+02  0.10423279202E+03  0.16432421988E+03  0.12509000000E+03 0.  0.
         25    1    4    4    0    0 -0.48205394632E+02  0.47406437088E+02  0.13688271617E+03  0.19737151880E+03  0.12509000000E+03 0.  0.
<mgrwt>
<rscale>  2 0.45380487E+03</rscale>
<asrwt>0</asrwt>
<pdfrwt beam="1">  1       21 0.10536008E+00 0.45380487E+03</pdfrwt>
<pdfrwt beam="2">  1       21 0.10567795E-01 0.45380487E+03</pdfrwt>
<totfact> 0.48791545E+04</totfact>
</mgrwt>
</event>
<event>
 7    0  0.4712189E-002  0.4572879E+03  0.7546771E-02  0.1025571E+00
         21   -1    0    0  502  501  0.00000000000E+00  0.00000000000E+00  0.14528496266E+03  0.14528496266E+03  0.00000000000E+00 0. -1.
         21   -1    0    0  501  502 -0.00000000000E+00 -0.00000000000E+00 -0.35983113624E+03  0.35983113624E+03  0.00000000000E+00 0. -1.
      99926    2    1    2    0    0  0.00000000000E+00  0.00000000000E+00 -0.21454617358E+03  0.50511609889E+03  0.45728788828E+03 0.  0.
      99925    2    3    3    0    0  0.36603819233E+02 -0.63347640083E+01 -0.14098996335E+02  0.26593719560E+03  0.26295216578E+03 0.  0.
         25    1    4    4    0    0  0.58584192651E+02  0.84663279374E+00 -0.12773759183E+02  0.13872094809E+03  0.12509000000E+03 0.  0.
         25    1    4    4    0    0 -0.21980373418E+02 -0.71813968020E+01 -0.13252371521E+01  0.12721624750E+03  0.12509000000E+03 0.  0.
         25    1    3    3    0    0 -0.36603819233E+02  0.63347640083E+01 -0.20044717724E+03  0.23917890330E+03  0.12509000000E+03 0.  0.
<mgrwt>
<rscale>  2 0.45728789E+03</rscale>
<asrwt>0</asrwt>
<pdfrwt beam="1">  1       21 0.21365436E-01 0.45728789E+03</pdfrwt>
<pdfrwt beam="2">  1       21 0.52916343E-01 0.45728789E+03</pdfrwt>
<totfact> 0.63747171E+04</totfact>
</mgrwt>
</event>
<event>
 7    0  0.4712189E-002  0.4499757E+03  0.7546771E-02  0.1027729E+00
         21   -1    0    0  502  501  0.00000000000E+00  0.00000000000E+00  0.75154832372E+02  0.75154832372E+02  0.00000000000E+00 0. -1.
         21   -1    0    0  501  502 -0.00000000000E+00 -0.00000000000E+00 -0.67353652590E+03  0.67353652590E+03  0.00000000000E+00 0. -1.
      99926    2    1    2    0    0  0.14210854715E-13  0.00000000000E+00 -0.59838169352E+03  0.74869135827E+03  0.44997566468E+03 0.  0.
      99925    2    3    3    0    0  0.82292125044E+02  0.70312894324E+02 -0.39525331020E+03  0.48672848845E+03  0.26260911121E+03 0.  0.
         25    1    3    3    0    0 -0.82292125044E+02 -0.70312894324E+02 -0.20312838333E+03  0.26196286982E+03  0.12509000000E+03 0.  0.
         25    1    4    4    0    0  0.36801576044E+02  0.54339121016E+02 -0.14266175142E+03  0.20076598190E+03  0.12509000000E+03 0.  0.
         25    1    4    4    0    0  0.45490548999E+02  0.15973773309E+02 -0.25259155878E+03  0.28596250654E+03  0.12509000000E+03 0.  0.
<mgrwt>
<rscale>  2 0.44997566E+03</rscale>
<asrwt>0</asrwt>
<pdfrwt beam="1">  1       21 0.11052181E-01 0.44997566E+03</pdfrwt>
<pdfrwt beam="2">  1       21 0.99049490E-01 0.44997566E+03</pdfrwt>
<totfact> 0.52375631E+04</totfact>
</mgrwt>
</event>
<event>
 7    0  0.4712189E-002  0.4652676E+03  0.7546771E-02  0.1023264E+00
         21   -1    0    0  502  501  0.00000000000E+00  0.00000000000E+00  0.10355584124E+04  0.10355584124E+04  0.00000000000E+00 0.  1.
         21   -1    0    0  501  502 -0.00000000000E+00 -0.00000000000E+00 -0.52260186736E+02  0.52260186736E+02  0.00000000000E+00 0.  1.
      99926    2    1    2    0    0  0.00000000000E+00  0.00000000000E+00  0.98329822565E+03  0.10878185991E+04  0.46526756176E+03 0.  0.
      99925    2    3    3    0    0  0.43518127164E+02  0.65586959334E+02  0.83280581183E+03  0.87688981648E+03  0.26301093782E+03 0.  0.
         25    1    3    3    0    0 -0.43518127164E+02 -0.65586959334E+02  0.15049241382E+03  0.21092878264E+03  0.12509000000E+03 0.  0.
         25    1    4    4    0    0  0.30752041183E+02  0.19913998409E+02  0.29179020725E+03  0.31957986250E+03  0.12509000000E+03 0.  0.
         25    1    4    4    0    0  0.12766085981E+02  0.45672960925E+02  0.54101560458E+03  0.55730995398E+03  0.12509000000E+03 0.  0.
<mgrwt>
<rscale>  2 0.46526756E+03</rscale>
<asrwt>0</asrwt>
<pdfrwt beam="1">  1       21 0.15228799E+00 0.46526756E+03</pdfrwt>
<pdfrwt beam="2">  1       21 0.76853223E-02 0.46526756E+03</pdfrwt>
<totfact> 0.33180654E+04</totfact>
</mgrwt>
</event>
<event>
 7    0  0.4712189E-002  0.4548533E+03  0.7546771E-02  0.1026285E+00
         21   -1    0    0  502  501  0.00000000000E+00  0.00000000000E+00  0.30381774783E+03  0.30381774783E+03  0.00000000000E+00 0.  1.
         21   -1    0    0  501  502 -0.00000000000E+00 -0.00000000000E+00 -0.17024308760E+03  0.17024308760E+03  0.00000000000E+00 0.  1.
      99926    2    1    2    0    0  0.00000000000E+00  0.00000000000E+00  0.13357466023E+03  0.47406083544E+03  0.45485325748E+03 0.  0.
      99925    2    3    3    0    0 -0.70633180626E+02  0.35673838101E+02  0.16816980954E+03  0.32205425207E+03  0.26301366411E+03 0.  0.
         25    1    3    3    0    0  0.70633180626E+02 -0.35673838101E+02 -0.34595149315E+02  0.15200658337E+03  0.12509000000E+03 0.  0.
         25    1    4    4    0    0 -0.24836441554E+02 -0.73355091115E+01  0.11635661319E+03  0.17279186340E+03  0.12509000000E+03 0.  0.
         25    1    4    4    0    0 -0.45796739072E+02  0.43009347213E+02  0.51813196354E+02  0.14926238868E+03  0.12509000000E+03 0.  0.
<mgrwt>
<rscale>  2 0.45485326E+03</rscale>
<asrwt>0</asrwt>
<pdfrwt beam="1">  1       21 0.44679081E-01 0.45485326E+03</pdfrwt>
<pdfrwt beam="2">  1       21 0.25035748E-01 0.45485326E+03</pdfrwt>
<totfact> 0.67213285E+04</totfact>
</mgrwt>
</event>
<event>
 7    0  0.4712189E-002  0.4573141E+03  0.7546771E-02  0.1025563E+00
         21   -1    0    0  502  501  0.00000000000E+00  0.00000000000E+00  0.37227226267E+03  0.37227226267E+03  0.00000000000E+00 0.  1.
         21   -1    0    0  501  502 -0.00000000000E+00 -0.00000000000E+00 -0.14044571050E+03  0.14044571050E+03  0.00000000000E+00 0.  1.
      99926    2    1    2    0    0  0.14210854715E-13  0.00000000000E+00  0.23182655217E+03  0.51271797316E+03  0.45731408213E+03 0.  0.
      99925    2    3    3    0    0  0.93111630181E+02 -0.60176375951E+02  0.10992535831E+03  0.30584027727E+03  0.26298995969E+03 0.  0.
         25    1    4    4    0    0  0.71509728619E+02 -0.78797009250E+01  0.31405064700E+02  0.14768045627E+03  0.12509000000E+03 0.  0.
         25    1    3    3    0    0 -0.93111630181E+02  0.60176375951E+02  0.12190119385E+03  0.20687769590E+03  0.12509000000E+03 0.  0.
         25    1    4    4    0    0  0.21601901562E+02 -0.52296675026E+02  0.78520293613E+02  0.15815982100E+03  0.12509000000E+03 0.  0.
<mgrwt>
<rscale>  2 0.45731408E+03</rscale>
<asrwt>0</asrwt>
<pdfrwt beam="1">  1       21 0.54745921E-01 0.45731408E+03</pdfrwt>
<pdfrwt beam="2">  1       21 0.20653781E-01 0.45731408E+03</pdfrwt>
<totfact> 0.63217153E+04</totfact>
</mgrwt>
</event>
<event>
 7    0  0.4712189E-002  0.4546209E+03  0.7546771E-02  0.1026353E+00
         21   -1    0    0  502  501  0.00000000000E+00  0.00000000000E+00  0.85271055265E+02  0.85271055265E+02  0.00000000000E+00 0.  1.
         21   -1    0    0  501  502 -0.00000000000E+00 -0.00000000000E+00 -0.60595065668E+03  0.60595065668E+03  0.00000000000E+00 0.  1.
      99926    2    1    2    0    0 -0.71054273576E-14  0.00000000000E+00 -0.52067960142E+03  0.69122171195E+03  0.45462094951E+03 0.  0.
      99925    2    3    3    0    0 -0.60648770284E+02 -0.81832541347E+02 -0.25332135094E+03  0.37896735993E+03  0.26281117725E+03 0.  0.
         25    1    3    3    0    0  0.60648770284E+02  0.81832541347E+02 -0.26735825048E+03  0.31225435202E+03  0.12509000000E+03 0.  0.
         25    1    4    4    0    0  0.36936008776E+01 -0.24591570095E+02 -0.90971096773E+02  0.15665770506E+03  0.12509000000E+03 0.  0.
         25    1    4    4    0    0 -0.64342371161E+02 -0.57240971251E+02 -0.16235025417E+03  0.22230965486E+03  0.12509000000E+03 0.  0.
<mgrwt>
<rscale>  2 0.45462095E+03</rscale>
<asrwt>0</asrwt>
<pdfrwt beam="1">  1       21 0.12539861E-01 0.45462095E+03</pdfrwt>
<pdfrwt beam="2">  1       21 0.89110389E-01 0.45462095E+03</pdfrwt>
<totfact> 0.53541817E+04</totfact>
</mgrwt>
</event>
<event>
 7    0  0.4712189E-002  0.4435604E+03  0.7546771E-02  0.1029660E+00
         21   -1    0    0  502  501  0.00000000000E+00  0.00000000000E+00  0.12150241046E+03  0.12150241046E+03  0.00000000000E+00 0.  1.
         21   -1    0    0  501  502 -0.00000000000E+00 -0.00000000000E+00 -0.40481870488E+03  0.40481870488E+03  0.00000000000E+00 0.  1.
      99926    2    1    2    0    0  0.00000000000E+00  0.00000000000E+00 -0.28331629442E+03  0.52632111533E+03  0.44356036090E+03 0.  0.
      99925    2    3    3    0    0 -0.46616512653E+02  0.54621690203E+02 -0.94135536391E+02  0.28842724067E+03  0.26300598027E+03 0.  0.
         25    1    3    3    0    0  0.46616512653E+02 -0.54621690203E+02 -0.18918075803E+03  0.23789387466E+03  0.12509000000E+03 0.  0.
         25    1    4    4    0    0 -0.17122720772E+02  0.23616972191E+02 -0.41713847750E+01  0.12851403617E+03  0.12509000000E+03 0.  0.
         25    1    4    4    0    0 -0.29493791881E+02  0.31004718012E+02 -0.89964151616E+02  0.15991320450E+03  0.12509000000E+03 0.  0.
<mgrwt>
<rscale>  2 0.44356036E+03</rscale>
<asrwt>0</asrwt>
<pdfrwt beam="1">  1       21 0.17868001E-01 0.44356036E+03</pdfrwt>
<pdfrwt beam="2">  1       21 0.59532163E-01 0.44356036E+03</pdfrwt>
<totfact> 0.69546399E+04</totfact>
</mgrwt>
</event>
<event>
 7    0  0.4712189E-002  0.4601339E+03  0.7546771E-02  0.1024742E+00
         21   -1    0    0  502  501  0.00000000000E+00  0.00000000000E+00  0.20701914274E+03  0.20701914274E+03  0.00000000000E+00 0.  1.
         21   -1    0    0  501  502 -0.00000000000E+00 -0.00000000000E+00 -0.25568075584E+03  0.25568075584E+03  0.00000000000E+00 0.  1.
      99926    2    1    2    0    0  0.00000000000E+00 -0.14210854715E-13 -0.48661613102E+02  0.46269989858E+03  0.46013394089E+03 0.  0.
      99925    2    3    3    0    0 -0.75891466039E+02  0.89568217704E+02 -0.42578998136E+02  0.29104184737E+03  0.26288858020E+03 0.  0.
         25    1    4    4    0    0 -0.16878832360E+02  0.79108597877E+02 -0.27974303346E+02  0.15156891168E+03  0.12509000000E+03 0.  0.
         25    1    3    3    0    0  0.75891466039E+02 -0.89568217704E+02 -0.60826149666E+01  0.17165805121E+03  0.12509000000E+03 0.  0.
         25    1    4    4    0    0 -0.59012633679E+02  0.10459619827E+02 -0.14604694790E+02  0.13947293569E+03  0.12509000000E+03 0.  0.
<mgrwt>
<rscale>  2 0.46013394E+03</rscale>
<asrwt>0</asrwt>
<pdfrwt beam="1">  1       21 0.30443992E-01 0.46013394E+03</pdfrwt>
<pdfrwt beam="2">  1       21 0.37600111E-01 0.46013394E+03</pdfrwt>
<totfact> 0.65270497E+04</totfact>
</mgrwt>
</event>
<event>
 7    0  0.4712189E-002  0.4599408E+03  0.7546771E-02  0.1024798E+00
         21   -1    0    0  502  501  0.00000000000E+00  0.00000000000E+00  0.10307785462E+03  0.10307785462E+03  0.00000000000E+00 0.  1.
         21   -1    0    0  501  502 -0.00000000000E+00 -0.00000000000E+00 -0.51307219571E+03  0.51307219571E+03  0.00000000000E+00 0.  1.
      99926    2    1    2    0    0  0.00000000000E+00  0.00000000000E+00 -0.40999434109E+03  0.61615005033E+03  0.45994078401E+03 0.  0.
      99925    2    3    3    0    0 -0.52327421538E+02 -0.79576653063E+02 -0.34957078747E+03  0.44771870916E+03  0.26302415159E+03 0.  0.
         25    1    3    3    0    0  0.52327421538E+02  0.79576653063E+02 -0.60423553623E+02  0.16843134118E+03  0.12509000000E+03 0.  0.
         25    1    4    4    0    0 -0.17759321113E+02 -0.42591312425E+02 -0.23723489855E+03  0.27213474341E+03  0.12509000000E+03 0.  0.
         25    1    4    4    0    0 -0.34568100425E+02 -0.36985340638E+02 -0.11233588892E+03  0.17558396575E+03  0.12509000000E+03 0.  0.
<mgrwt>
<rscale>  2 0.45994078E+03</rscale>
<asrwt>0</asrwt>
<pdfrwt beam="1">  1       21 0.15158508E-01 0.45994078E+03</pdfrwt>
<pdfrwt beam="2">  1       21 0.75451793E-01 0.45994078E+03</pdfrwt>
<totfact> 0.55497572E+04</totfact>
</mgrwt>
</event>
<event>
 7    0  0.4712189E-002  0.4228002E+03  0.7546771E-02  0.1036159E+00
         21   -1    0    0  502  501  0.00000000000E+00  0.00000000000E+00  0.71236087865E+02  0.71236087865E+02  0.00000000000E+00 0. -1.
         21   -1    0    0  501  502 -0.00000000000E+00 -0.00000000000E+00 -0.62735052533E+03  0.62735052533E+03  0.00000000000E+00 0. -1.
      99926    2    1    2    0    0  0.00000000000E+00  0.00000000000E+00 -0.55611443747E+03  0.69858661320E+03  0.42280017571E+03 0.  0.
      99925    2    3    3    0    0  0.14049033617E+02 -0.52921437154E+02 -0.26667044894E+03  0.37855007708E+03  0.26303797951E+03 0.  0.
         25    1    4    4    0    0 -0.12676426645E+01  0.30150188739E+01 -0.88528843493E+02  0.15328261965E+03  0.12509000000E+03 0.  0.
         25    1    4    4    0    0  0.15316676282E+02 -0.55936456028E+02 -0.17814160545E+03  0.22526745743E+03  0.12509000000E+03 0.  0.
         25    1    3    3    0    0 -0.14049033617E+02  0.52921437154E+02 -0.28944398852E+03  0.32003653612E+03  0.12509000000E+03 0.  0.
<mgrwt>
<rscale>  2 0.42280018E+03</rscale>
<asrwt>0</asrwt>
<pdfrwt beam="1">  1       21 0.10475896E-01 0.42280018E+03</pdfrwt>
<pdfrwt beam="2">  1       21 0.92257425E-01 0.42280018E+03</pdfrwt>
<totfact> 0.68834026E+04</totfact>
</mgrwt>
</event>
<event>
 7    0  0.4712189E-002  0.4543354E+03  0.7546771E-02  0.1026437E+00
         21   -1    0    0  502  501  0.00000000000E+00  0.00000000000E+00  0.11059402758E+03  0.11059402758E+03  0.00000000000E+00 0. -1.
         21   -1    0    0  501  502 -0.00000000000E+00 -0.00000000000E+00 -0.46661796939E+03  0.46661796939E+03  0.00000000000E+00 0. -1.
      99926    2    1    2    0    0  0.00000000000E+00 -0.71054273576E-14 -0.35602394180E+03  0.57721199697E+03  0.45433538527E+03 0.  0.
      99925    2    3    3    0    0 -0.94799095331E+02  0.60659608490E+02 -0.22313594844E+03  0.36279841657E+03  0.26299540491E+03 0.  0.
         25    1    3    3    0    0  0.94799095331E+02 -0.60659608490E+02 -0.13288799336E+03  0.21441358040E+03  0.12509000000E+03 0.  0.
         25    1    4    4    0    0 -0.83910292001E+02  0.15736904686E+02 -0.10161277832E+03  0.18237667639E+03  0.12509000000E+03 0.  0.
         25    1    4    4    0    0 -0.10888803330E+02  0.44922703805E+02 -0.12152317012E+03  0.18042174018E+03  0.12509000000E+03 0.  0.
<mgrwt>
<rscale>  2 0.45433539E+03</rscale>
<asrwt>0</asrwt>
<pdfrwt beam="1">  1       21 0.16263827E-01 0.45433539E+03</pdfrwt>
<pdfrwt beam="2">  1       21 0.68620290E-01 0.45433539E+03</pdfrwt>
<totfact> 0.60420181E+04</totfact>
</mgrwt>
</event>
<event>
 7    0  0.4712189E-002  0.4409773E+03  0.7546771E-02  0.1030447E+00
         21   -1    0    0  502  501  0.00000000000E+00  0.00000000000E+00  0.11226227610E+03  0.11226227610E+03  0.00000000000E+00 0. -1.
         21   -1    0    0  501  502 -0.00000000000E+00 -0.00000000000E+00 -0.43305062384E+03  0.43305062384E+03  0.00000000000E+00 0. -1.
      99926    2    1    2    0    0  0.00000000000E+00  0.00000000000E+00 -0.32078834774E+03  0.54531289993E+03  0.44097731777E+03 0.  0.
      99925    2    3    3    0    0 -0.68279013906E+02 -0.67243385836E+02 -0.17118829207E+03  0.32803109804E+03  0.26289783807E+03 0.  0.
         25    1    4    4    0    0 -0.78656805526E+01 -0.25708583538E+02 -0.11659320333E+03  0.17310194499E+03  0.12509000000E+03 0.  0.
         25    1    3    3    0    0  0.68279013906E+02  0.67243385836E+02 -0.14960005567E+03  0.21728180189E+03  0.12509000000E+03 0.  0.
         25    1    4    4    0    0 -0.60413333353E+02 -0.41534802298E+02 -0.54595088745E+02  0.15492915305E+03  0.12509000000E+03 0.  0.
<mgrwt>
<rscale>  2 0.44097732E+03</rscale>
<asrwt>0</asrwt>
<pdfrwt beam="1">  1       21 0.16509158E-01 0.44097732E+03</pdfrwt>
<pdfrwt beam="2">  1       21 0.63683915E-01 0.44097732E+03</pdfrwt>
<totfact> 0.69582544E+04</totfact>
</mgrwt>
</event>
<event>
 7    0  0.4712189E-002  0.4456858E+03  0.7546771E-02  0.1029016E+00
         21   -1    0    0  502  501  0.00000000000E+00  0.00000000000E+00  0.36038537219E+03  0.36038537219E+03  0.00000000000E+00 0. -1.
         21   -1    0    0  501  502 -0.00000000000E+00 -0.00000000000E+00 -0.13779401770E+03  0.13779401770E+03  0.00000000000E+00 0. -1.
      99926    2    1    2    0    0 -0.35527136788E-14 -0.71054273576E-14  0.22259135449E+03  0.49817938988E+03  0.44568575635E+03 0.  0.
      99925    2    3    3    0    0 -0.23386161713E+02  0.45351272408E+02  0.24285911231E+03  0.36157067649E+03  0.26296226953E+03 0.  0.
         25    1    4    4    0    0  0.93817871917E+01  0.43714242720E+02  0.16010386144E+03  0.20803775497E+03  0.12509000000E+03 0.  0.
         25    1    4    4    0    0 -0.32767948905E+02  0.16370296878E+01  0.82755250873E+02  0.15353292151E+03  0.12509000000E+03 0.  0.
         25    1    3    3    0    0  0.23386161713E+02 -0.45351272408E+02 -0.20267757820E+02  0.13660871340E+03  0.12509000000E+03 0.  0.
<mgrwt>
<rscale>  2 0.44568576E+03</rscale>
<asrwt>0</asrwt>
<pdfrwt beam="1">  1       21 0.52997849E-01 0.44568576E+03</pdfrwt>
<pdfrwt beam="2">  1       21 0.20263826E-01 0.44568576E+03</pdfrwt>
<totfact> 0.70466107E+04</totfact>
</mgrwt>
</event>
<event>
 7    0  0.4712189E-002  0.4562634E+03  0.7546771E-02  0.1025871E+00
         21   -1    0    0  502  501  0.00000000000E+00  0.00000000000E+00  0.36766442223E+03  0.36766442223E+03  0.00000000000E+00 0.  1.
         21   -1    0    0  501  502 -0.00000000000E+00 -0.00000000000E+00 -0.14155317430E+03  0.14155317430E+03  0.00000000000E+00 0.  1.
      99926    2    1    2    0    0  0.00000000000E+00 -0.71054273576E-14  0.22611124793E+03  0.50921759653E+03  0.45626337150E+03 0.  0.
      99925    2    3    3    0    0 -0.12051556756E+02 -0.61520931741E+02  0.24890139670E+03  0.36745383514E+03  0.26294552785E+03 0.  0.
         25    1    4    4    0    0  0.96145450511E+01 -0.51802610801E+02  0.17048796296E+03  0.21792109484E+03  0.12509000000E+03 0.  0.
         25    1    3    3    0    0  0.12051556756E+02  0.61520931741E+02 -0.22790148773E+02  0.14176376139E+03  0.12509000000E+03 0.  0.
         25    1    4    4    0    0 -0.21666101807E+02 -0.97183209395E+01  0.78413433736E+02  0.14953274029E+03  0.12509000000E+03 0.  0.
<mgrwt>
<rscale>  2 0.45626337E+03</rscale>
<asrwt>0</asrwt>
<pdfrwt beam="1">  1       21 0.54068297E-01 0.45626337E+03</pdfrwt>
<pdfrwt beam="2">  1       21 0.20816643E-01 0.45626337E+03</pdfrwt>
<totfact> 0.63983857E+04</totfact>
</mgrwt>
</event>
<event>
 7    0  0.4712189E-002  0.5185770E+03  0.7546771E-02  0.1009041E+00
         21   -1    0    0  502  501  0.00000000000E+00  0.00000000000E+00  0.91809337133E+03  0.91809337133E+03  0.00000000000E+00 0.  1.
         21   -1    0    0  501  502 -0.00000000000E+00 -0.00000000000E+00 -0.73228424556E+02  0.73228424556E+02  0.00000000000E+00 0.  1.
      99926    2    1    2    0    0  0.00000000000E+00  0.00000000000E+00  0.84486494678E+03  0.99132179589E+03  0.51857701908E+03 0.  0.
      99925    2    3    3    0    0  0.32503737489E+02 -0.15268567023E+03  0.39967113413E+03  0.50324962319E+03  0.26297102680E+03 0.  0.
         25    1    3    3    0    0 -0.32503737489E+02  0.15268567023E+03  0.44519381265E+03  0.48807217270E+03  0.12509000000E+03 0.  0.
         25    1    4    4    0    0  0.34025919379E+02 -0.61709040782E+02  0.13718890378E+03  0.19858014081E+03  0.12509000000E+03 0.  0.
         25    1    4    4    0    0 -0.15221818894E+01 -0.90976629450E+02  0.26248223035E+03  0.30466948238E+03  0.12509000000E+03 0.  0.
<mgrwt>
<rscale>  2 0.51857702E+03</rscale>
<asrwt>0</asrwt>
<pdfrwt beam="1">  1       21 0.13501372E+00 0.51857702E+03</pdfrwt>
<pdfrwt beam="2">  1       21 0.10768887E-01 0.51857702E+03</pdfrwt>
<totfact> 0.24730300E+04</totfact>
</mgrwt>
</event>
<event>
 7    0  0.4712189E-002  0.4621342E+03  0.7546771E-02  0.1024164E+00
         21   -1    0    0  502  501  0.00000000000E+00  0.00000000000E+00  0.36065816341E+02  0.36065816341E+02  0.00000000000E+00 0.  1.
         21   -1    0    0  501  502 -0.00000000000E+00 -0.00000000000E+00 -0.14804045805E+04  0.14804045805E+04  0.00000000000E+00 0.  1.
      99926    2    1    2    0    0 -0.35527136788E-14  0.35527136788E-14 -0.14443387642E+04  0.15164703968E+04  0.46213417840E+03 0.  0.
      99925    2    3    3    0    0 -0.28364925584E+02 -0.16397182708E+02 -0.52525392450E+03  0.58833361425E+03  0.26300441033E+03 0.  0.
         25    1    4    4    0    0 -0.21693260219E+02 -0.34838340390E+02 -0.20143996179E+03  0.24064470450E+03  0.12509000000E+03 0.  0.
         25    1    3    3    0    0  0.28364925584E+02  0.16397182708E+02 -0.91908483966E+03  0.92813678259E+03  0.12509000000E+03 0.  0.
         25    1    4    4    0    0 -0.66716653645E+01  0.18441157682E+02 -0.32381396271E+03  0.34768890975E+03  0.12509000000E+03 0.  0.
<mgrwt>
<rscale>  2 0.46213418E+03</rscale>
<asrwt>0</asrwt>
<pdfrwt beam="1">  1       21 0.53037969E-02 0.46213418E+03</pdfrwt>
<pdfrwt beam="2">  1       21 0.21770654E+00 0.46213418E+03</pdfrwt>
<totfact> 0.22126655E+04</totfact>
</mgrwt>
</event>
<event>
 7    0  0.4712189E-002  0.4292838E+03  0.7546771E-02  0.1034086E+00
         21   -1    0    0  502  501  0.00000000000E+00  0.00000000000E+00  0.38444584071E+03  0.38444584071E+03  0.00000000000E+00 0. -1.
         21   -1    0    0  501  502 -0.00000000000E+00 -0.00000000000E+00 -0.11983779019E+03  0.11983779019E+03  0.00000000000E+00 0. -1.
      99926    2    1    2    0    0  0.00000000000E+00 -0.17763568394E-14  0.26460805052E+03  0.50428363090E+03  0.42928377560E+03 0.  0.
      99925    2    3    3    0    0 -0.84928090013E+02  0.14537059175E+02  0.15645558568E+03  0.31782030926E+03  0.26288265848E+03 0.  0.
         25    1    4    4    0    0 -0.23367335897E+02  0.58460796015E+01  0.11625803945E+03  0.17246347112E+03  0.12509000000E+03 0.  0.
         25    1    4    4    0    0 -0.61560754115E+02  0.86909795732E+01  0.40197546225E+02  0.14535683815E+03  0.12509000000E+03 0.  0.
         25    1    3    3    0    0  0.84928090013E+02 -0.14537059175E+02  0.10815246485E+03  0.18646332164E+03  0.12509000000E+03 0.  0.
<mgrwt>
<rscale>  2 0.42928378E+03</rscale>
<asrwt>0</asrwt>
<pdfrwt beam="1">  1       21 0.56536152E-01 0.42928378E+03</pdfrwt>
<pdfrwt beam="2">  1       21 0.17623205E-01 0.42928378E+03</pdfrwt>
<totfact> 0.80102572E+04</totfact>
</mgrwt>
</event>
<event>
 7    0  0.4712189E-002  0.4363000E+03  0.7546771E-02  0.1031888E+00
         21   -1    0    0  502  501  0.00000000000E+00  0.00000000000E+00  0.82301640466E+03  0.82301640466E+03  0.00000000000E+00 0.  1.
         21   -1    0    0  501  502 -0.00000000000E+00 -0.00000000000E+00 -0.57823188898E+02  0.57823188898E+02  0.00000000000E+00 0.  1.
      99926    2    1    2    0    0  0.00000000000E+00  0.00000000000E+00  0.76519321576E+03  0.88083959356E+03  0.43630004828E+03 0.  0.
      99925    2    3    3    0    0  0.74015132928E+02 -0.57688370547E+02  0.51218782513E+03  0.58340821695E+03  0.26310186507E+03 0.  0.
         25    1    3    3    0    0 -0.74015132928E+02  0.57688370547E+02  0.25300539063E+03  0.29743137660E+03  0.12509000000E+03 0.  0.
         25    1    4    4    0    0  0.60259606946E+02 -0.15659932730E+02  0.32695707589E+03  0.35556278109E+03  0.12509000000E+03 0.  0.
         25    1    4    4    0    0  0.13755525981E+02 -0.42028437817E+02  0.18523074924E+03  0.22784543587E+03  0.12509000000E+03 0.  0.
<mgrwt>
<rscale>  2 0.43630005E+03</rscale>
<asrwt>0</asrwt>
<pdfrwt beam="1">  1       21 0.12103182E+00 0.43630005E+03</pdfrwt>
<pdfrwt beam="2">  1       21 0.85034106E-02 0.43630005E+03</pdfrwt>
<totfact> 0.51161709E+04</totfact>
</mgrwt>
</event>
<event>
 7    0  0.4712189E-002  0.4549045E+03  0.7546771E-02  0.1026269E+00
         21   -1    0    0  502  501  0.00000000000E+00  0.00000000000E+00  0.20178577975E+03  0.20178577975E+03  0.00000000000E+00 0.  1.
         21   -1    0    0  501  502 -0.00000000000E+00 -0.00000000000E+00 -0.25638337853E+03  0.25638337853E+03  0.00000000000E+00 0.  1.
      99926    2    1    2    0    0 -0.14210854715E-13  0.17763568394E-14 -0.54597598780E+02  0.45816915828E+03  0.45490447327E+03 0.  0.
      99925    2    3    3    0    0  0.80827397236E+02 -0.23795318430E+01  0.45402821737E+02  0.27876368869E+03  0.26288599733E+03 0.  0.
         25    1    4    4    0    0  0.51922664483E+02 -0.38906810459E+02  0.13780184163E+02  0.14158779807E+03  0.12509000000E+03 0.  0.
         25    1    3    3    0    0 -0.80827397236E+02  0.23795318430E+01 -0.10000042052E+03  0.17940546959E+03  0.12509000000E+03 0.  0.
         25    1    4    4    0    0  0.28904732753E+02  0.36527278616E+02  0.31622637573E+02  0.13717589061E+03  0.12509000000E+03 0.  0.
<mgrwt>
<rscale>  2 0.45490447E+03</rscale>
<asrwt>0</asrwt>
<pdfrwt beam="1">  1       21 0.29674380E-01 0.45490447E+03</pdfrwt>
<pdfrwt beam="2">  1       21 0.37703438E-01 0.45490447E+03</pdfrwt>
<totfact> 0.68366215E+04</totfact>
</mgrwt>
</event>
<event>
 7    0  0.4712189E-002  0.4523837E+03  0.7546771E-02  0.1027014E+00
         21   -1    0    0  502  501  0.00000000000E+00  0.00000000000E+00  0.78813570980E+02  0.78813570980E+02  0.00000000000E+00 0. -1.
         21   -1    0    0  501  502 -0.00000000000E+00 -0.00000000000E+00 -0.64916185122E+03  0.64916185122E+03  0.00000000000E+00 0. -1.
      99926    2    1    2    0    0  0.00000000000E+00  0.00000000000E+00 -0.57034828024E+03  0.72797542220E+03  0.45238374700E+03 0.  0.
      99925    2    3    3    0    0 -0.84891297087E+02 -0.64302122785E+02 -0.31151534659E+03  0.42140847852E+03  0.26306272881E+03 0.  0.
         25    1    3    3    0    0  0.84891297087E+02  0.64302122785E+02 -0.25883293365E+03  0.30656694368E+03  0.12509000000E+03 0.  0.
         25    1    4    4    0    0 -0.46692535633E+02 -0.54165789944E+02 -0.21383844586E+03  0.25785366919E+03  0.12509000000E+03 0.  0.
         25    1    4    4    0    0 -0.38198761454E+02 -0.10136332841E+02 -0.97676900729E+02  0.16355480933E+03  0.12509000000E+03 0.  0.
<mgrwt>
<rscale>  2 0.45238375E+03</rscale>
<asrwt>0</asrwt>
<pdfrwt beam="1">  1       21 0.11590231E-01 0.45238375E+03</pdfrwt>
<pdfrwt beam="2">  1       21 0.95464977E-01 0.45238375E+03</pdfrwt>
<totfact> 0.52481744E+04</totfact>
</mgrwt>
</event>
<event>
 7    0  0.4712189E-002  0.4542291E+03  0.7546771E-02  0.1026468E+00
         21   -1    0    0  502  501  0.00000000000E+00  0.00000000000E+00  0.94953288046E+02  0.94953288046E+02  0.00000000000E+00 0.  1.
         21   -1    0    0  501  502 -0.00000000000E+00 -0.00000000000E+00 -0.54322521859E+03  0.54322521859E+03  0.00000000000E+00 0.  1.
      99926    2    1    2    0    0  0.00000000000E+00  0.00000000000E+00 -0.44827193055E+03  0.63817850664E+03  0.45422910807E+03 0.  0.
      99925    2    3    3    0    0  0.10744392434E+03  0.22530971324E+02 -0.24757875053E+03  0.37745431875E+03  0.26291573457E+03 0.  0.
         25    1    3    3    0    0 -0.10744392434E+03 -0.22530971324E+02 -0.20069318002E+03  0.26072418789E+03  0.12509000000E+03 0.  0.
         25    1    4    4    0    0  0.95632980129E+02  0.26534540945E+01 -0.12947285024E+03  0.20387112291E+03  0.12509000000E+03 0.  0.
         25    1    4    4    0    0  0.11810944207E+02  0.19877517230E+02 -0.11810590029E+03  0.17358319584E+03  0.12509000000E+03 0.  0.
<mgrwt>
<rscale>  2 0.45422911E+03</rscale>
<asrwt>0</asrwt>
<pdfrwt beam="1">  1       21 0.13963719E-01 0.45422911E+03</pdfrwt>
<pdfrwt beam="2">  1       21 0.79886059E-01 0.45422911E+03</pdfrwt>
<totfact> 0.56732077E+04</totfact>
</mgrwt>
</event>
<event>
 7    0  0.4712189E-002  0.4427197E+03  0.7546771E-02  0.1029916E+00
         21   -1    0    0  502  501  0.00000000000E+00  0.00000000000E+00  0.67790091051E+02  0.67790091051E+02  0.00000000000E+00 0. -1.
         21   -1    0    0  501  502 -0.00000000000E+00 -0.00000000000E+00 -0.72282218599E+03  0.72282218599E+03  0.00000000000E+00 0. -1.
      99926    2    1    2    0    0  0.71054273576E-14  0.00000000000E+00 -0.65503209494E+03  0.79061227705E+03  0.44271969372E+03 0.  0.
      99925    2    3    3    0    0  0.55993608942E+02  0.49039515558E+02 -0.53965291732E+03  0.60487046415E+03  0.26287420738E+03 0.  0.
         25    1    4    4    0    0  0.49298926909E+02  0.12228903846E+02 -0.20310693146E+03  0.24388494007E+03  0.12509000000E+03 0.  0.
         25    1    3    3    0    0 -0.55993608942E+02 -0.49039515558E+02 -0.11537917763E+03  0.18574181290E+03  0.12509000000E+03 0.  0.
         25    1    4    4    0    0  0.66946820336E+01  0.36810611711E+02 -0.33654598585E+03  0.36098552408E+03  0.12509000000E+03 0.  0.
<mgrwt>
<rscale>  2 0.44271969E+03</rscale>
<asrwt>0</asrwt>
<pdfrwt beam="1">  1       21 0.99691308E-02 0.44271969E+03</pdfrwt>
<pdfrwt beam="2">  1       21 0.10629738E+00 0.44271969E+03</pdfrwt>
<totfact> 0.53164114E+04</totfact>
</mgrwt>
</event>
<event>
 7    0  0.4712189E-002  0.4551045E+03  0.7546771E-02  0.1026211E+00
         21   -1    0    0  502  501  0.00000000000E+00  0.00000000000E+00  0.39968690120E+03  0.39968690120E+03  0.00000000000E+00 0. -1.
         21   -1    0    0  501  502 -0.00000000000E+00 -0.00000000000E+00 -0.12955146862E+03  0.12955146862E+03  0.00000000000E+00 0. -1.
      99926    2    1    2    0    0  0.00000000000E+00  0.00000000000E+00  0.27013543257E+03  0.52923836982E+03  0.45510449367E+03 0.  0.
      99925    2    3    3    0    0 -0.60894742466E+02 -0.60549293499E+02  0.84083240357E+02  0.28916064713E+03  0.26300095425E+03 0.  0.
         25    1    4    4    0    0 -0.38786066690E+02 -0.53473831804E+02  0.78568096296E+02  0.16181552309E+03  0.12509000000E+03 0.  0.
         25    1    3    3    0    0  0.60894742466E+02  0.60549293499E+02  0.18605219222E+03  0.24007772269E+03  0.12509000000E+03 0.  0.
         25    1    4    4    0    0 -0.22108675776E+02 -0.70754616951E+01  0.55151440606E+01  0.12734512404E+03  0.12509000000E+03 0.  0.
<mgrwt>
<rscale>  2 0.45510449E+03</rscale>
<asrwt>0</asrwt>
<pdfrwt beam="1">  1       21 0.58777485E-01 0.45510449E+03</pdfrwt>
<pdfrwt beam="2">  1       21 0.19051687E-01 0.45510449E+03</pdfrwt>
<totfact> 0.63205758E+04</totfact>
</mgrwt>
</event>
<event>
 7    0  0.4712189E-002  0.4609738E+03  0.7546771E-02  0.1024499E+00
         21   -1    0    0  502  501  0.00000000000E+00  0.00000000000E+00  0.19802626019E+04  0.19802626019E+04  0.00000000000E+00 0. -1.
         21   -1    0    0  501  502 -0.00000000000E+00 -0.00000000000E+00 -0.26826853399E+02  0.26826853399E+02  0.00000000000E+00 0. -1.
      99926    2    1    2    0    0  0.00000000000E+00  0.00000000000E+00  0.19534357485E+04  0.20070894553E+04  0.46097381493E+03 0.  0.
      99925    2    3    3    0    0  0.93273500621E+02 -0.69630661211E+02  0.13240635225E+04  0.13549351163E+04  0.26297639229E+03 0.  0.
         25    1    4    4    0    0  0.32698838322E+02 -0.42426466535E+02  0.47363115906E+03  0.49279123574E+03  0.12509000000E+03 0.  0.
         25    1    4    4    0    0  0.60574662300E+02 -0.27204194676E+02  0.85043236343E+03  0.86214388057E+03  0.12509000000E+03 0.  0.
         25    1    3    3    0    0 -0.93273500621E+02  0.69630661211E+02  0.62937222601E+03  0.65215433900E+03  0.12509000000E+03 0.  0.
<mgrwt>
<rscale>  2 0.46097381E+03</rscale>
<asrwt>0</asrwt>
<pdfrwt beam="1">  1       21 0.29121499E+00 0.46097381E+03</pdfrwt>
<pdfrwt beam="2">  1       21 0.39451268E-02 0.46097381E+03</pdfrwt>
<totfact> 0.12981792E+04</totfact>
</mgrwt>
</event>
<event>
 7    0  0.4712189E-002  0.4524634E+03  0.7546771E-02  0.1026990E+00
         21   -1    0    0  502  501  0.00000000000E+00  0.00000000000E+00  0.71490737880E+03  0.71490737880E+03  0.00000000000E+00 0.  1.
         21   -1    0    0  501  502 -0.00000000000E+00 -0.00000000000E+00 -0.71590783108E+02  0.71590783108E+02  0.00000000000E+00 0.  1.
      99926    2    1    2    0    0  0.00000000000E+00  0.00000000000E+00  0.64331659570E+03  0.78649816191E+03  0.45246338680E+03 0.  0.
      99925    2    3    3    0    0  0.29669217399E+02  0.56222897014E+02  0.24806913521E+03  0.36708268803E+03  0.26300214333E+03 0.  0.
         25    1    4    4    0    0 -0.22433676608E+02  0.31445298673E+02  0.14265107366E+03  0.19362054016E+03  0.12509000000E+03 0.  0.
         25    1    4    4    0    0  0.52102894007E+02  0.24777598341E+02  0.10541806155E+03  0.17346214787E+03  0.12509000000E+03 0.  0.
         25    1    3    3    0    0 -0.29669217399E+02 -0.56222897014E+02  0.39524746049E+03  0.41941547388E+03  0.12509000000E+03 0.  0.
<mgrwt>
<rscale>  2 0.45246339E+03</rscale>
<asrwt>0</asrwt>
<pdfrwt beam="1">  1       21 0.10513343E+00 0.45246339E+03</pdfrwt>
<pdfrwt beam="2">  1       21 0.10528057E-01 0.45246339E+03</pdfrwt>
<totfact> 0.49401057E+04</totfact>
</mgrwt>
</event>
<event>
 7    0  0.4712189E-002  0.4570664E+03  0.7546771E-02  0.1025635E+00
         21   -1    0    0  502  501  0.00000000000E+00  0.00000000000E+00  0.85240163695E+02  0.85240163695E+02  0.00000000000E+00 0. -1.
         21   -1    0    0  501  502 -0.00000000000E+00 -0.00000000000E+00 -0.61270921361E+03  0.61270921361E+03  0.00000000000E+00 0. -1.
      99926    2    1    2    0    0  0.00000000000E+00  0.00000000000E+00 -0.52746904991E+03  0.69794937730E+03  0.45706644447E+03 0.  0.
      99925    2    3    3    0    0  0.12503974537E+02 -0.10273013062E+03 -0.40834565002E+03  0.49658472892E+03  0.26294561033E+03 0.  0.
         25    1    3    3    0    0 -0.12503974537E+02  0.10273013062E+03 -0.11912339990E+03  0.20136464839E+03  0.12509000000E+03 0.  0.
         25    1    4    4    0    0  0.25876550133E+02 -0.84320205237E+02 -0.25473802810E+03  0.29718422556E+03  0.12509000000E+03 0.  0.
         25    1    4    4    0    0 -0.13372575596E+02 -0.18409925382E+02 -0.15360762192E+03  0.19940050336E+03  0.12509000000E+03 0.  0.
<mgrwt>
<rscale>  2 0.45706644E+03</rscale>
<asrwt>0</asrwt>
<pdfrwt beam="1">  1       21 0.12535318E-01 0.45706644E+03</pdfrwt>
<pdfrwt beam="2">  1       21 0.90104295E-01 0.45706644E+03</pdfrwt>
<totfact> 0.52160932E+04</totfact>
</mgrwt>
</event>
<event>
 7    0  0.4712189E-002  0.4622985E+03  0.7546771E-02  0.1024117E+00
         21   -1    0    0  502  501  0.00000000000E+00  0.00000000000E+00  0.22371924924E+03  0.22371924924E+03  0.00000000000E+00 0.  1.
         21   -1    0    0  501  502 -0.00000000000E+00 -0.00000000000E+00 -0.23882597343E+03  0.23882597343E+03  0.00000000000E+00 0.  1.
      99926    2    1    2    0    0  0.00000000000E+00  0.00000000000E+00 -0.15106724188E+02  0.46254522268E+03  0.46229846410E+03 0.  0.
      99925    2    3    3    0    0  0.20855403817E+02 -0.10996838245E+03  0.33769741960E+02  0.28771842253E+03  0.26289446967E+03 0.  0.
         25    1    3    3    0    0 -0.20855403817E+02  0.10996838245E+03 -0.48876466148E+02  0.17482680015E+03  0.12509000000E+03 0.  0.
         25    1    4    4    0    0  0.54798817884E+01 -0.88717759607E+02 -0.68525800247E+01  0.15360773394E+03  0.12509000000E+03 0.  0.
         25    1    4    4    0    0  0.15375522029E+02 -0.21250622845E+02  0.40622321985E+02  0.13411068858E+03  0.12509000000E+03 0.  0.
<mgrwt>
<rscale>  2 0.46229846E+03</rscale>
<asrwt>0</asrwt>
<pdfrwt beam="1">  1       21 0.32899890E-01 0.46229846E+03</pdfrwt>
<pdfrwt beam="2">  1       21 0.35121467E-01 0.46229846E+03</pdfrwt>
<totfact> 0.64177052E+04</totfact>
</mgrwt>
</event>
<event>
 7    0  0.4712189E-002  0.4549603E+03  0.7546771E-02  0.1026253E+00
         21   -1    0    0  502  501  0.00000000000E+00  0.00000000000E+00  0.21586322724E+02  0.21586322724E+02  0.00000000000E+00 0. -1.
         21   -1    0    0  501  502 -0.00000000000E+00 -0.00000000000E+00 -0.23972224178E+04  0.23972224178E+04  0.00000000000E+00 0. -1.
      99926    2    1    2    0    0  0.00000000000E+00  0.00000000000E+00 -0.23756360950E+04  0.24188087405E+04  0.45496029168E+03 0.  0.
      99925    2    3    3    0    0  0.97685584566E+02  0.25398041069E+02 -0.17669819790E+04  0.17892891816E+04  0.26295042772E+03 0.  0.
         25    1    4    4    0    0  0.91581624386E+02  0.84297089402E+01 -0.96544469840E+03  0.97784928679E+03  0.12509000000E+03 0.  0.
         25    1    3    3    0    0 -0.97685584566E+02 -0.25398041069E+02 -0.60865411602E+03  0.62951955885E+03  0.12509000000E+03 0.  0.
         25    1    4    4    0    0  0.61039601800E+01  0.16968332128E+02 -0.80153728062E+03  0.81143989485E+03  0.12509000000E+03 0.  0.
<mgrwt>
<rscale>  2 0.45496029E+03</rscale>
<asrwt>0</asrwt>
<pdfrwt beam="1">  1       21 0.31744578E-02 0.45496029E+03</pdfrwt>
<pdfrwt beam="2">  1       21 0.35253286E+00 0.45496029E+03</pdfrwt>
<totfact> 0.80009889E+03</totfact>
</mgrwt>
</event>
<event>
 7    0  0.4712189E-002  0.4585649E+03  0.7546771E-02  0.1025198E+00
         21   -1    0    0  502  501  0.00000000000E+00  0.00000000000E+00  0.12143690884E+03  0.12143690884E+03  0.00000000000E+00 0.  1.
         21   -1    0    0  501  502 -0.00000000000E+00 -0.00000000000E+00 -0.43290335155E+03  0.43290335155E+03  0.00000000000E+00 0.  1.
      99926    2    1    2    0    0  0.00000000000E+00  0.00000000000E+00 -0.31146644271E+03  0.55434026039E+03  0.45856491292E+03 0.  0.
      99925    2    3    3    0    0  0.97618573135E+02  0.31709247981E+02 -0.12837931325E+03  0.30999773994E+03  0.26283547795E+03 0.  0.
         25    1    4    4    0    0  0.33877615792E+02  0.52710777641E+02 -0.56533637500E+02  0.15089625310E+03  0.12509000000E+03 0.  0.
         25    1    4    4    0    0  0.63740957342E+02 -0.21001529659E+02 -0.71845675754E+02  0.15910148684E+03  0.12509000000E+03 0.  0.
         25    1    3    3    0    0 -0.97618573135E+02 -0.31709247981E+02 -0.18308712945E+03  0.24434252045E+03  0.12509000000E+03 0.  0.
<mgrwt>
<rscale>  2 0.45856491E+03</rscale>
<asrwt>0</asrwt>
<pdfrwt beam="1">  1       21 0.17858369E-01 0.45856491E+03</pdfrwt>
<pdfrwt beam="2">  1       21 0.63662256E-01 0.45856491E+03</pdfrwt>
<totfact> 0.59874071E+04</totfact>
</mgrwt>
</event>
<event>
 7    0  0.4712189E-002  0.4395592E+03  0.7546771E-02  0.1030882E+00
         21   -1    0    0  502  501  0.00000000000E+00  0.00000000000E+00  0.66291457893E+03  0.66291457893E+03  0.00000000000E+00 0. -1.
         21   -1    0    0  501  502 -0.00000000000E+00 -0.00000000000E+00 -0.72864688091E+02  0.72864688091E+02  0.00000000000E+00 0. -1.
      99926    2    1    2    0    0  0.00000000000E+00  0.00000000000E+00  0.59004989084E+03  0.73577926702E+03  0.43955916109E+03 0.  0.
      99925    2    3    3    0    0  0.12060293979E+02 -0.87919507035E+02  0.30705147940E+03  0.41389279731E+03  0.26296643560E+03 0.  0.
         25    1    4    4    0    0  0.71338755111E+01 -0.14840684095E+02  0.18749687220E+03  0.22599496293E+03  0.12509000000E+03 0.  0.
         25    1    3    3    0    0 -0.12060293979E+02  0.87919507035E+02  0.28299841144E+03  0.32188646971E+03  0.12509000000E+03 0.  0.
         25    1    4    4    0    0  0.49264184682E+01 -0.73078822939E+02  0.11955460720E+03  0.18789783438E+03  0.12509000000E+03 0.  0.
<mgrwt>
<rscale>  2 0.43955916E+03</rscale>
<asrwt>0</asrwt>
<pdfrwt beam="1">  1       21 0.97487435E-01 0.43955916E+03</pdfrwt>
<pdfrwt beam="2">  1       21 0.10715396E-01 0.43955916E+03</pdfrwt>
<totfact> 0.57694609E+04</totfact>
</mgrwt>
</event>
<event>
 7    0  0.4712189E-002  0.4685108E+03  0.7546771E-02  0.1022341E+00
         21   -1    0    0  502  501  0.00000000000E+00  0.00000000000E+00  0.84531822690E+02  0.84531822690E+02  0.00000000000E+00 0.  1.
         21   -1    0    0  501  502 -0.00000000000E+00 -0.00000000000E+00 -0.64917095069E+03  0.64917095069E+03  0.00000000000E+00 0.  1.
      99926    2    1    2    0    0  0.71054273576E-14  0.00000000000E+00 -0.56463912800E+03  0.73370277338E+03  0.46851084811E+03 0.  0.
      99925    2    3    3    0    0  0.47389630565E+02  0.81329716141E+02 -0.48099340675E+03  0.55620794361E+03  0.26296828589E+03 0.  0.
         25    1    3    3    0    0 -0.47389630565E+02 -0.81329716141E+02 -0.83645721248E+02  0.17749482977E+03  0.12509000000E+03 0.  0.
         25    1    4    4    0    0  0.28412460357E+02  0.48630583743E+02 -0.32463861727E+03  0.35243430806E+03  0.12509000000E+03 0.  0.
         25    1    4    4    0    0  0.18977170207E+02  0.32699132398E+02 -0.15635478948E+03  0.20377363554E+03  0.12509000000E+03 0.  0.
<mgrwt>
<rscale>  2 0.46851085E+03</rscale>
<asrwt>0</asrwt>
<pdfrwt beam="1">  1       21 0.12431150E-01 0.46851085E+03</pdfrwt>
<pdfrwt beam="2">  1       21 0.95466317E-01 0.46851085E+03</pdfrwt>
<totfact> 0.46023311E+04</totfact>
</mgrwt>
</event>
<event>
 7    0  0.4712189E-002  0.4605305E+03  0.7546771E-02  0.1024627E+00
         21   -1    0    0  502  501  0.00000000000E+00  0.00000000000E+00  0.11334281418E+03  0.11334281418E+03  0.00000000000E+00 0. -1.
         21   -1    0    0  501  502 -0.00000000000E+00 -0.00000000000E+00 -0.46780281911E+03  0.46780281911E+03  0.00000000000E+00 0. -1.
      99926    2    1    2    0    0  0.00000000000E+00  0.00000000000E+00 -0.35446000494E+03  0.58114563329E+03  0.46053051147E+03 0.  0.
      99925    2    3    3    0    0  0.14261325217E+02 -0.10850365592E+03 -0.16576015632E+03  0.32968675054E+03  0.26313588755E+03 0.  0.
         25    1    4    4    0    0  0.34387910037E+02 -0.65126967770E+02 -0.52719240557E+02  0.15443729055E+03  0.12509000000E+03 0.  0.
         25    1    4    4    0    0 -0.20126584820E+02 -0.43376688145E+02 -0.11304091576E+03  0.17524945999E+03  0.12509000000E+03 0.  0.
         25    1    3    3    0    0 -0.14261325217E+02  0.10850365592E+03 -0.18869984862E+03  0.25145888275E+03  0.12509000000E+03 0.  0.
<mgrwt>
<rscale>  2 0.46053051E+03</rscale>
<asrwt>0</asrwt>
<pdfrwt beam="1">  1       21 0.16668061E-01 0.46053051E+03</pdfrwt>
<pdfrwt beam="2">  1       21 0.68794531E-01 0.46053051E+03</pdfrwt>
<totfact> 0.57307087E+04</totfact>
</mgrwt>
</event>
<event>
 7    0  0.4712189E-002  0.4537260E+03  0.7546771E-02  0.1026617E+00
         21   -1    0    0  502  501  0.00000000000E+00  0.00000000000E+00  0.48837552271E+03  0.48837552271E+03  0.00000000000E+00 0.  1.
         21   -1    0    0  501  502 -0.00000000000E+00 -0.00000000000E+00 -0.10538370470E+03  0.10538370470E+03  0.00000000000E+00 0.  1.
      99926    2    1    2    0    0 -0.14210854715E-13  0.00000000000E+00  0.38299181800E+03  0.59375922741E+03  0.45372600485E+03 0.  0.
      99925    2    3    3    0    0 -0.10230486504E+03 -0.18185000720E+01  0.18148762823E+03  0.33545506765E+03  0.26291205917E+03 0.  0.
         25    1    4    4    0    0 -0.48604891233E+02  0.17390551956E+02  0.47319343458E+02  0.14335792658E+03  0.12509000000E+03 0.  0.
         25    1    4    4    0    0 -0.53699973810E+02 -0.19209052028E+02  0.13416828477E+03  0.19209714106E+03  0.12509000000E+03 0.  0.
         25    1    3    3    0    0  0.10230486504E+03  0.18185000720E+01  0.20150418978E+03  0.25830415976E+03  0.12509000000E+03 0.  0.
<mgrwt>
<rscale>  2 0.45372600E+03</rscale>
<asrwt>0</asrwt>
<pdfrwt beam="1">  1       21 0.71819929E-01 0.45372600E+03</pdfrwt>
<pdfrwt beam="2">  1       21 0.15497604E-01 0.45372600E+03</pdfrwt>
<totfact> 0.59662467E+04</totfact>
</mgrwt>
</event>
<event>
 7    0  0.4712189E-002  0.4493281E+03  0.7546771E-02  0.1027923E+00
         21   -1    0    0  502  501  0.00000000000E+00  0.00000000000E+00  0.80822334243E+02  0.80822334243E+02  0.00000000000E+00 0. -1.
         21   -1    0    0  501  502 -0.00000000000E+00 -0.00000000000E+00 -0.62450467964E+03  0.62450467964E+03  0.00000000000E+00 0. -1.
      99926    2    1    2    0    0  0.00000000000E+00  0.00000000000E+00 -0.54368234540E+03  0.70532701389E+03  0.44932805812E+03 0.  0.
      99925    2    3    3    0    0 -0.93250956984E+01  0.59015687906E+02 -0.20315853317E+03  0.33766713897E+03  0.26301311433E+03 0.  0.
         25    1    4    4    0    0 -0.34466457193E+02  0.72652349723E+01 -0.77808760390E+02  0.15146759259E+03  0.12509000000E+03 0.  0.
         25    1    3    3    0    0  0.93250956984E+01 -0.59015687906E+02 -0.34052381223E+03  0.36765987492E+03  0.12509000000E+03 0.  0.
         25    1    4    4    0    0  0.25141361494E+02  0.51750452934E+02 -0.12534977278E+03  0.18619954638E+03  0.12509000000E+03 0.  0.
<mgrwt>
<rscale>  2 0.44932806E+03</rscale>
<asrwt>0</asrwt>
<pdfrwt beam="1">  1       21 0.11885637E-01 0.44932806E+03</pdfrwt>
<pdfrwt beam="2">  1       21 0.91838925E-01 0.44932806E+03</pdfrwt>
<totfact> 0.55029851E+04</totfact>
</mgrwt>
</event>
<event>
 7    0  0.4712189E-002  0.4565110E+03  0.7546771E-02  0.1025798E+00
         21   -1    0    0  502  501  0.00000000000E+00  0.00000000000E+00  0.20470566565E+04  0.20470566565E+04  0.00000000000E+00 0.  1.
         21   -1    0    0  501  502 -0.00000000000E+00 -0.00000000000E+00 -0.25451456578E+02  0.25451456578E+02  0.00000000000E+00 0.  1.
      99926    2    1    2    0    0 -0.71054273576E-14  0.00000000000E+00  0.20216052000E+04  0.20725081131E+04  0.45651100143E+03 0.  0.
      99925    2    3    3    0    0 -0.58222653696E+02 -0.97753882689E+02  0.13472568934E+04  0.13772823616E+04  0.26241163776E+03 0.  0.
         25    1    4    4    0    0 -0.17917392455E+02 -0.81554496608E+02  0.61297235931E+03  0.63115353936E+03  0.12509000000E+03 0.  0.
         25    1    3    3    0    0  0.58222653696E+02  0.97753882689E+02  0.67434830657E+03  0.69522575158E+03  0.12509000000E+03 0.  0.
         25    1    4    4    0    0 -0.40305261241E+02 -0.16199386081E+02  0.73428453409E+03  0.74612882219E+03  0.12509000000E+03 0.  0.
<mgrwt>
<rscale>  2 0.45651100E+03</rscale>
<asrwt>0</asrwt>
<pdfrwt beam="1">  1       21 0.30103763E+00 0.45651100E+03</pdfrwt>
<pdfrwt beam="2">  1       21 0.37428627E-02 0.45651100E+03</pdfrwt>
<totfact> 0.12415693E+04</totfact>
</mgrwt>
</event>
<event>
 7    0  0.4712189E-002  0.4568335E+03  0.7546771E-02  0.1025704E+00
         21   -1    0    0  502  501  0.00000000000E+00  0.00000000000E+00  0.17884179696E+04  0.17884179696E+04  0.00000000000E+00 0.  1.
         21   -1    0    0  501  502 -0.00000000000E+00 -0.00000000000E+00 -0.29173387845E+02  0.29173387845E+02  0.00000000000E+00 0.  1.
      99926    2    1    2    0    0  0.00000000000E+00  0.00000000000E+00  0.17592445818E+04  0.18175913574E+04  0.45683349727E+03 0.  0.
      99925    2    3    3    0    0 -0.25854924813E+02  0.86534766162E+02  0.13886198896E+04  0.14161353655E+04  0.26271169158E+03 0.  0.
         25    1    4    4    0    0  0.24844366939E+02  0.54835287043E+02  0.66005189058E+03  0.67449251859E+03  0.12509000000E+03 0.  0.
         25    1    4    4    0    0 -0.50699291752E+02  0.31699479119E+02  0.72856799897E+03  0.74164284692E+03  0.12509000000E+03 0.  0.
         25    1    3    3    0    0  0.25854924813E+02 -0.86534766162E+02  0.37062469220E+03  0.40145599193E+03  0.12509000000E+03 0.  0.
<mgrwt>
<rscale>  2 0.45683350E+03</rscale>
<asrwt>0</asrwt>
<pdfrwt beam="1">  1       21 0.26300257E+00 0.45683350E+03</pdfrwt>
<pdfrwt beam="2">  1       21 0.42902053E-02 0.45683350E+03</pdfrwt>
<totfact> 0.16685141E+04</totfact>
</mgrwt>
</event>
<event>
 7    0  0.4712189E-002  0.4769927E+03  0.7546771E-02  0.1019965E+00
         21   -1    0    0  502  501  0.00000000000E+00  0.00000000000E+00  0.90254797125E+03  0.90254797125E+03  0.00000000000E+00 0. -1.
         21   -1    0    0  501  502 -0.00000000000E+00 -0.00000000000E+00 -0.63022142511E+02  0.63022142511E+02  0.00000000000E+00 0. -1.
      99926    2    1    2    0    0  0.00000000000E+00  0.00000000000E+00  0.83952582874E+03  0.96557011376E+03  0.47699269121E+03 0.  0.
      99925    2    3    3    0    0  0.10431251391E+03  0.45374964055E+02  0.38003490012E+03  0.47595862543E+03  0.26300209104E+03 0.  0.
         25    1    4    4    0    0  0.61173047431E+02  0.17508707906E+02  0.25852822355E+03  0.29416499971E+03  0.12509000000E+03 0.  0.
         25    1    4    4    0    0  0.43139466482E+02  0.27866256149E+02  0.12150667657E+03  0.18179362572E+03  0.12509000000E+03 0.  0.
         25    1    3    3    0    0 -0.10431251391E+03 -0.45374964055E+02  0.45949092862E+03  0.48961148833E+03  0.12509000000E+03 0.  0.
<mgrwt>
<rscale>  2 0.47699269E+03</rscale>
<asrwt>0</asrwt>
<pdfrwt beam="1">  1       21 0.13272763E+00 0.47699269E+03</pdfrwt>
<pdfrwt beam="2">  1       21 0.92679627E-02 0.47699269E+03</pdfrwt>
<totfact> 0.34237242E+04</totfact>
</mgrwt>
</event>
<event>
 7    0  0.4712189E-002  0.4590630E+03  0.7546771E-02  0.1025053E+00
         21   -1    0    0  502  501  0.00000000000E+00  0.00000000000E+00  0.22970003391E+03  0.22970003391E+03  0.00000000000E+00 0. -1.
         21   -1    0    0  501  502 -0.00000000000E+00 -0.00000000000E+00 -0.22936310322E+03  0.22936310322E+03  0.00000000000E+00 0. -1.
      99926    2    1    2    0    0  0.00000000000E+00  0.00000000000E+00  0.33693068660E+00  0.45906313713E+03  0.45906301348E+03 0.  0.
      99925    2    3    3    0    0  0.10123934277E+03  0.22154493320E+02  0.54227690611E+02  0.28791423061E+03  0.26308503503E+03 0.  0.
         25    1    4    4    0    0  0.79453245498E+02  0.22335046916E+02  0.45364967743E-01  0.14986388057E+03  0.12509000000E+03 0.  0.
         25    1    4    4    0    0  0.21786097268E+02 -0.18055359565E+00  0.54182325643E+02  0.13805035004E+03  0.12509000000E+03 0.  0.
         25    1    3    3    0    0 -0.10123934277E+03 -0.22154493320E+02 -0.53890759924E+02  0.17114890652E+03  0.12509000000E+03 0.  0.
<mgrwt>
<rscale>  2 0.45906301E+03</rscale>
<asrwt>0</asrwt>
<pdfrwt beam="1">  1       21 0.33779417E-01 0.45906301E+03</pdfrwt>
<pdfrwt beam="2">  1       21 0.33729868E-01 0.45906301E+03</pdfrwt>
<totfact> 0.66080775E+04</totfact>
</mgrwt>
</event>
<event>
 7    0  0.4712189E-002  0.4551920E+03  0.7546771E-02  0.1026185E+00
         21   -1    0    0  502  501  0.00000000000E+00  0.00000000000E+00  0.42490951717E+03  0.42490951717E+03  0.00000000000E+00 0.  1.
         21   -1    0    0  501  502 -0.00000000000E+00 -0.00000000000E+00 -0.12190814019E+03  0.12190814019E+03  0.00000000000E+00 0.  1.
      99926    2    1    2    0    0  0.00000000000E+00  0.00000000000E+00  0.30300137698E+03  0.54681765736E+03  0.45519195506E+03 0.  0.
      99925    2    3    3    0    0 -0.10262314091E+03 -0.36520218366E+02  0.15324514616E+03  0.32334579745E+03  0.26306500054E+03 0.  0.
         25    1    3    3    0    0  0.10262314091E+03  0.36520218366E+02  0.14975623083E+03  0.22347185991E+03  0.12509000000E+03 0.  0.
         25    1    4    4    0    0 -0.12856685910E+02 -0.16374591999E+02  0.90871900953E+02  0.15600843605E+03  0.12509000000E+03 0.  0.
         25    1    4    4    0    0 -0.89766454997E+02 -0.20145626367E+02  0.62373245205E+02  0.16733736140E+03  0.12509000000E+03 0.  0.
<mgrwt>
<rscale>  2 0.45519196E+03</rscale>
<asrwt>0</asrwt>
<pdfrwt beam="1">  1       21 0.62486693E-01 0.45519196E+03</pdfrwt>
<pdfrwt beam="2">  1       21 0.17927668E-01 0.45519196E+03</pdfrwt>
<totfact> 0.61983098E+04</totfact>
</mgrwt>
</event>
<event>
 7    0  0.4712189E-002  0.4515250E+03  0.7546771E-02  0.1027268E+00
         21   -1    0    0  502  501  0.00000000000E+00  0.00000000000E+00  0.18061095288E+04  0.18061095288E+04  0.00000000000E+00 0.  1.
         21   -1    0    0  501  502 -0.00000000000E+00 -0.00000000000E+00 -0.28220167041E+02  0.28220167041E+02  0.00000000000E+00 0.  1.
      99926    2    1    2    0    0 -0.14210854715E-13 -0.71054273576E-14  0.17778893617E+04  0.18343296958E+04  0.45152502742E+03 0.  0.
      99925    2    3    3    0    0  0.86906384419E+02  0.52469144239E+02  0.95139479112E+03  0.99228069837E+03  0.26298898272E+03 0.  0.
         25    1    4    4    0    0  0.76024680905E+02  0.12543068426E+02  0.42622677226E+03  0.45083683320E+03  0.12509000000E+03 0.  0.
         25    1    4    4    0    0  0.10881703514E+02  0.39926075814E+02  0.52516801886E+03  0.54144386517E+03  0.12509000000E+03 0.  0.
         25    1    3    3    0    0 -0.86906384419E+02 -0.52469144239E+02  0.82649457059E+03  0.84204899743E+03  0.12509000000E+03 0.  0.
<mgrwt>
<rscale>  2 0.45152503E+03</rscale>
<asrwt>0</asrwt>
<pdfrwt beam="1">  1       21 0.26560427E+00 0.45152503E+03</pdfrwt>
<pdfrwt beam="2">  1       21 0.41500258E-02 0.45152503E+03</pdfrwt>
<totfact> 0.17064545E+04</totfact>
</mgrwt>
</event>
<event>
 7    0  0.4712189E-002  0.4528179E+03  0.7546771E-02  0.1026885E+00
         21   -1    0    0  502  501  0.00000000000E+00  0.00000000000E+00  0.86892009673E+03  0.86892009673E+03  0.00000000000E+00 0.  1.
         21   -1    0    0  501  502 -0.00000000000E+00 -0.00000000000E+00 -0.58993930624E+02  0.58993930624E+02  0.00000000000E+00 0.  1.
      99926    2    1    2    0    0  0.71054273576E-14  0.00000000000E+00  0.80992616611E+03  0.92791402736E+03  0.45281789675E+03 0.  0.
      99925    2    3    3    0    0  0.38896496672E+02 -0.25044410665E+02  0.30111984157E+03  0.40191826316E+03  0.26215447987E+03 0.  0.
         25    1    4    4    0    0  0.54010909465E+02  0.56179741677E+01  0.16130509519E+03  0.21122400860E+03  0.12509000000E+03 0.  0.
         25    1    3    3    0    0 -0.38896496672E+02  0.25044410665E+02  0.50880632454E+03  0.52599576420E+03  0.12509000000E+03 0.  0.
         25    1    4    4    0    0 -0.15114412793E+02 -0.30662384833E+02  0.13981474638E+03  0.19069425456E+03  0.12509000000E+03 0.  0.
<mgrwt>
<rscale>  2 0.45281790E+03</rscale>
<asrwt>0</asrwt>
<pdfrwt beam="1">  1       21 0.12778236E+00 0.45281790E+03</pdfrwt>
<pdfrwt beam="2">  1       21 0.86755786E-02 0.45281790E+03</pdfrwt>
<totfact> 0.42773746E+04</totfact>
</mgrwt>
</event>
<event>
 7    0  0.4712189E-002  0.4553544E+03  0.7546771E-02  0.1026137E+00
         21   -1    0    0  502  501  0.00000000000E+00  0.00000000000E+00  0.19969095289E+03  0.19969095289E+03  0.00000000000E+00 0.  1.
         21   -1    0    0  501  502 -0.00000000000E+00 -0.00000000000E+00 -0.25958561701E+03  0.25958561701E+03  0.00000000000E+00 0.  1.
      99926    2    1    2    0    0  0.00000000000E+00  0.00000000000E+00 -0.59894664113E+02  0.45927656990E+03  0.45535436406E+03 0.  0.
      99925    2    3    3    0    0 -0.11028850373E+03  0.24890835295E+02 -0.47431739728E+02  0.29020279807E+03  0.26303001033E+03 0.  0.
         25    1    4    4    0    0 -0.75332260138E+02  0.12740336053E+02  0.11565494835E+02  0.14703242619E+03  0.12509000000E+03 0.  0.
         25    1    3    3    0    0  0.11028850373E+03 -0.24890835295E+02 -0.12462924385E+02  0.16907377183E+03  0.12509000000E+03 0.  0.
         25    1    4    4    0    0 -0.34956243595E+02  0.12150499242E+02 -0.58997234562E+02  0.14317037188E+03  0.12509000000E+03 0.  0.
<mgrwt>
<rscale>  2 0.45535436E+03</rscale>
<asrwt>0</asrwt>
<pdfrwt beam="1">  1       21 0.29366317E-01 0.45535436E+03</pdfrwt>
<pdfrwt beam="2">  1       21 0.38174355E-01 0.45535436E+03</pdfrwt>
<totfact> 0.68040826E+04</totfact>
</mgrwt>
</event>
<event>
 7    0  0.4712189E-002  0.4498103E+03  0.7546771E-02  0.1027779E+00
         21   -1    0    0  502  501  0.00000000000E+00  0.00000000000E+00  0.16303739963E+03  0.16303739963E+03  0.00000000000E+00 0.  1.
         21   -1    0    0  501  502 -0.00000000000E+00 -0.00000000000E+00 -0.31024979982E+03  0.31024979982E+03  0.00000000000E+00 0.  1.
      99926    2    1    2    0    0  0.00000000000E+00  0.35527136788E-14 -0.14721240019E+03  0.47328719945E+03  0.44981027378E+03 0.  0.
      99925    2    3    3    0    0 -0.38981150038E+02 -0.17771880211E+02  0.11561727880E+02  0.26666652858E+03  0.26294865303E+03 0.  0.
         25    1    4    4    0    0 -0.12797947726E+02 -0.16941193197E+02  0.44894614268E+02  0.13458761452E+03  0.12509000000E+03 0.  0.
         25    1    3    3    0    0  0.38981150038E+02  0.17771880211E+02 -0.15877412807E+03  0.20662067087E+03  0.12509000000E+03 0.  0.
         25    1    4    4    0    0 -0.26183202313E+02 -0.83068701333E+00 -0.33332886388E+02  0.13207891406E+03  0.12509000000E+03 0.  0.
<mgrwt>
<rscale>  2 0.44981027E+03</rscale>
<asrwt>0</asrwt>
<pdfrwt beam="1">  1       21 0.23976088E-01 0.44981027E+03</pdfrwt>
<pdfrwt beam="2">  1       21 0.45624970E-01 0.44981027E+03</pdfrwt>
<totfact> 0.70032381E+04</totfact>
</mgrwt>
</event>
<event>
 7    0  0.4712189E-002  0.4508019E+03  0.7546771E-02  0.1027483E+00
         21   -1    0    0  502  501  0.00000000000E+00  0.00000000000E+00  0.85359842223E+03  0.85359842223E+03  0.00000000000E+00 0.  1.
         21   -1    0    0  501  502 -0.00000000000E+00 -0.00000000000E+00 -0.59519299661E+02  0.59519299661E+02  0.00000000000E+00 0.  1.
      99926    2    1    2    0    0  0.00000000000E+00  0.00000000000E+00  0.79407912257E+03  0.91311772189E+03  0.45080186460E+03 0.  0.
      99925    2    3    3    0    0  0.86112374847E+02 -0.64834617493E+02  0.46631130690E+03  0.54610530001E+03  0.26299409694E+03 0.  0.
         25    1    3    3    0    0 -0.86112374847E+02  0.64834617493E+02  0.32776781567E+03  0.36701242188E+03  0.12509000000E+03 0.  0.
         25    1    4    4    0    0  0.15080137047E+02 -0.67782066431E+00  0.18807117621E+03  0.22637611489E+03  0.12509000000E+03 0.  0.
         25    1    4    4    0    0  0.71032237800E+02 -0.64156796828E+02  0.27824013069E+03  0.31972918512E+03  0.12509000000E+03 0.  0.
<mgrwt>
<rscale>  2 0.45080186E+03</rscale>
<asrwt>0</asrwt>
<pdfrwt beam="1">  1       21 0.12552917E+00 0.45080186E+03</pdfrwt>
<pdfrwt beam="2">  1       21 0.87528387E-02 0.45080186E+03</pdfrwt>
<totfact> 0.44102282E+04</totfact>
</mgrwt>
</event>
<event>
 7    0  0.4712189E-002  0.4467020E+03  0.7546771E-02  0.1028710E+00
         21   -1    0    0  502  501  0.00000000000E+00  0.00000000000E+00  0.33860454113E+03  0.33860454113E+03  0.00000000000E+00 0. -1.
         21   -1    0    0  501  502 -0.00000000000E+00 -0.00000000000E+00 -0.14732725571E+03  0.14732725571E+03  0.00000000000E+00 0. -1.
      99926    2    1    2    0    0  0.00000000000E+00  0.00000000000E+00  0.19127728542E+03  0.48593179684E+03  0.44670203857E+03 0.  0.
      99925    2    3    3    0    0 -0.54386571251E+02 -0.90036246881E+02  0.12479444508E+03  0.30948945203E+03  0.26295559037E+03 0.  0.
         25    1    4    4    0    0  0.10792344110E+02 -0.25831463123E+02  0.53548974634E+02  0.13891990485E+03  0.12509000000E+03 0.  0.
         25    1    4    4    0    0 -0.65178915361E+02 -0.64204783758E+02  0.71245470450E+02  0.17056954718E+03  0.12509000000E+03 0.  0.
         25    1    3    3    0    0  0.54386571251E+02  0.90036246881E+02  0.66482840340E+02  0.17644234482E+03  0.12509000000E+03 0.  0.
<mgrwt>
<rscale>  2 0.44670204E+03</rscale>
<asrwt>0</asrwt>
<pdfrwt beam="1">  1       21 0.49794785E-01 0.44670204E+03</pdfrwt>
<pdfrwt beam="2">  1       21 0.21665773E-01 0.44670204E+03</pdfrwt>
<totfact> 0.70822461E+04</totfact>
</mgrwt>
</event>
<event>
 7    0  0.4712189E-002  0.4545604E+03  0.7546771E-02  0.1026371E+00
         21   -1    0    0  502  501  0.00000000000E+00  0.00000000000E+00  0.59741477974E+02  0.59741477974E+02  0.00000000000E+00 0. -1.
         21   -1    0    0  501  502 -0.00000000000E+00 -0.00000000000E+00 -0.86466391540E+03  0.86466391540E+03  0.00000000000E+00 0. -1.
      99926    2    1    2    0    0  0.00000000000E+00  0.00000000000E+00 -0.80492243743E+03  0.92440539338E+03  0.45456044816E+03 0.  0.
      99925    2    3    3    0    0 -0.32652539434E+02 -0.45997182284E+02 -0.70531530817E+03  0.75484414365E+03  0.26294118764E+03 0.  0.
         25    1    4    4    0    0 -0.41504264607E+02 -0.55794978279E+02 -0.37990108531E+03  0.40596554817E+03  0.12509000000E+03 0.  0.
         25    1    4    4    0    0  0.88517251730E+01  0.97977959948E+01 -0.32541422286E+03  0.34887859548E+03  0.12509000000E+03 0.  0.
         25    1    3    3    0    0  0.32652539434E+02  0.45997182284E+02 -0.99607129258E+02  0.16956124973E+03  0.12509000000E+03 0.  0.
<mgrwt>
<rscale>  2 0.45456045E+03</rscale>
<asrwt>0</asrwt>
<pdfrwt beam="1">  1       21 0.87855114E-02 0.45456045E+03</pdfrwt>
<pdfrwt beam="2">  1       21 0.12715646E+00 0.45456045E+03</pdfrwt>
<totfact> 0.42340404E+04</totfact>
</mgrwt>
</event>
<event>
 7    0  0.4712189E-002  0.4538274E+03  0.7546771E-02  0.1026587E+00
         21   -1    0    0  502  501  0.00000000000E+00  0.00000000000E+00  0.18828496792E+03  0.18828496792E+03  0.00000000000E+00 0. -1.
         21   -1    0    0  501  502 -0.00000000000E+00 -0.00000000000E+00 -0.27346757994E+03  0.27346757994E+03  0.00000000000E+00 0. -1.
      99926    2    1    2    0    0 -0.14210854715E-13  0.00000000000E+00 -0.85182612021E+02  0.46175254786E+03  0.45382743203E+03 0.  0.
      99925    2    3    3    0    0 -0.10290038793E+03 -0.18507808116E+02 -0.12356113667E+02  0.28319657411E+03  0.26290035612E+03 0.  0.
         25    1    3    3    0    0  0.10290038793E+03  0.18507808116E+02 -0.72826498355E+02  0.17855597374E+03  0.12509000000E+03 0.  0.
         25    1    4    4    0    0 -0.11024870456E+02 -0.10456240787E+02 -0.20039426312E+02  0.12759297570E+03  0.12509000000E+03 0.  0.
         25    1    4    4    0    0 -0.91875517474E+02 -0.80515673294E+01  0.76833126452E+01  0.15560359842E+03  0.12509000000E+03 0.  0.
<mgrwt>
<rscale>  2 0.45382743E+03</rscale>
<asrwt>0</asrwt>
<pdfrwt beam="1">  1       21 0.27688966E-01 0.45382743E+03</pdfrwt>
<pdfrwt beam="2">  1       21 0.40215820E-01 0.45382743E+03</pdfrwt>
<totfact> 0.68689940E+04</totfact>
</mgrwt>
</event>
<event>
 7    0  0.4712189E-002  0.4554007E+03  0.7546771E-02  0.1026124E+00
         21   -1    0    0  502  501  0.00000000000E+00  0.00000000000E+00  0.27350172794E+03  0.27350172794E+03  0.00000000000E+00 0. -1.
         21   -1    0    0  501  502 -0.00000000000E+00 -0.00000000000E+00 -0.18956899706E+03  0.18956899706E+03  0.00000000000E+00 0. -1.
      99926    2    1    2    0    0 -0.35527136788E-14  0.00000000000E+00  0.83932730878E+02  0.46307072501E+03  0.45540069504E+03 0.  0.
      99925    2    3    3    0    0  0.17381151236E+02 -0.87331446359E+02 -0.19014007658E+02  0.27820746468E+03  0.26288585922E+03 0.  0.
         25    1    3    3    0    0 -0.17381151236E+02  0.87331446359E+02  0.10294673854E+03  0.18486326032E+03  0.12509000000E+03 0.  0.
         25    1    4    4    0    0  0.37658361905E+02 -0.47217253186E+02 -0.37819648047E+02  0.14396338110E+03  0.12509000000E+03 0.  0.
         25    1    4    4    0    0 -0.20277210669E+02 -0.40114193173E+02  0.18805640389E+02  0.13424408358E+03  0.12509000000E+03 0.  0.
<mgrwt>
<rscale>  2 0.45540070E+03</rscale>
<asrwt>0</asrwt>
<pdfrwt beam="1">  1       21 0.40220842E-01 0.45540070E+03</pdfrwt>
<pdfrwt beam="2">  1       21 0.27877794E-01 0.45540070E+03</pdfrwt>
<totfact> 0.67737578E+04</totfact>
</mgrwt>
</event>
<event>
 7    0  0.4712189E-002  0.4652846E+03  0.7546771E-02  0.1023260E+00
         21   -1    0    0  502  501  0.00000000000E+00  0.00000000000E+00  0.81908142635E+03  0.81908142635E+03  0.00000000000E+00 0. -1.
         21   -1    0    0  501  502 -0.00000000000E+00 -0.00000000000E+00 -0.66077008828E+02  0.66077008828E+02  0.00000000000E+00 0. -1.
      99926    2    1    2    0    0 -0.71054273576E-14 -0.14210854715E-13  0.75300441752E+03  0.88515843518E+03  0.46528464681E+03 0.  0.
      99925    2    3    3    0    0  0.54730120406E+02  0.91368526264E+02  0.35408424188E+03  0.45373241799E+03  0.26297122108E+03 0.  0.
         25    1    3    3    0    0 -0.54730120406E+02 -0.91368526264E+02  0.39892017564E+03  0.43142601719E+03  0.12509000000E+03 0.  0.
         25    1    4    4    0    0  0.17061953539E+02  0.68493842381E+01  0.18355928263E+03  0.22288908153E+03  0.12509000000E+03 0.  0.
         25    1    4    4    0    0  0.37668166867E+02  0.84519142026E+02  0.17052495924E+03  0.23084333646E+03  0.12509000000E+03 0.  0.
<mgrwt>
<rscale>  2 0.46528465E+03</rscale>
<asrwt>0</asrwt>
<pdfrwt beam="1">  1       21 0.12045314E+00 0.46528465E+03</pdfrwt>
<pdfrwt beam="2">  1       21 0.97172077E-02 0.46528465E+03</pdfrwt>
<totfact> 0.40518268E+04</totfact>
</mgrwt>
</event>
<event>
 7    0  0.4712189E-002  0.4523547E+03  0.7546771E-02  0.1027022E+00
         21   -1    0    0  502  501  0.00000000000E+00  0.00000000000E+00  0.24713653672E+03  0.24713653672E+03  0.00000000000E+00 0. -1.
         21   -1    0    0  501  502 -0.00000000000E+00 -0.00000000000E+00 -0.20699565327E+03  0.20699565327E+03  0.00000000000E+00 0. -1.
      99926    2    1    2    0    0  0.14210854715E-13  0.00000000000E+00  0.40140883446E+02  0.45413218999E+03  0.45235467883E+03 0.  0.
      99925    2    3    3    0    0  0.10726132009E+03  0.25180867426E+02  0.14955440079E+02  0.28554725137E+03  0.26301045741E+03 0.  0.
         25    1    3    3    0    0 -0.10726132009E+03 -0.25180867426E+02  0.25185443367E+02  0.16858493862E+03  0.12509000000E+03 0.  0.
         25    1    4    4    0    0  0.42477188569E+02  0.31937770262E+01 -0.31030892082E+02  0.13573848431E+03  0.12509000000E+03 0.  0.
         25    1    4    4    0    0  0.64784131524E+02  0.21987090400E+02  0.45986332162E+02  0.14980876706E+03  0.12509000000E+03 0.  0.
<mgrwt>
<rscale>  2 0.45235468E+03</rscale>
<asrwt>0</asrwt>
<pdfrwt beam="1">  1       21 0.36343609E-01 0.45235468E+03</pdfrwt>
<pdfrwt beam="2">  1       21 0.30440537E-01 0.45235468E+03</pdfrwt>
<totfact> 0.70076843E+04</totfact>
</mgrwt>
</event>
<event>
 7    0  0.4712189E-002  0.4569144E+03  0.7546771E-02  0.1025680E+00
         21   -1    0    0  502  501  0.00000000000E+00  0.00000000000E+00  0.76139838717E+03  0.76139838717E+03  0.00000000000E+00 0. -1.
         21   -1    0    0  501  502 -0.00000000000E+00 -0.00000000000E+00 -0.68548464368E+02  0.68548464368E+02  0.00000000000E+00 0. -1.
      99926    2    1    2    0    0  0.00000000000E+00  0.00000000000E+00  0.69284992280E+03  0.82994685154E+03  0.45691439116E+03 0.  0.
      99925    2    3    3    0    0  0.38013634407E+02  0.52090902540E+02  0.60802335607E+03  0.66562535857E+03  0.26307074697E+03 0.  0.
         25    1    4    4    0    0  0.85578542248E+01  0.19884900690E+02  0.20244192619E+03  0.23895373553E+03  0.12509000000E+03 0.  0.
         25    1    4    4    0    0  0.29455780182E+02  0.32206001849E+02  0.40558142989E+03  0.42667162304E+03  0.12509000000E+03 0.  0.
         25    1    3    3    0    0 -0.38013634407E+02 -0.52090902540E+02  0.84826566730E+02  0.16432149297E+03  0.12509000000E+03 0.  0.
<mgrwt>
<rscale>  2 0.45691439E+03</rscale>
<asrwt>0</asrwt>
<pdfrwt beam="1">  1       21 0.11197035E+00 0.45691439E+03</pdfrwt>
<pdfrwt beam="2">  1       21 0.10080657E-01 0.45691439E+03</pdfrwt>
<totfact> 0.45660467E+04</totfact>
</mgrwt>
</event>
<event>
 7    0  0.4712189E-002  0.4635782E+03  0.7546771E-02  0.1023749E+00
         21   -1    0    0  502  501  0.00000000000E+00  0.00000000000E+00  0.26141325188E+02  0.26141325188E+02  0.00000000000E+00 0. -1.
         21   -1    0    0  501  502 -0.00000000000E+00 -0.00000000000E+00 -0.20552207319E+04  0.20552207319E+04  0.00000000000E+00 0. -1.
      99926    2    1    2    0    0  0.00000000000E+00  0.00000000000E+00 -0.20290794068E+04  0.20813620571E+04  0.46357822851E+03 0.  0.
      99925    2    3    3    0    0  0.70194369437E+02  0.96940241367E+02 -0.11857176632E+04  0.12204142082E+04  0.26298251459E+03 0.  0.
         25    1    4    4    0    0  0.27365584907E+02  0.50250463463E+02 -0.75555547006E+03  0.76797497405E+03  0.12509000000E+03 0.  0.
         25    1    4    4    0    0  0.42828784531E+02  0.46689777904E+02 -0.43016219309E+03  0.45243923416E+03  0.12509000000E+03 0.  0.
         25    1    3    3    0    0 -0.70194369437E+02 -0.96940241367E+02 -0.84336174360E+03  0.86094784893E+03  0.12509000000E+03 0.  0.
<mgrwt>
<rscale>  2 0.46357823E+03</rscale>
<asrwt>0</asrwt>
<pdfrwt beam="1">  1       21 0.38443140E-02 0.46357823E+03</pdfrwt>
<pdfrwt beam="2">  1       21 0.30223823E+00 0.46357823E+03</pdfrwt>
<totfact> 0.11632504E+04</totfact>
</mgrwt>
</event>
<event>
 7    0  0.4712189E-002  0.4526481E+03  0.7546771E-02  0.1026935E+00
         21   -1    0    0  502  501  0.00000000000E+00  0.00000000000E+00  0.10304614986E+03  0.10304614986E+03  0.00000000000E+00 0.  1.
         21   -1    0    0  501  502 -0.00000000000E+00 -0.00000000000E+00 -0.49708385213E+03  0.49708385213E+03  0.00000000000E+00 0.  1.
      99926    2    1    2    0    0  0.00000000000E+00 -0.14210854715E-13 -0.39403770227E+03  0.60013000199E+03  0.45264810668E+03 0.  0.
      99925    2    3    3    0    0 -0.27689421545E+01  0.70211596655E+02 -0.13589479831E+03  0.30479527273E+03  0.26361985268E+03 0.  0.
         25    1    4    4    0    0 -0.10517396268E+01  0.93526465523E+01 -0.27474120725E+02  0.12841695201E+03  0.12509000000E+03 0.  0.
         25    1    3    3    0    0  0.27689421545E+01 -0.70211596655E+02 -0.25814290396E+03  0.29533472927E+03  0.12509000000E+03 0.  0.
         25    1    4    4    0    0 -0.17172025277E+01  0.60858950102E+02 -0.10842067758E+03  0.17637832072E+03  0.12509000000E+03 0.  0.
<mgrwt>
<rscale>  2 0.45264811E+03</rscale>
<asrwt>0</asrwt>
<pdfrwt beam="1">  1       21 0.15153845E-01 0.45264811E+03</pdfrwt>
<pdfrwt beam="2">  1       21 0.73100567E-01 0.45264811E+03</pdfrwt>
<totfact> 0.59773291E+04</totfact>
</mgrwt>
</event>
<event>
 7    0  0.4712189E-002  0.4540134E+03  0.7546771E-02  0.1026532E+00
         21   -1    0    0  502  501  0.00000000000E+00  0.00000000000E+00  0.11843746698E+03  0.11843746698E+03  0.00000000000E+00 0. -1.
         21   -1    0    0  501  502 -0.00000000000E+00 -0.00000000000E+00 -0.43509920171E+03  0.43509920171E+03  0.00000000000E+00 0. -1.
      99926    2    1    2    0    0 -0.35527136788E-14  0.00000000000E+00 -0.31666173473E+03  0.55353666870E+03  0.45401342420E+03 0.  0.
      99925    2    3    3    0    0  0.23843985208E+02  0.10895875686E+03 -0.21608519051E+03  0.35807901171E+03  0.26284448395E+03 0.  0.
         25    1    4    4    0    0  0.13837009437E+02  0.20869349825E+02 -0.13046515701E+03  0.18247097820E+03  0.12509000000E+03 0.  0.
         25    1    3    3    0    0 -0.23843985208E+02 -0.10895875686E+03 -0.10057654422E+03  0.19545765699E+03  0.12509000000E+03 0.  0.
         25    1    4    4    0    0  0.10006975771E+02  0.88089407038E+02 -0.85620033504E+02  0.17560803351E+03  0.12509000000E+03 0.  0.
<mgrwt>
<rscale>  2 0.45401342E+03</rscale>
<asrwt>0</asrwt>
<pdfrwt beam="1">  1       21 0.17417275E-01 0.45401342E+03</pdfrwt>
<pdfrwt beam="2">  1       21 0.63985176E-01 0.45401342E+03</pdfrwt>
<totfact> 0.62116812E+04</totfact>
</mgrwt>
</event>
<event>
 7    0  0.4712189E-002  0.4627709E+03  0.7546771E-02  0.1023981E+00
         21   -1    0    0  502  501  0.00000000000E+00  0.00000000000E+00  0.63785830221E+03  0.63785830221E+03  0.00000000000E+00 0. -1.
         21   -1    0    0  501  502 -0.00000000000E+00 -0.00000000000E+00 -0.83935937205E+02  0.83935937205E+02  0.00000000000E+00 0. -1.
      99926    2    1    2    0    0  0.31086244690E-14  0.14210854715E-13  0.55392236500E+03  0.72179423941E+03  0.46277093426E+03 0.  0.
      99925    2    3    3    0    0 -0.34355318094E+01 -0.72299034390E+02  0.19603940805E+03  0.33583223062E+03  0.26289329463E+03 0.  0.
         25    1    4    4    0    0 -0.24441632997E+02 -0.15104221427E+02  0.12678672630E+03  0.18041040157E+03  0.12509000000E+03 0.  0.
         25    1    3    3    0    0  0.34355318094E+01  0.72299034390E+02  0.35788295695E+03  0.38596200879E+03  0.12509000000E+03 0.  0.
         25    1    4    4    0    0  0.21006101188E+02 -0.57194812963E+02  0.69252681754E+02  0.15542182906E+03  0.12509000000E+03 0.  0.
<mgrwt>
<rscale>  2 0.46277093E+03</rscale>
<asrwt>0</asrwt>
<pdfrwt beam="1">  1       21 0.93802689E-01 0.46277093E+03</pdfrwt>
<pdfrwt beam="2">  1       21 0.12343520E-01 0.46277093E+03</pdfrwt>
<totfact> 0.48690654E+04</totfact>
</mgrwt>
</event>
<event>
 7    0  0.4712189E-002  0.4451004E+03  0.7546771E-02  0.1029193E+00
         21   -1    0    0  502  501  0.00000000000E+00  0.00000000000E+00  0.34398684990E+02  0.34398684990E+02  0.00000000000E+00 0.  1.
         21   -1    0    0  501  502 -0.00000000000E+00 -0.00000000000E+00 -0.14398394893E+04  0.14398394893E+04  0.00000000000E+00 0.  1.
      99926    2    1    2    0    0  0.00000000000E+00  0.00000000000E+00 -0.14054408044E+04  0.14742381743E+04  0.44510037084E+03 0.  0.
      99925    2    3    3    0    0 -0.45240791857E+02  0.81404256150E+02 -0.10430297145E+04  0.10796970633E+04  0.26298551469E+03 0.  0.
         25    1    4    4    0    0 -0.14327343853E+01  0.26794104076E+02 -0.61929780935E+03  0.63237430491E+03  0.12509000000E+03 0.  0.
         25    1    4    4    0    0 -0.43808057471E+02  0.54610152074E+02 -0.42373190519E+03  0.44732275840E+03  0.12509000000E+03 0.  0.
         25    1    3    3    0    0  0.45240791857E+02 -0.81404256150E+02 -0.36241108981E+03  0.39454111102E+03  0.12509000000E+03 0.  0.
<mgrwt>
<rscale>  2 0.44510037E+03</rscale>
<asrwt>0</asrwt>
<pdfrwt beam="1">  1       21 0.50586296E-02 0.44510037E+03</pdfrwt>
<pdfrwt beam="2">  1       21 0.21174113E+00 0.44510037E+03</pdfrwt>
<totfact> 0.26389420E+04</totfact>
</mgrwt>
</event>
<event>
 7    0  0.4712189E-002  0.4560620E+03  0.7546771E-02  0.1025930E+00
         21   -1    0    0  502  501  0.00000000000E+00  0.00000000000E+00  0.89434976763E+03  0.89434976763E+03  0.00000000000E+00 0. -1.
         21   -1    0    0  501  502 -0.00000000000E+00 -0.00000000000E+00 -0.58140709097E+02  0.58140709097E+02  0.00000000000E+00 0. -1.
      99926    2    1    2    0    0  0.00000000000E+00  0.00000000000E+00  0.83620905853E+03  0.95249047673E+03  0.45606196803E+03 0.  0.
      99925    2    3    3    0    0  0.84415889918E+02 -0.67416382041E+02  0.60281471378E+03  0.66649845009E+03  0.26298972182E+03 0.  0.
         25    1    4    4    0    0  0.19250523272E+02 -0.60822663836E+02  0.25481124222E+03  0.29094029687E+03  0.12509000000E+03 0.  0.
         25    1    3    3    0    0 -0.84415889918E+02  0.67416382041E+02  0.23339434475E+03  0.28599202664E+03  0.12509000000E+03 0.  0.
         25    1    4    4    0    0  0.65165366645E+02 -0.65937182046E+01  0.34800347156E+03  0.37555815322E+03  0.12509000000E+03 0.  0.
<mgrwt>
<rscale>  2 0.45606197E+03</rscale>
<asrwt>0</asrwt>
<pdfrwt beam="1">  1       21 0.13152202E+00 0.45606197E+03</pdfrwt>
<pdfrwt beam="2">  1       21 0.85501048E-02 0.45606197E+03</pdfrwt>
<totfact> 0.40701093E+04</totfact>
</mgrwt>
</event>
<event>
 7    0  0.4712189E-002  0.4607401E+03  0.7546771E-02  0.1024567E+00
         21   -1    0    0  502  501  0.00000000000E+00  0.00000000000E+00  0.10163031615E+03  0.10163031615E+03  0.00000000000E+00 0. -1.
         21   -1    0    0  501  502 -0.00000000000E+00 -0.00000000000E+00 -0.52219025959E+03  0.52219025959E+03  0.00000000000E+00 0. -1.
      99926    2    1    2    0    0  0.00000000000E+00  0.00000000000E+00 -0.42055994344E+03  0.62382057574E+03  0.46074010536E+03 0.  0.
      99925    2    3    3    0    0  0.10156542696E+03 -0.51226126162E+02 -0.21866941912E+03  0.36048249671E+03  0.26304308321E+03 0.  0.
         25    1    3    3    0    0 -0.10156542696E+03  0.51226126162E+02 -0.20189052433E+03  0.26333807903E+03  0.12509000000E+03 0.  0.
         25    1    4    4    0    0  0.79048332456E+02 -0.22199654204E+02 -0.15483691050E+03  0.21532171387E+03  0.12509000000E+03 0.  0.
         25    1    4    4    0    0  0.22517094500E+02 -0.29026471958E+02 -0.63832508615E+02  0.14516078284E+03  0.12509000000E+03 0.  0.
<mgrwt>
<rscale>  2 0.46074011E+03</rscale>
<asrwt>0</asrwt>
<pdfrwt beam="1">  1       21 0.14945635E-01 0.46074011E+03</pdfrwt>
<pdfrwt beam="2">  1       21 0.76792684E-01 0.46074011E+03</pdfrwt>
<totfact> 0.54713222E+04</totfact>
</mgrwt>
</event>
<event>
 7    0  0.4712189E-002  0.4571548E+03  0.7546771E-02  0.1025610E+00
         21   -1    0    0  502  501  0.00000000000E+00  0.00000000000E+00  0.36397869400E+03  0.36397869400E+03  0.00000000000E+00 0. -1.
         21   -1    0    0  501  502 -0.00000000000E+00 -0.00000000000E+00 -0.14354581926E+03  0.14354581926E+03  0.00000000000E+00 0. -1.
      99926    2    1    2    0    0  0.00000000000E+00 -0.71054273576E-14  0.22043287474E+03  0.50752451326E+03  0.45715476514E+03 0.  0.
      99925    2    3    3    0    0  0.68915525303E+02 -0.51913474114E+02  0.53690582616E+02  0.28192562473E+03  0.26297342223E+03 0.  0.
         25    1    4    4    0    0  0.60468823156E+01 -0.48566614726E+02  0.44825149475E+02  0.14160537764E+03  0.12509000000E+03 0.  0.
         25    1    4    4    0    0  0.62868642987E+02 -0.33468593874E+01  0.88654331403E+01  0.14032024709E+03  0.12509000000E+03 0.  0.
         25    1    3    3    0    0 -0.68915525303E+02  0.51913474114E+02  0.16674229212E+03  0.22559888853E+03  0.12509000000E+03 0.  0.
<mgrwt>
<rscale>  2 0.45715477E+03</rscale>
<asrwt>0</asrwt>
<pdfrwt beam="1">  1       21 0.53526279E-01 0.45715477E+03</pdfrwt>
<pdfrwt beam="2">  1       21 0.21109679E-01 0.45715477E+03</pdfrwt>
<totfact> 0.63649656E+04</totfact>
</mgrwt>
</event>
<event>
 7    0  0.4712189E-002  0.4558037E+03  0.7546771E-02  0.1026005E+00
         21   -1    0    0  502  501  0.00000000000E+00  0.00000000000E+00  0.15784427854E+03  0.15784427854E+03  0.00000000000E+00 0.  1.
         21   -1    0    0  501  502 -0.00000000000E+00 -0.00000000000E+00 -0.32905380025E+03  0.32905380025E+03  0.00000000000E+00 0.  1.
      99926    2    1    2    0    0  0.00000000000E+00  0.00000000000E+00 -0.17120952171E+03  0.48689807879E+03  0.45580372838E+03 0.  0.
      99925    2    3    3    0    0 -0.34773890303E+02  0.99594746993E+02 -0.62821880747E+02  0.29062346023E+03  0.26341425523E+03 0.  0.
         25    1    3    3    0    0  0.34773890303E+02 -0.99594746993E+02 -0.10838764097E+03  0.19627461856E+03  0.12509000000E+03 0.  0.
         25    1    4    4    0    0 -0.18883621273E+02  0.87039023901E+02 -0.11771598138E+02  0.15400799154E+03  0.12509000000E+03 0.  0.
         25    1    4    4    0    0 -0.15890269030E+02  0.12555723093E+02 -0.51050282609E+02  0.13661546869E+03  0.12509000000E+03 0.  0.
<mgrwt>
<rscale>  2 0.45580373E+03</rscale>
<asrwt>0</asrwt>
<pdfrwt beam="1">  1       21 0.23212394E-01 0.45580373E+03</pdfrwt>
<pdfrwt beam="2">  1       21 0.48390264E-01 0.45580373E+03</pdfrwt>
<totfact> 0.65780589E+04</totfact>
</mgrwt>
</event>
<event>
 7    0  0.4712189E-002  0.4557206E+03  0.7546771E-02  0.1026030E+00
         21   -1    0    0  502  501  0.00000000000E+00  0.00000000000E+00  0.34995556538E+03  0.34995556538E+03  0.00000000000E+00 0. -1.
         21   -1    0    0  501  502 -0.00000000000E+00 -0.00000000000E+00 -0.14836262292E+03  0.14836262292E+03  0.00000000000E+00 0. -1.
      99926    2    1    2    0    0 -0.88817841970E-15  0.00000000000E+00  0.20159294246E+03  0.49831818830E+03  0.45572064068E+03 0.  0.
      99925    2    3    3    0    0  0.33496195043E+01  0.86715447744E+02  0.46166240595E+02  0.28075036766E+03  0.26298033831E+03 0.  0.
         25    1    4    4    0    0 -0.30641772388E+02  0.39639743696E+02 -0.17258075686E+01  0.13476169340E+03  0.12509000000E+03 0.  0.
         25    1    3    3    0    0 -0.33496195043E+01 -0.86715447744E+02  0.15542670187E+03  0.21756782065E+03  0.12509000000E+03 0.  0.
         25    1    4    4    0    0  0.33991391893E+02  0.47075704048E+02  0.47892048164E+02  0.14598867426E+03  0.12509000000E+03 0.  0.
<mgrwt>
<rscale>  2 0.45572064E+03</rscale>
<asrwt>0</asrwt>
<pdfrwt beam="1">  1       21 0.51464054E-01 0.45572064E+03</pdfrwt>
<pdfrwt beam="2">  1       21 0.21818033E-01 0.45572064E+03</pdfrwt>
<totfact> 0.65016241E+04</totfact>
</mgrwt>
</event>
<event>
 7    0  0.4712189E-002  0.4577395E+03  0.7546771E-02  0.1025439E+00
         21   -1    0    0  502  501  0.00000000000E+00  0.00000000000E+00  0.48075557369E+02  0.48075557369E+02  0.00000000000E+00 0.  1.
         21   -1    0    0  501  502 -0.00000000000E+00 -0.00000000000E+00 -0.10895631221E+04  0.10895631221E+04  0.00000000000E+00 0.  1.
      99926    2    1    2    0    0  0.00000000000E+00  0.00000000000E+00 -0.10414875647E+04  0.11376386794E+04  0.45773946468E+03 0.  0.
      99925    2    3    3    0    0  0.31574194756E+02 -0.91122201926E+02 -0.49496144465E+03  0.56874634036E+03  0.26303114365E+03 0.  0.
         25    1    4    4    0    0 -0.17208415444E+02 -0.29703990017E+02 -0.27176022038E+03  0.30113050670E+03  0.12509000000E+03 0.  0.
         25    1    3    3    0    0 -0.31574194756E+02  0.91122201926E+02 -0.54652612006E+03  0.56889233908E+03  0.12509000000E+03 0.  0.
         25    1    4    4    0    0  0.48782610199E+02 -0.61418211909E+02 -0.22320122427E+03  0.26761583366E+03  0.12509000000E+03 0.  0.
<mgrwt>
<rscale>  2 0.45773946E+03</rscale>
<asrwt>0</asrwt>
<pdfrwt beam="1">  1       21 0.70699345E-02 0.45773946E+03</pdfrwt>
<pdfrwt beam="2">  1       21 0.16022988E+00 0.45773946E+03</pdfrwt>
<totfact> 0.33477196E+04</totfact>
</mgrwt>
</event>
<event>
 7    0  0.4712189E-002  0.4591385E+03  0.7546771E-02  0.1025031E+00
         21   -1    0    0  502  501  0.00000000000E+00  0.00000000000E+00  0.36218730801E+03  0.36218730801E+03  0.00000000000E+00 0.  1.
         21   -1    0    0  501  502 -0.00000000000E+00 -0.00000000000E+00 -0.14551042572E+03  0.14551042572E+03  0.00000000000E+00 0.  1.
      99926    2    1    2    0    0 -0.88817841970E-15 -0.71054273576E-14  0.21667688228E+03  0.50769773373E+03  0.45913845136E+03 0.  0.
      99925    2    3    3    0    0  0.59926812671E+01 -0.31389419297E+02  0.11428751275E+02  0.26521987649E+03  0.26303946216E+03 0.  0.
         25    1    3    3    0    0 -0.59926812671E+01  0.31389419297E+02  0.20524813101E+03  0.24247785725E+03  0.12509000000E+03 0.  0.
         25    1    4    4    0    0 -0.15002266591E+02  0.28047294891E+01  0.37103844823E+02  0.13136642612E+03  0.12509000000E+03 0.  0.
         25    1    4    4    0    0  0.20994947858E+02 -0.34194148786E+02 -0.25675093548E+02  0.13385345037E+03  0.12509000000E+03 0.  0.
<mgrwt>
<rscale>  2 0.45913845E+03</rscale>
<asrwt>0</asrwt>
<pdfrwt beam="1">  1       21 0.53262839E-01 0.45913845E+03</pdfrwt>
<pdfrwt beam="2">  1       21 0.21398592E-01 0.45913845E+03</pdfrwt>
<totfact> 0.62649845E+04</totfact>
</mgrwt>
</event>
<event>
 7    0  0.4712189E-002  0.4045398E+03  0.7546771E-02  0.1042219E+00
         21   -1    0    0  502  501  0.00000000000E+00  0.00000000000E+00  0.11430266984E+03  0.11430266984E+03  0.00000000000E+00 0. -1.
         21   -1    0    0  501  502 -0.00000000000E+00 -0.00000000000E+00 -0.35793664210E+03  0.35793664210E+03  0.00000000000E+00 0. -1.
      99926    2    1    2    0    0 -0.35527136788E-14 -0.71054273576E-14 -0.24363397226E+03  0.47223931194E+03  0.40453980682E+03 0.  0.
      99925    2    3    3    0    0  0.28522455687E+02  0.38121944082E+02 -0.13307454137E+03  0.29863715481E+03  0.26307509113E+03 0.  0.
         25    1    4    4    0    0  0.33367361492E+02 -0.13429726342E+02 -0.47917044932E+02  0.13869855680E+03  0.12509000000E+03 0.  0.
         25    1    3    3    0    0 -0.28522455687E+02 -0.38121944082E+02 -0.11055943090E+03  0.17360215713E+03  0.12509000000E+03 0.  0.
         25    1    4    4    0    0 -0.48449058049E+01  0.51551670424E+02 -0.85157496436E+02  0.15993859802E+03  0.12509000000E+03 0.  0.
<mgrwt>
<rscale>  2 0.40453981E+03</rscale>
<asrwt>0</asrwt>
<pdfrwt beam="1">  1       21 0.16809216E-01 0.40453981E+03</pdfrwt>
<pdfrwt beam="2">  1       21 0.52637742E-01 0.40453981E+03</pdfrwt>
<totfact> 0.10259127E+05</totfact>
</mgrwt>
</event>
<event>
 7    0  0.4712189E-002  0.4729541E+03  0.7546771E-02  0.1021090E+00
         21   -1    0    0  502  501  0.00000000000E+00  0.00000000000E+00  0.17832604062E+04  0.17832604062E+04  0.00000000000E+00 0.  1.
         21   -1    0    0  501  502 -0.00000000000E+00 -0.00000000000E+00 -0.31359072364E+02  0.31359072364E+02  0.00000000000E+00 0.  1.
      99926    2    1    2    0    0  0.14210854715E-13 -0.71054273576E-14  0.17519013339E+04  0.18146194786E+04  0.47295408709E+03 0.  0.
      99925    2    3    3    0    0 -0.10242490903E+03  0.59653177461E+02  0.88719214642E+03  0.93290589101E+03  0.26297173469E+03 0.  0.
         25    1    4    4    0    0 -0.70040116565E+02  0.96242910681E+01  0.35511072578E+03  0.38307881770E+03  0.12509000000E+03 0.  0.
         25    1    3    3    0    0  0.10242490903E+03 -0.59653177461E+02  0.86470918743E+03  0.88171358757E+03  0.12509000000E+03 0.  0.
         25    1    4    4    0    0 -0.32384792467E+02  0.50028886393E+02  0.53208142064E+03  0.54982707331E+03  0.12509000000E+03 0.  0.
<mgrwt>
<rscale>  2 0.47295409E+03</rscale>
<asrwt>0</asrwt>
<pdfrwt beam="1">  1       21 0.26224411E+00 0.47295409E+03</pdfrwt>
<pdfrwt beam="2">  1       21 0.46116295E-02 0.47295409E+03</pdfrwt>
<totfact> 0.14806406E+04</totfact>
</mgrwt>
</event>
<event>
 7    0  0.4712189E-002  0.4530240E+03  0.7546771E-02  0.1026824E+00
         21   -1    0    0  502  501  0.00000000000E+00  0.00000000000E+00  0.10598209972E+04  0.10598209972E+04  0.00000000000E+00 0. -1.
         21   -1    0    0  501  502 -0.00000000000E+00 -0.00000000000E+00 -0.48411646824E+02  0.48411646824E+02  0.00000000000E+00 0. -1.
      99926    2    1    2    0    0  0.00000000000E+00  0.00000000000E+00  0.10114093504E+04  0.11082326440E+04  0.45302397205E+03 0.  0.
      99925    2    3    3    0    0  0.62268806904E+02 -0.32302417343E+02  0.84896233622E+03  0.89153610277E+03  0.26301848557E+03 0.  0.
         25    1    4    4    0    0 -0.18198256931E+01 -0.37701619649E+02  0.44505981643E+03  0.46384315473E+03  0.12509000000E+03 0.  0.
         25    1    3    3    0    0 -0.62268806904E+02  0.32302417343E+02  0.16244701414E+03  0.21669654123E+03  0.12509000000E+03 0.  0.
         25    1    4    4    0    0  0.64088632597E+02  0.53992023051E+01  0.40390251979E+03  0.42769294804E+03  0.12509000000E+03 0.  0.
<mgrwt>
<rscale>  2 0.45302397E+03</rscale>
<asrwt>0</asrwt>
<pdfrwt beam="1">  1       21 0.15585601E+00 0.45302397E+03</pdfrwt>
<pdfrwt beam="2">  1       21 0.71193605E-02 0.45302397E+03</pdfrwt>
<totfact> 0.35755512E+04</totfact>
</mgrwt>
</event>
<event>
 7    0  0.4712189E-002  0.4547183E+03  0.7546771E-02  0.1026324E+00
         21   -1    0    0  502  501  0.00000000000E+00  0.00000000000E+00  0.13392198309E+04  0.13392198309E+04  0.00000000000E+00 0. -1.
         21   -1    0    0  501  502 -0.00000000000E+00 -0.00000000000E+00 -0.38598722612E+02  0.38598722612E+02  0.00000000000E+00 0. -1.
      99926    2    1    2    0    0  0.00000000000E+00  0.00000000000E+00  0.13006211083E+04  0.13778185535E+04  0.45471826341E+03 0.  0.
      99925    2    3    3    0    0  0.73295337997E+02 -0.80357578757E+02  0.92234796020E+03  0.96482021248E+03  0.26138618112E+03 0.  0.
         25    1    4    4    0    0  0.55487175702E+02 -0.55457132393E+02  0.59510366106E+03  0.61314777640E+03  0.12509000000E+03 0.  0.
         25    1    4    4    0    0  0.17808162295E+02 -0.24900446364E+02  0.32724429915E+03  0.35167243608E+03  0.12509000000E+03 0.  0.
         25    1    3    3    0    0 -0.73295337997E+02  0.80357578757E+02  0.37827314809E+03  0.41299834104E+03  0.12509000000E+03 0.  0.
<mgrwt>
<rscale>  2 0.45471826E+03</rscale>
<asrwt>0</asrwt>
<pdfrwt beam="1">  1       21 0.19694406E+00 0.45471826E+03</pdfrwt>
<pdfrwt beam="2">  1       21 0.56762836E-02 0.45471826E+03</pdfrwt>
<totfact> 0.26988199E+04</totfact>
</mgrwt>
</event>
<event>
 7    0  0.4712189E-002  0.4517476E+03  0.7546771E-02  0.1027202E+00
         21   -1    0    0  502  501  0.00000000000E+00  0.00000000000E+00  0.45433215351E+03  0.45433215351E+03  0.00000000000E+00 0.  1.
         21   -1    0    0  501  502 -0.00000000000E+00 -0.00000000000E+00 -0.11229443431E+03  0.11229443431E+03  0.00000000000E+00 0.  1.
      99926    2    1    2    0    0 -0.71054273576E-14 -0.14210854715E-13  0.34203771920E+03  0.56662658783E+03  0.45174759399E+03 0.  0.
      99925    2    3    3    0    0 -0.48427924764E+02 -0.91833201197E+02  0.26184500692E+03  0.38536164378E+03  0.26298704931E+03 0.  0.
         25    1    4    4    0    0 -0.56388248953E+02 -0.74195530703E+02  0.15122685676E+03  0.21725948012E+03  0.12509000000E+03 0.  0.
         25    1    4    4    0    0  0.79603241899E+01 -0.17637670494E+02  0.11061815016E+03  0.16810216366E+03  0.12509000000E+03 0.  0.
         25    1    3    3    0    0  0.48427924764E+02  0.91833201197E+02  0.80192712279E+02  0.18126494405E+03  0.12509000000E+03 0.  0.
<mgrwt>
<rscale>  2 0.45174759E+03</rscale>
<asrwt>0</asrwt>
<pdfrwt beam="1">  1       21 0.66813551E-01 0.45174759E+03</pdfrwt>
<pdfrwt beam="2">  1       21 0.16513888E-01 0.45174759E+03</pdfrwt>
<totfact> 0.62369834E+04</totfact>
</mgrwt>
</event>
<event>
 7    0  0.4712189E-002  0.4721719E+03  0.7546771E-02  0.1021309E+00
         21   -1    0    0  502  501  0.00000000000E+00  0.00000000000E+00  0.16803277384E+03  0.16803277384E+03  0.00000000000E+00 0.  1.
         21   -1    0    0  501  502 -0.00000000000E+00 -0.00000000000E+00 -0.33170055752E+03  0.33170055752E+03  0.00000000000E+00 0.  1.
      99926    2    1    2    0    0 -0.71054273576E-14  0.00000000000E+00 -0.16366778368E+03  0.49973333136E+03  0.47217185331E+03 0.  0.
      99925    2    3    3    0    0 -0.39295654154E+02 -0.11159121706E+03 -0.15495019649E+03  0.32733770326E+03  0.26295182150E+03 0.  0.
         25    1    4    4    0    0  0.88211634178E+01 -0.82936738010E+02 -0.94233065785E+02  0.17743645122E+03  0.12509000000E+03 0.  0.
         25    1    4    4    0    0 -0.48116817572E+02 -0.28654479046E+02 -0.60717130703E+02  0.14990125204E+03  0.12509000000E+03 0.  0.
         25    1    3    3    0    0  0.39295654154E+02  0.11159121706E+03 -0.87175871948E+01  0.17239562809E+03  0.12509000000E+03 0.  0.
<mgrwt>
<rscale>  2 0.47217185E+03</rscale>
<asrwt>0</asrwt>
<pdfrwt beam="1">  1       21 0.24710702E-01 0.47217185E+03</pdfrwt>
<pdfrwt beam="2">  1       21 0.48779493E-01 0.47217185E+03</pdfrwt>
<totfact> 0.57099609E+04</totfact>
</mgrwt>
</event>
<event>
 7    0  0.4712189E-002  0.4592136E+03  0.7546771E-02  0.1025010E+00
         21   -1    0    0  502  501  0.00000000000E+00  0.00000000000E+00  0.34836077177E+02  0.34836077177E+02  0.00000000000E+00 0. -1.
         21   -1    0    0  501  502 -0.00000000000E+00 -0.00000000000E+00 -0.15133529040E+04  0.15133529040E+04  0.00000000000E+00 0. -1.
      99926    2    1    2    0    0 -0.14210854715E-13  0.00000000000E+00 -0.14785168268E+04  0.15481889812E+04  0.45921358237E+03 0.  0.
      99925    2    3    3    0    0  0.90390372418E+02 -0.68590822574E+02 -0.10248067988E+04  0.10640656312E+04  0.26292883497E+03 0.  0.
         25    1    4    4    0    0  0.76436209797E+02 -0.20795464139E+02 -0.62093878181E+03  0.63834741665E+03  0.12509000000E+03 0.  0.
         25    1    3    3    0    0 -0.90390372418E+02  0.68590822574E+02 -0.45371002802E+03  0.48412334997E+03  0.12509000000E+03 0.  0.
         25    1    4    4    0    0  0.13954162621E+02 -0.47795358436E+02 -0.40386801699E+03  0.42571821454E+03  0.12509000000E+03 0.  0.
<mgrwt>
<rscale>  2 0.45921358E+03</rscale>
<asrwt>0</asrwt>
<pdfrwt beam="1">  1       21 0.51229528E-02 0.45921358E+03</pdfrwt>
<pdfrwt beam="2">  1       21 0.22255189E+00 0.45921358E+03</pdfrwt>
<totfact> 0.21897068E+04</totfact>
</mgrwt>
</event>
<event>
 7    0  0.4712189E-002  0.4511343E+03  0.7546771E-02  0.1027384E+00
         21   -1    0    0  502  501  0.00000000000E+00  0.00000000000E+00  0.95822311909E+02  0.95822311909E+02  0.00000000000E+00 0. -1.
         21   -1    0    0  501  502 -0.00000000000E+00 -0.00000000000E+00 -0.53098853038E+03  0.53098853038E+03  0.00000000000E+00 0. -1.
      99926    2    1    2    0    0  0.71054273576E-14  0.00000000000E+00 -0.43516621847E+03  0.62681084228E+03  0.45113434176E+03 0.  0.
      99925    2    3    3    0    0 -0.34434502933E+02 -0.10081471043E+03 -0.31060883575E+03  0.42062793679E+03  0.26287006587E+03 0.  0.
         25    1    4    4    0    0 -0.39253449345E+02 -0.43242225200E+02 -0.10646770068E+03  0.17433761130E+03  0.12509000000E+03 0.  0.
         25    1    3    3    0    0  0.34434502933E+02  0.10081471043E+03 -0.12455738271E+03  0.20618290550E+03  0.12509000000E+03 0.  0.
         25    1    4    4    0    0  0.48189464119E+01 -0.57572485226E+02 -0.20414113508E+03  0.24629032549E+03  0.12509000000E+03 0.  0.
<mgrwt>
<rscale>  2 0.45113434E+03</rscale>
<asrwt>0</asrwt>
<pdfrwt beam="1">  1       21 0.14091516E-01 0.45113434E+03</pdfrwt>
<pdfrwt beam="2">  1       21 0.78086549E-01 0.45113434E+03</pdfrwt>
<totfact> 0.58832607E+04</totfact>
</mgrwt>
</event>
<event>
 7    0  0.4712189E-002  0.4489615E+03  0.7546771E-02  0.1028032E+00
         21   -1    0    0  502  501  0.00000000000E+00  0.00000000000E+00  0.48496054533E+02  0.48496054533E+02  0.00000000000E+00 0.  1.
         21   -1    0    0  501  502 -0.00000000000E+00 -0.00000000000E+00 -0.10390867767E+04  0.10390867767E+04  0.00000000000E+00 0.  1.
      99926    2    1    2    0    0  0.71054273576E-14 -0.22204460493E-15 -0.99059072219E+03  0.10875828313E+04  0.44896150832E+03 0.  0.
      99925    2    3    3    0    0 -0.59053419565E+02 -0.14139074679E+01 -0.84415224163E+03  0.88613546298E+03  0.26297099879E+03 0.  0.
         25    1    4    4    0    0 -0.69418063099E+02 -0.10639743970E+02 -0.46709032990E+03  0.48862353200E+03  0.12509000000E+03 0.  0.
         25    1    4    4    0    0  0.10364643534E+02  0.92258365020E+01 -0.37706191173E+03  0.39751193098E+03  0.12509000000E+03 0.  0.
         25    1    3    3    0    0  0.59053419565E+02  0.14139074679E+01 -0.14643848055E+03  0.20144736827E+03  0.12509000000E+03 0.  0.
<mgrwt>
<rscale>  2 0.44896151E+03</rscale>
<asrwt>0</asrwt>
<pdfrwt beam="1">  1       21 0.71317726E-02 0.44896151E+03</pdfrwt>
<pdfrwt beam="2">  1       21 0.15280688E+00 0.44896151E+03</pdfrwt>
<totfact> 0.37671558E+04</totfact>
</mgrwt>
</event>
<event>
 7    0  0.4712189E-002  0.4377884E+03  0.7546771E-02  0.1031428E+00
         21   -1    0    0  502  501  0.00000000000E+00  0.00000000000E+00  0.20267609515E+03  0.20267609515E+03  0.00000000000E+00 0. -1.
         21   -1    0    0  501  502 -0.00000000000E+00 -0.00000000000E+00 -0.23641004476E+03  0.23641004476E+03  0.00000000000E+00 0. -1.
      99926    2    1    2    0    0  0.00000000000E+00  0.00000000000E+00 -0.33733949617E+02  0.43908613991E+03  0.43778837228E+03 0.  0.
      99925    2    3    3    0    0 -0.38054077802E+02 -0.20495011910E+02 -0.10763783390E+03  0.28750299255E+03  0.26306635872E+03 0.  0.
         25    1    4    4    0    0 -0.20245467248E+02 -0.49039767287E+02 -0.41575929592E+02  0.14209448878E+03  0.12509000000E+03 0.  0.
         25    1    3    3    0    0  0.38054077802E+02  0.20495011910E+02  0.73903884283E+02  0.15158314736E+03  0.12509000000E+03 0.  0.
         25    1    4    4    0    0 -0.17808610554E+02  0.28544755378E+02 -0.66061904308E+02  0.14540850378E+03  0.12509000000E+03 0.  0.
<mgrwt>
<rscale>  2 0.43778837E+03</rscale>
<asrwt>0</asrwt>
<pdfrwt beam="1">  1       21 0.29805308E-01 0.43778837E+03</pdfrwt>
<pdfrwt beam="2">  1       21 0.34766183E-01 0.43778837E+03</pdfrwt>
<totfact> 0.80186574E+04</totfact>
</mgrwt>
</event>
<event>
 7    0  0.4712189E-002  0.4419952E+03  0.7546771E-02  0.1030136E+00
         21   -1    0    0  502  501  0.00000000000E+00  0.00000000000E+00  0.34604839848E+03  0.34604839848E+03  0.00000000000E+00 0. -1.
         21   -1    0    0  501  502 -0.00000000000E+00 -0.00000000000E+00 -0.14113618062E+03  0.14113618062E+03  0.00000000000E+00 0. -1.
      99926    2    1    2    0    0 -0.17763568394E-14  0.00000000000E+00  0.20491221786E+03  0.48718457910E+03  0.44199524554E+03 0.  0.
      99925    2    3    3    0    0 -0.15114115239E+02  0.95789775487E+02  0.15958671733E+03  0.32254549909E+03  0.26298965962E+03 0.  0.
         25    1    3    3    0    0  0.15114115239E+02 -0.95789775487E+02  0.45325500528E+02  0.16463908001E+03  0.12509000000E+03 0.  0.
         25    1    4    4    0    0 -0.41369049001E+02  0.62248626685E+02  0.62425518358E+02  0.15852679011E+03  0.12509000000E+03 0.  0.
         25    1    4    4    0    0  0.26254933762E+02  0.33541148802E+02  0.97161198976E+02  0.16401870898E+03  0.12509000000E+03 0.  0.
<mgrwt>
<rscale>  2 0.44199525E+03</rscale>
<asrwt>0</asrwt>
<pdfrwt beam="1">  1       21 0.50889470E-01 0.44199525E+03</pdfrwt>
<pdfrwt beam="2">  1       21 0.20755321E-01 0.44199525E+03</pdfrwt>
<totfact> 0.73478516E+04</totfact>
</mgrwt>
</event>
<event>
 7    0  0.4712189E-002  0.4557123E+03  0.7546771E-02  0.1026032E+00
         21   -1    0    0  502  501  0.00000000000E+00  0.00000000000E+00  0.29596285916E+02  0.29596285916E+02  0.00000000000E+00 0.  1.
         21   -1    0    0  501  502 -0.00000000000E+00 -0.00000000000E+00 -0.17542209017E+04  0.17542209017E+04  0.00000000000E+00 0.  1.
      99926    2    1    2    0    0  0.00000000000E+00  0.00000000000E+00 -0.17246246158E+04  0.17838171876E+04  0.45571229242E+03 0.  0.
      99925    2    3    3    0    0  0.30187545783E+02 -0.10902811613E+03 -0.10347309704E+04  0.10736065371E+04  0.26299124972E+03 0.  0.
         25    1    4    4    0    0 -0.10066034257E+02 -0.79751672698E+02 -0.61955545985E+03  0.63714843661E+03  0.12509000000E+03 0.  0.
         25    1    3    3    0    0 -0.30187545783E+02  0.10902811613E+03 -0.68989364540E+03  0.71021065050E+03  0.12509000000E+03 0.  0.
         25    1    4    4    0    0  0.40253580039E+02 -0.29276443434E+02 -0.41517551052E+03  0.43645810049E+03  0.12509000000E+03 0.  0.
<mgrwt>
<rscale>  2 0.45571229E+03</rscale>
<asrwt>0</asrwt>
<pdfrwt beam="1">  1       21 0.43523947E-02 0.45571229E+03</pdfrwt>
<pdfrwt beam="2">  1       21 0.25797368E+00 0.45571229E+03</pdfrwt>
<totfact> 0.17475630E+04</totfact>
</mgrwt>
</event>
<event>
 7    0  0.4712189E-002  0.4552886E+03  0.7546771E-02  0.1026157E+00
         21   -1    0    0  502  501  0.00000000000E+00  0.00000000000E+00  0.34558923300E+03  0.34558923300E+03  0.00000000000E+00 0. -1.
         21   -1    0    0  501  502 -0.00000000000E+00 -0.00000000000E+00 -0.14995237049E+03  0.14995237049E+03  0.00000000000E+00 0. -1.
      99926    2    1    2    0    0  0.00000000000E+00  0.17763568394E-14  0.19563686251E+03  0.49554160349E+03  0.45528858849E+03 0.  0.
      99925    2    3    3    0    0  0.10998384808E+03 -0.11350007589E+02  0.15066835097E+03  0.32264005739E+03  0.26300263334E+03 0.  0.
         25    1    4    4    0    0  0.57444420224E+02 -0.24712397547E+02  0.11668603639E+03  0.18213649606E+03  0.12509000000E+03 0.  0.
         25    1    3    3    0    0 -0.10998384808E+03  0.11350007589E+02  0.44968511544E+02  0.17290154609E+03  0.12509000000E+03 0.  0.
         25    1    4    4    0    0  0.52539427853E+02  0.13362389958E+02  0.33982314575E+02  0.14050356134E+03  0.12509000000E+03 0.  0.
<mgrwt>
<rscale>  2 0.45528859E+03</rscale>
<asrwt>0</asrwt>
<pdfrwt beam="1">  1       21 0.50821946E-01 0.45528859E+03</pdfrwt>
<pdfrwt beam="2">  1       21 0.22051819E-01 0.45528859E+03</pdfrwt>
<totfact> 0.65434983E+04</totfact>
</mgrwt>
</event>
<event>
 7    0  0.4712189E-002  0.4562419E+03  0.7546771E-02  0.1025877E+00
         21   -1    0    0  502  501  0.00000000000E+00  0.00000000000E+00  0.29708412943E+03  0.29708412943E+03  0.00000000000E+00 0. -1.
         21   -1    0    0  501  502 -0.00000000000E+00 -0.00000000000E+00 -0.17516645487E+03  0.17516645487E+03  0.00000000000E+00 0. -1.
      99926    2    1    2    0    0  0.14210854715E-13 -0.35527136788E-14  0.12191767456E+03  0.47225058430E+03  0.45624192596E+03 0.  0.
      99925    2    3    3    0    0 -0.70880365290E+02 -0.17107239706E+02  0.16770374208E+03  0.32039355972E+03  0.26307946361E+03 0.  0.
         25    1    4    4    0    0 -0.73380607844E+01 -0.36468952531E+02  0.93137115596E+02  0.16033047757E+03  0.12509000000E+03 0.  0.
         25    1    4    4    0    0 -0.63542304505E+02  0.19361712824E+02  0.74566626483E+02  0.16006308216E+03  0.12509000000E+03 0.  0.
         25    1    3    3    0    0  0.70880365290E+02  0.17107239706E+02 -0.45786067516E+02  0.15185702457E+03  0.12509000000E+03 0.  0.
<mgrwt>
<rscale>  2 0.45624193E+03</rscale>
<asrwt>0</asrwt>
<pdfrwt beam="1">  1       21 0.43688843E-01 0.45624193E+03</pdfrwt>
<pdfrwt beam="2">  1       21 0.25759773E-01 0.45624193E+03</pdfrwt>
<totfact> 0.66609984E+04</totfact>
</mgrwt>
</event>
<event>
 7    0  0.4712189E-002  0.4561037E+03  0.7546771E-02  0.1025917E+00
         21   -1    0    0  502  501  0.00000000000E+00  0.00000000000E+00  0.36908901100E+03  0.36908901100E+03  0.00000000000E+00 0. -1.
         21   -1    0    0  501  502 -0.00000000000E+00 -0.00000000000E+00 -0.14090815344E+03  0.14090815344E+03  0.00000000000E+00 0. -1.
      99926    2    1    2    0    0 -0.14210854715E-13  0.00000000000E+00  0.22818085757E+03  0.50999716444E+03  0.45610372063E+03 0.  0.
      99925    2    3    3    0    0 -0.70023412683E+02 -0.33036614736E+02  0.49367455028E+02  0.27844493002E+03  0.26286828869E+03 0.  0.
         25    1    4    4    0    0  0.46523767290E+01 -0.19341950598E+02  0.10804413196E+02  0.12712198514E+03  0.12509000000E+03 0.  0.
         25    1    3    3    0    0  0.70023412683E+02  0.33036614736E+02  0.17881340254E+03  0.23155223442E+03  0.12509000000E+03 0.  0.
         25    1    4    4    0    0 -0.74675789412E+02 -0.13694664138E+02  0.38563041832E+02  0.15132294487E+03  0.12509000000E+03 0.  0.
<mgrwt>
<rscale>  2 0.45610372E+03</rscale>
<asrwt>0</asrwt>
<pdfrwt beam="1">  1       21 0.54277796E-01 0.45610372E+03</pdfrwt>
<pdfrwt beam="2">  1       21 0.20721787E-01 0.45610372E+03</pdfrwt>
<totfact> 0.64011328E+04</totfact>
</mgrwt>
</event>
<event>
 7    0  0.4712189E-002  0.4509368E+03  0.7546771E-02  0.1027443E+00
         21   -1    0    0  502  501  0.00000000000E+00  0.00000000000E+00  0.48746758588E+02  0.48746758588E+02  0.00000000000E+00 0.  1.
         21   -1    0    0  501  502 -0.00000000000E+00 -0.00000000000E+00 -0.10428589274E+04  0.10428589274E+04  0.00000000000E+00 0.  1.
      99926    2    1    2    0    0  0.14210854715E-13  0.17763568394E-14 -0.99411216879E+03  0.10916056860E+04  0.45093676884E+03 0.  0.
      99925    2    3    3    0    0 -0.10863042321E+03 -0.11764800541E+02 -0.63456564827E+03  0.69554989709E+03  0.26301543302E+03 0.  0.
         25    1    3    3    0    0  0.10863042321E+03  0.11764800541E+02 -0.35954652053E+03  0.39605578888E+03  0.12509000000E+03 0.  0.
         25    1    4    4    0    0 -0.71698186520E+02  0.24644841347E+02 -0.27792985897E+03  0.31407087220E+03  0.12509000000E+03 0.  0.
         25    1    4    4    0    0 -0.36932236689E+02 -0.36409641888E+02 -0.35663578929E+03  0.38147902489E+03  0.12509000000E+03 0.  0.
<mgrwt>
<rscale>  2 0.45093677E+03</rscale>
<asrwt>0</asrwt>
<pdfrwt beam="1">  1       21 0.71686410E-02 0.45093677E+03</pdfrwt>
<pdfrwt beam="2">  1       21 0.15336161E+00 0.45093677E+03</pdfrwt>
<totfact> 0.36944008E+04</totfact>
</mgrwt>
</event>
<event>
 7    0  0.4712189E-002  0.4514759E+03  0.7546771E-02  0.1027283E+00
         21   -1    0    0  502  501  0.00000000000E+00  0.00000000000E+00  0.16668977484E+03  0.16668977484E+03  0.00000000000E+00 0.  1.
         21   -1    0    0  501  502 -0.00000000000E+00 -0.00000000000E+00 -0.30570335672E+03  0.30570335672E+03  0.00000000000E+00 0.  1.
      99926    2    1    2    0    0 -0.14210854715E-13 -0.88817841970E-15 -0.13901358188E+03  0.47239313157E+03  0.45147590723E+03 0.  0.
      99925    2    3    3    0    0 -0.94007084986E+02 -0.70677213036E+01 -0.14710342607E+03  0.31554850019E+03  0.26276254166E+03 0.  0.
         25    1    4    4    0    0 -0.10511382223E+02  0.17591558523E+02 -0.66676382425E+02  0.14322430018E+03  0.12509000000E+03 0.  0.
         25    1    3    3    0    0  0.94007084986E+02  0.70677213036E+01  0.80898441932E+01  0.15684463137E+03  0.12509000000E+03 0.  0.
         25    1    4    4    0    0 -0.83495702763E+02 -0.24659279827E+02 -0.80427043649E+02  0.17232420002E+03  0.12509000000E+03 0.  0.
<mgrwt>
<rscale>  2 0.45147591E+03</rscale>
<asrwt>0</asrwt>
<pdfrwt beam="1">  1       21 0.24513202E-01 0.45147591E+03</pdfrwt>
<pdfrwt beam="2">  1       21 0.44956376E-01 0.45147591E+03</pdfrwt>
<totfact> 0.69172462E+04</totfact>
</mgrwt>
</event>
<event>
 7    0  0.4712189E-002  0.4560750E+03  0.7546771E-02  0.1025926E+00
         21   -1    0    0  502  501  0.00000000000E+00  0.00000000000E+00  0.25112237304E+03  0.25112237304E+03  0.00000000000E+00 0.  1.
         21   -1    0    0  501  502 -0.00000000000E+00 -0.00000000000E+00 -0.20707471892E+03  0.20707471892E+03  0.00000000000E+00 0.  1.
      99926    2    1    2    0    0  0.00000000000E+00  0.17763568394E-14  0.44047654117E+02  0.45819709196E+03  0.45607497109E+03 0.  0.
      99925    2    3    3    0    0 -0.11254626588E+03 -0.13781194895E+01  0.80127255163E+01  0.28610820402E+03  0.26291660172E+03 0.  0.
         25    1    4    4    0    0 -0.16184940325E+02 -0.17182552771E+02  0.45909939063E+01  0.12738044488E+03  0.12509000000E+03 0.  0.
         25    1    3    3    0    0  0.11254626588E+03  0.13781194895E+01  0.36034928601E+02  0.17208888795E+03  0.12509000000E+03 0.  0.
         25    1    4    4    0    0 -0.96361325550E+02  0.15804433281E+02  0.34217316101E+01  0.15872775914E+03  0.12509000000E+03 0.  0.
<mgrwt>
<rscale>  2 0.45607497E+03</rscale>
<asrwt>0</asrwt>
<pdfrwt beam="1">  1       21 0.36929761E-01 0.45607497E+03</pdfrwt>
<pdfrwt beam="2">  1       21 0.30452165E-01 0.45607497E+03</pdfrwt>
<totfact> 0.67729445E+04</totfact>
</mgrwt>
</event>
<event>
 7    0  0.4712189E-002  0.4560130E+03  0.7546771E-02  0.1025944E+00
         21   -1    0    0  502  501  0.00000000000E+00  0.00000000000E+00  0.50578025741E+03  0.50578025741E+03  0.00000000000E+00 0.  1.
         21   -1    0    0  501  502 -0.00000000000E+00 -0.00000000000E+00 -0.10278566840E+03  0.10278566840E+03  0.00000000000E+00 0.  1.
      99926    2    1    2    0    0 -0.35527136788E-14  0.00000000000E+00  0.40299458901E+03  0.60856592582E+03  0.45601299027E+03 0.  0.
      99925    2    3    3    0    0 -0.27164791548E+02 -0.79121082256E+02  0.14991489656E+03  0.31412593127E+03  0.26306378110E+03 0.  0.
         25    1    4    4    0    0 -0.14044292652E+02  0.97116538847E+00  0.55017182165E+02  0.13737752273E+03  0.12509000000E+03 0.  0.
         25    1    4    4    0    0 -0.13120498896E+02 -0.80092247644E+02  0.94897714398E+02  0.17674840854E+03  0.12509000000E+03 0.  0.
         25    1    3    3    0    0  0.27164791548E+02  0.79121082256E+02  0.25307969245E+03  0.29443999454E+03  0.12509000000E+03 0.  0.
<mgrwt>
<rscale>  2 0.45601299E+03</rscale>
<asrwt>0</asrwt>
<pdfrwt beam="1">  1       21 0.74379449E-01 0.45601299E+03</pdfrwt>
<pdfrwt beam="2">  1       21 0.15115540E-01 0.45601299E+03</pdfrwt>
<totfact> 0.57691061E+04</totfact>
</mgrwt>
</event>
<event>
 7    0  0.4712189E-002  0.4508672E+03  0.7546771E-02  0.1027464E+00
         21   -1    0    0  502  501  0.00000000000E+00  0.00000000000E+00  0.73674292943E+02  0.73674292943E+02  0.00000000000E+00 0. -1.
         21   -1    0    0  501  502 -0.00000000000E+00 -0.00000000000E+00 -0.68979702632E+03  0.68979702632E+03  0.00000000000E+00 0. -1.
      99926    2    1    2    0    0  0.17763568394E-14  0.88817841970E-15 -0.61612273338E+03  0.76347131927E+03  0.45086720080E+03 0.  0.
      99925    2    3    3    0    0  0.96825729517E+01  0.40549106593E+01 -0.20407537255E+03  0.33272692849E+03  0.26258380898E+03 0.  0.
         25    1    3    3    0    0 -0.96825729517E+01 -0.40549106593E+01 -0.41204736083E+03  0.43074439078E+03  0.12509000000E+03 0.  0.
         25    1    4    4    0    0 -0.26536664854E+02  0.23345940530E+02 -0.85801719022E+02  0.15575195218E+03  0.12509000000E+03 0.  0.
         25    1    4    4    0    0  0.36219237806E+02 -0.19291029870E+02 -0.11827365353E+03  0.17697497631E+03  0.12509000000E+03 0.  0.
<mgrwt>
<rscale>  2 0.45086720E+03</rscale>
<asrwt>0</asrwt>
<pdfrwt beam="1">  1       21 0.10834455E-01 0.45086720E+03</pdfrwt>
<pdfrwt beam="2">  1       21 0.10144074E+00 0.45086720E+03</pdfrwt>
<totfact> 0.51224062E+04</totfact>
</mgrwt>
</event>
<event>
 7    0  0.4712189E-002  0.4503327E+03  0.7546771E-02  0.1027623E+00
         21   -1    0    0  502  501  0.00000000000E+00  0.00000000000E+00  0.15335411693E+04  0.15335411693E+04  0.00000000000E+00 0. -1.
         21   -1    0    0  501  502 -0.00000000000E+00 -0.00000000000E+00 -0.33060655072E+02  0.33060655072E+02  0.00000000000E+00 0. -1.
      99926    2    1    2    0    0 -0.88817841970E-15  0.14210854715E-13  0.15004805143E+04  0.15666018244E+04  0.45033265766E+03 0.  0.
      99925    2    3    3    0    0  0.47386920152E+01 -0.81805730763E+02  0.69972179122E+03  0.75199966788E+03  0.26301764693E+03 0.  0.
         25    1    4    4    0    0 -0.34244610821E+02 -0.36763982196E+02  0.29842986413E+03  0.32746324322E+03  0.12509000000E+03 0.  0.
         25    1    4    4    0    0  0.38983302837E+02 -0.45041748567E+02  0.40129192709E+03  0.42453642465E+03  0.12509000000E+03 0.  0.
         25    1    3    3    0    0 -0.47386920152E+01  0.81805730763E+02  0.80075872303E+03  0.81460215652E+03  0.12509000000E+03 0.  0.
<mgrwt>
<rscale>  2 0.45033266E+03</rscale>
<asrwt>0</asrwt>
<pdfrwt beam="1">  1       21 0.22552071E+00 0.45033266E+03</pdfrwt>
<pdfrwt beam="2">  1       21 0.48618621E-02 0.45033266E+03</pdfrwt>
<totfact> 0.23016070E+04</totfact>
</mgrwt>
</event>
<event>
 7    0  0.4712189E-002  0.4577970E+03  0.7546771E-02  0.1025422E+00
         21   -1    0    0  502  501  0.00000000000E+00  0.00000000000E+00  0.94017892523E+02  0.94017892523E+02  0.00000000000E+00 0. -1.
         21   -1    0    0  501  502 -0.00000000000E+00 -0.00000000000E+00 -0.55728256573E+03  0.55728256573E+03  0.00000000000E+00 0. -1.
      99926    2    1    2    0    0  0.00000000000E+00  0.00000000000E+00 -0.46326467321E+03  0.65130045825E+03  0.45779703961E+03 0.  0.
      99925    2    3    3    0    0 -0.11078029010E+03 -0.27906392240E+02 -0.26430482329E+03  0.38998920824E+03  0.26302757180E+03 0.  0.
         25    1    4    4    0    0 -0.48145234155E+02  0.22219599613E+02 -0.10172347157E+03  0.16972579930E+03  0.12509000000E+03 0.  0.
         25    1    3    3    0    0  0.11078029010E+03  0.27906392240E+02 -0.19895984992E+03  0.26131125002E+03  0.12509000000E+03 0.  0.
         25    1    4    4    0    0 -0.62635055949E+02 -0.50125991853E+02 -0.16258135171E+03  0.22026340894E+03  0.12509000000E+03 0.  0.
<mgrwt>
<rscale>  2 0.45779704E+03</rscale>
<asrwt>0</asrwt>
<pdfrwt beam="1">  1       21 0.13826161E-01 0.45779704E+03</pdfrwt>
<pdfrwt beam="2">  1       21 0.81953318E-01 0.45779704E+03</pdfrwt>
<totfact> 0.54415952E+04</totfact>
</mgrwt>
</event>
<event>
 7    0  0.4712189E-002  0.4503804E+03  0.7546771E-02  0.1027609E+00
         21   -1    0    0  502  501  0.00000000000E+00  0.00000000000E+00  0.12656212151E+03  0.12656212151E+03  0.00000000000E+00 0. -1.
         21   -1    0    0  501  502 -0.00000000000E+00 -0.00000000000E+00 -0.40067769399E+03  0.40067769399E+03  0.00000000000E+00 0. -1.
      99926    2    1    2    0    0  0.00000000000E+00  0.00000000000E+00 -0.27411557249E+03  0.52723981550E+03  0.45038036810E+03 0.  0.
      99925    2    3    3    0    0 -0.10398125720E+03 -0.28037444321E+02 -0.15104505216E+03  0.32134649068E+03  0.26239428186E+03 0.  0.
         25    1    3    3    0    0  0.10398125720E+03  0.28037444321E+02 -0.12307052033E+03  0.20589332482E+03  0.12509000000E+03 0.  0.
         25    1    4    4    0    0 -0.72591067890E+02  0.78126920548E+01 -0.10822626605E+03  0.18080634407E+03  0.12509000000E+03 0.  0.
         25    1    4    4    0    0 -0.31390189314E+02 -0.35850136376E+02 -0.42818786116E+02  0.14054014661E+03  0.12509000000E+03 0.  0.
<mgrwt>
<rscale>  2 0.45038037E+03</rscale>
<asrwt>0</asrwt>
<pdfrwt beam="1">  1       21 0.18612077E-01 0.45038037E+03</pdfrwt>
<pdfrwt beam="2">  1       21 0.58923191E-01 0.45038037E+03</pdfrwt>
<totfact> 0.65768457E+04</totfact>
</mgrwt>
</event>
<event>
 7    0  0.4712189E-002  0.4415194E+03  0.7546771E-02  0.1030282E+00
         21   -1    0    0  502  501  0.00000000000E+00  0.00000000000E+00  0.92273904818E+03  0.92273904818E+03  0.00000000000E+00 0. -1.
         21   -1    0    0  501  502 -0.00000000000E+00 -0.00000000000E+00 -0.52815418633E+02  0.52815418633E+02  0.00000000000E+00 0. -1.
      99926    2    1    2    0    0  0.00000000000E+00  0.00000000000E+00  0.86992362955E+03  0.97555446681E+03  0.44151941801E+03 0.  0.
      99925    2    3    3    0    0 -0.26078095277E+02 -0.93798625032E+02  0.50531079207E+03  0.57797645124E+03  0.26313405804E+03 0.  0.
         25    1    4    4    0    0  0.27463522367E+02 -0.52004053586E+02  0.24831753506E+03  0.28419671527E+03  0.12509000000E+03 0.  0.
         25    1    4    4    0    0 -0.53541617643E+02 -0.41794571446E+02  0.25699325701E+03  0.29377973598E+03  0.12509000000E+03 0.  0.
         25    1    3    3    0    0  0.26078095277E+02  0.93798625032E+02  0.36461283748E+03  0.39757801557E+03  0.12509000000E+03 0.  0.
<mgrwt>
<rscale>  2 0.44151942E+03</rscale>
<asrwt>0</asrwt>
<pdfrwt beam="1">  1       21 0.13569691E+00 0.44151942E+03</pdfrwt>
<pdfrwt beam="2">  1       21 0.77669739E-02 0.44151942E+03</pdfrwt>
<totfact> 0.44645294E+04</totfact>
</mgrwt>
</event>
<event>
 7    0  0.4712189E-002  0.4514039E+03  0.7546771E-02  0.1027304E+00
         21   -1    0    0  502  501  0.00000000000E+00  0.00000000000E+00  0.12138064780E+04  0.12138064780E+04  0.00000000000E+00 0.  1.
         21   -1    0    0  501  502 -0.00000000000E+00 -0.00000000000E+00 -0.41968282815E+02  0.41968282815E+02  0.00000000000E+00 0.  1.
      99926    2    1    2    0    0  0.71054273576E-14  0.00000000000E+00  0.11718381952E+04  0.12557747608E+04  0.45140391470E+03 0.  0.
      99925    2    3    3    0    0  0.57510029614E+02  0.87241838372E+02  0.83310818006E+03  0.87987042044E+03  0.26302884862E+03 0.  0.
         25    1    4    4    0    0  0.21519130866E+02  0.51905920951E+02  0.29819276775E+03  0.32821293768E+03  0.12509000000E+03 0.  0.
         25    1    3    3    0    0 -0.57510029614E+02 -0.87241838372E+02  0.33873001512E+03  0.37590434037E+03  0.12509000000E+03 0.  0.
         25    1    4    4    0    0  0.35990898749E+02  0.35335917421E+02  0.53491541231E+03  0.55165748276E+03  0.12509000000E+03 0.  0.
<mgrwt>
<rscale>  2 0.45140391E+03</rscale>
<asrwt>0</asrwt>
<pdfrwt beam="1">  1       21 0.17850093E+00 0.45140391E+03</pdfrwt>
<pdfrwt beam="2">  1       21 0.61718071E-02 0.45140391E+03</pdfrwt>
<totfact> 0.31293433E+04</totfact>
</mgrwt>
</event>
<event>
 7    0  0.4712189E-002  0.4598431E+03  0.7546771E-02  0.1024827E+00
         21   -1    0    0  502  501  0.00000000000E+00  0.00000000000E+00  0.23907135933E+03  0.23907135933E+03  0.00000000000E+00 0. -1.
         21   -1    0    0  501  502 -0.00000000000E+00 -0.00000000000E+00 -0.22112192910E+03  0.22112192910E+03  0.00000000000E+00 0. -1.
      99926    2    1    2    0    0  0.00000000000E+00  0.00000000000E+00  0.17949430230E+02  0.46019328843E+03  0.45984310441E+03 0.  0.
      99925    2    3    3    0    0  0.80386839983E+01 -0.19699611602E+02 -0.10455374430E+03  0.28382086710E+03  0.26300209888E+03 0.  0.
         25    1    3    3    0    0 -0.80386839983E+01  0.19699611602E+02  0.12250317453E+03  0.17637242134E+03  0.12509000000E+03 0.  0.
         25    1    4    4    0    0  0.11895882174E+02  0.29730632374E+02 -0.56441814861E+02  0.14092057720E+03  0.12509000000E+03 0.  0.
         25    1    4    4    0    0 -0.38571981762E+01 -0.49430243977E+02 -0.48111929439E+02  0.14290028989E+03  0.12509000000E+03 0.  0.
<mgrwt>
<rscale>  2 0.45984310E+03</rscale>
<asrwt>0</asrwt>
<pdfrwt beam="1">  1       21 0.35157553E-01 0.45984310E+03</pdfrwt>
<pdfrwt beam="2">  1       21 0.32517931E-01 0.45984310E+03</pdfrwt>
<totfact> 0.65595356E+04</totfact>
</mgrwt>
</event>
<event>
 7    0  0.4712189E-002  0.4493399E+03  0.7546771E-02  0.1027919E+00
         21   -1    0    0  502  501  0.00000000000E+00  0.00000000000E+00  0.86117670820E+02  0.86117670820E+02  0.00000000000E+00 0.  1.
         21   -1    0    0  501  502 -0.00000000000E+00 -0.00000000000E+00 -0.58613498908E+03  0.58613498908E+03  0.00000000000E+00 0.  1.
      99926    2    1    2    0    0  0.00000000000E+00  0.00000000000E+00 -0.50001731826E+03  0.67225265990E+03  0.44933987157E+03 0.  0.
      99925    2    3    3    0    0 -0.10043530465E+03  0.18342077582E+02 -0.26444467307E+03  0.38665563350E+03  0.26295990487E+03 0.  0.
         25    1    4    4    0    0 -0.88837752880E+02  0.11623009265E+02 -0.12015816946E+03  0.19522483056E+03  0.12509000000E+03 0.  0.
         25    1    3    3    0    0  0.10043530465E+03 -0.18342077582E+02 -0.23557264519E+03  0.28559702640E+03  0.12509000000E+03 0.  0.
         25    1    4    4    0    0 -0.11597551769E+02  0.67190683165E+01 -0.14428650362E+03  0.19143080293E+03  0.12509000000E+03 0.  0.
<mgrwt>
<rscale>  2 0.44933987E+03</rscale>
<asrwt>0</asrwt>
<pdfrwt beam="1">  1       21 0.12664364E-01 0.44933987E+03</pdfrwt>
<pdfrwt beam="2">  1       21 0.86196321E-01 0.44933987E+03</pdfrwt>
<totfact> 0.56932164E+04</totfact>
</mgrwt>
</event>
<event>
 7    0  0.4712189E-002  0.4532442E+03  0.7546771E-02  0.1026759E+00
         21   -1    0    0  502  501  0.00000000000E+00  0.00000000000E+00  0.59174056164E+03  0.59174056164E+03  0.00000000000E+00 0. -1.
         21   -1    0    0  501  502 -0.00000000000E+00 -0.00000000000E+00 -0.86790690458E+02  0.86790690458E+02  0.00000000000E+00 0. -1.
      99926    2    1    2    0    0  0.17763568394E-14 -0.14210854715E-13  0.50494987118E+03  0.67853125210E+03  0.45324418106E+03 0.  0.
      99925    2    3    3    0    0 -0.14869769044E+02  0.10726738653E+03  0.35813095437E+03  0.45732839344E+03  0.26299063999E+03 0.  0.
         25    1    3    3    0    0  0.14869769044E+02 -0.10726738653E+03  0.14681891681E+03  0.22120285866E+03  0.12509000000E+03 0.  0.
         25    1    4    4    0    0 -0.68620052430E+01  0.80738473313E+02  0.14073722345E+03  0.20498844444E+03  0.12509000000E+03 0.  0.
         25    1    4    4    0    0 -0.80077638007E+01  0.26528913219E+02  0.21739373093E+03  0.25233994900E+03  0.12509000000E+03 0.  0.
<mgrwt>
<rscale>  2 0.45324418E+03</rscale>
<asrwt>0</asrwt>
<pdfrwt beam="1">  1       21 0.87020669E-01 0.45324418E+03</pdfrwt>
<pdfrwt beam="2">  1       21 0.12763337E-01 0.45324418E+03</pdfrwt>
<totfact> 0.54838923E+04</totfact>
</mgrwt>
</event>
<event>
 7    0  0.4712189E-002  0.4541677E+03  0.7546771E-02  0.1026486E+00
         21   -1    0    0  502  501  0.00000000000E+00  0.00000000000E+00  0.11667248278E+03  0.11667248278E+03  0.00000000000E+00 0.  1.
         21   -1    0    0  501  502 -0.00000000000E+00 -0.00000000000E+00 -0.44198137690E+03  0.44198137690E+03  0.00000000000E+00 0.  1.
      99926    2    1    2    0    0  0.00000000000E+00  0.71054273576E-14 -0.32530889412E+03  0.55865385968E+03  0.45416765445E+03 0.  0.
      99925    2    3    3    0    0  0.95176716222E+02 -0.59112689166E+02 -0.20449387752E+03  0.35178024206E+03  0.26339832086E+03 0.  0.
         25    1    4    4    0    0  0.26848294360E+02 -0.45997562284E+02 -0.60708388244E+02  0.14889467133E+03  0.12509000000E+03 0.  0.
         25    1    4    4    0    0  0.68328421861E+02 -0.13115126882E+02 -0.14378548928E+03  0.20288557074E+03  0.12509000000E+03 0.  0.
         25    1    3    3    0    0 -0.95176716222E+02  0.59112689166E+02 -0.12081501660E+03  0.20687361762E+03  0.12509000000E+03 0.  0.
<mgrwt>
<rscale>  2 0.45416765E+03</rscale>
<asrwt>0</asrwt>
<pdfrwt beam="1">  1       21 0.17157718E-01 0.45416765E+03</pdfrwt>
<pdfrwt beam="2">  1       21 0.64997262E-01 0.45416765E+03</pdfrwt>
<totfact> 0.61703506E+04</totfact>
</mgrwt>
</event>
<event>
 7    0  0.4712189E-002  0.4496406E+03  0.7546771E-02  0.1027829E+00
         21   -1    0    0  502  501  0.00000000000E+00  0.00000000000E+00  0.47724691280E+02  0.47724691280E+02  0.00000000000E+00 0.  1.
         21   -1    0    0  501  502 -0.00000000000E+00 -0.00000000000E+00 -0.10590779778E+04  0.10590779778E+04  0.00000000000E+00 0.  1.
      99926    2    1    2    0    0  0.00000000000E+00  0.00000000000E+00 -0.10113532865E+04  0.11068026691E+04  0.44964060996E+03 0.  0.
      99925    2    3    3    0    0 -0.10020770769E+03  0.72623902065E+01 -0.73742911835E+03  0.78934986156E+03  0.26301553636E+03 0.  0.
         25    1    4    4    0    0 -0.89496621912E+02  0.20434681375E+02 -0.41958593917E+03  0.44735566386E+03  0.12509000000E+03 0.  0.
         25    1    4    4    0    0 -0.10711085774E+02 -0.13172291168E+02 -0.31784317918E+03  0.34199419770E+03  0.12509000000E+03 0.  0.
         25    1    3    3    0    0  0.10020770769E+03 -0.72623902065E+01 -0.27392416816E+03  0.31745280750E+03  0.12509000000E+03 0.  0.
<mgrwt>
<rscale>  2 0.44964061E+03</rscale>
<asrwt>0</asrwt>
<pdfrwt beam="1">  1       21 0.70183371E-02 0.44964061E+03</pdfrwt>
<pdfrwt beam="2">  1       21 0.15574676E+00 0.44964061E+03</pdfrwt>
<totfact> 0.36770412E+04</totfact>
</mgrwt>
</event>
<event>
 7    0  0.4712189E-002  0.4327266E+03  0.7546771E-02  0.1033002E+00
         21   -1    0    0  502  501  0.00000000000E+00  0.00000000000E+00  0.95200409362E+02  0.95200409362E+02  0.00000000000E+00 0. -1.
         21   -1    0    0  501  502 -0.00000000000E+00 -0.00000000000E+00 -0.49173193866E+03  0.49173193866E+03  0.00000000000E+00 0. -1.
      99926    2    1    2    0    0 -0.71054273576E-14  0.00000000000E+00 -0.39653152929E+03  0.58693234802E+03  0.43272661973E+03 0.  0.
      99925    2    3    3    0    0  0.45311893016E+02 -0.17913606256E+02 -0.15121630533E+03  0.30728769467E+03  0.26303097034E+03 0.  0.
         25    1    4    4    0    0  0.18332305504E+02  0.22951217505E+02 -0.10259437705E+03  0.16442611140E+03  0.12509000000E+03 0.  0.
         25    1    4    4    0    0  0.26979587513E+02 -0.40864823761E+02 -0.48621928285E+02  0.14286158327E+03  0.12509000000E+03 0.  0.
         25    1    3    3    0    0 -0.45311893016E+02  0.17913606256E+02 -0.24531522396E+03  0.27964465335E+03  0.12509000000E+03 0.  0.
<mgrwt>
<rscale>  2 0.43272662E+03</rscale>
<asrwt>0</asrwt>
<pdfrwt beam="1">  1       21 0.14000060E-01 0.43272662E+03</pdfrwt>
<pdfrwt beam="2">  1       21 0.72313523E-01 0.43272662E+03</pdfrwt>
<totfact> 0.71224172E+04</totfact>
</mgrwt>
</event>
<event>
 7    0  0.4712189E-002  0.4535449E+03  0.7546771E-02  0.1026670E+00
         21   -1    0    0  502  501  0.00000000000E+00  0.00000000000E+00  0.91942304936E+03  0.91942304936E+03  0.00000000000E+00 0. -1.
         21   -1    0    0  501  502 -0.00000000000E+00 -0.00000000000E+00 -0.55932626226E+02  0.55932626226E+02  0.00000000000E+00 0. -1.
      99926    2    1    2    0    0  0.00000000000E+00 -0.35527136788E-14  0.86349042314E+03  0.97535567559E+03  0.45354490743E+03 0.  0.
      99925    2    3    3    0    0  0.80581465277E+02  0.22944732125E+02  0.38504633038E+03  0.47378206058E+03  0.26303788912E+03 0.  0.
         25    1    3    3    0    0 -0.80581465277E+02 -0.22944732125E+02  0.47844409275E+03  0.50157361500E+03  0.12509000000E+03 0.  0.
         25    1    4    4    0    0  0.50566023819E+02 -0.18027356867E+02  0.23784967932E+03  0.27404723391E+03  0.12509000000E+03 0.  0.
         25    1    4    4    0    0  0.30015441458E+02  0.40972088992E+02  0.14719665106E+03  0.19973482667E+03  0.12509000000E+03 0.  0.
<mgrwt>
<rscale>  2 0.45354491E+03</rscale>
<asrwt>0</asrwt>
<pdfrwt beam="1">  1       21 0.13520926E+00 0.45354491E+03</pdfrwt>
<pdfrwt beam="2">  1       21 0.82253868E-02 0.45354491E+03</pdfrwt>
<totfact> 0.40590495E+04</totfact>
</mgrwt>
</event>
<event>
 7    0  0.4712189E-002  0.4500885E+03  0.7546771E-02  0.1027696E+00
         21   -1    0    0  502  501  0.00000000000E+00  0.00000000000E+00  0.19136400847E+03  0.19136400847E+03  0.00000000000E+00 0. -1.
         21   -1    0    0  501  502 -0.00000000000E+00 -0.00000000000E+00 -0.26465228427E+03  0.26465228427E+03  0.00000000000E+00 0. -1.
      99926    2    1    2    0    0  0.00000000000E+00  0.17763568394E-14 -0.73288275795E+02  0.45601629274E+03  0.45008853337E+03 0.  0.
      99925    2    3    3    0    0 -0.97123626534E+02  0.13097246435E+02 -0.93487679597E+02  0.29582871298E+03  0.26300217583E+03 0.  0.
         25    1    4    4    0    0 -0.64385023273E+02 -0.22794042644E+02 -0.23380980611E+02  0.14442706795E+03  0.12509000000E+03 0.  0.
         25    1    3    3    0    0  0.97123626534E+02 -0.13097246435E+02  0.20199403802E+02  0.16018757976E+03  0.12509000000E+03 0.  0.
         25    1    4    4    0    0 -0.32738603260E+02  0.35891289079E+02 -0.70106698986E+02  0.15140164503E+03  0.12509000000E+03 0.  0.
<mgrwt>
<rscale>  2 0.45008853E+03</rscale>
<asrwt>0</asrwt>
<pdfrwt beam="1">  1       21 0.28141766E-01 0.45008853E+03</pdfrwt>
<pdfrwt beam="2">  1       21 0.38919453E-01 0.45008853E+03</pdfrwt>
<totfact> 0.71220669E+04</totfact>
</mgrwt>
</event>
<event>
 7    0  0.4712189E-002  0.4545740E+03  0.7546771E-02  0.1026367E+00
         21   -1    0    0  502  501  0.00000000000E+00  0.00000000000E+00  0.67542819896E+02  0.67542819896E+02  0.00000000000E+00 0. -1.
         21   -1    0    0  501  502 -0.00000000000E+00 -0.00000000000E+00 -0.76483882483E+03  0.76483882483E+03  0.00000000000E+00 0. -1.
      99926    2    1    2    0    0  0.00000000000E+00  0.71054273576E-14 -0.69729600493E+03  0.83238164472E+03  0.45457395876E+03 0.  0.
      99925    2    3    3    0    0 -0.10524558341E+03  0.35265626180E+02 -0.40306637836E+03  0.49394571509E+03  0.26305810551E+03 0.  0.
         25    1    4    4    0    0 -0.84566316674E+02  0.43582992744E+02 -0.24608285100E+03  0.29198495993E+03  0.12509000000E+03 0.  0.
         25    1    3    3    0    0  0.10524558341E+03 -0.35265626180E+02 -0.29422962657E+03  0.33843592963E+03  0.12509000000E+03 0.  0.
         25    1    4    4    0    0 -0.20679266733E+02 -0.83173665643E+01 -0.15698352736E+03  0.20196075515E+03  0.12509000000E+03 0.  0.
<mgrwt>
<rscale>  2 0.45457396E+03</rscale>
<asrwt>0</asrwt>
<pdfrwt beam="1">  1       21 0.99327676E-02 0.45457396E+03</pdfrwt>
<pdfrwt beam="2">  1       21 0.11247630E+00 0.45457396E+03</pdfrwt>
<totfact> 0.46392969E+04</totfact>
</mgrwt>
</event>
<event>
 7    0  0.4712189E-002  0.4522676E+03  0.7546771E-02  0.1027048E+00
         21   -1    0    0  502  501  0.00000000000E+00  0.00000000000E+00  0.70101721941E+03  0.70101721941E+03  0.00000000000E+00 0. -1.
         21   -1    0    0  501  502 -0.00000000000E+00 -0.00000000000E+00 -0.72946128709E+02  0.72946128709E+02  0.00000000000E+00 0. -1.
      99926    2    1    2    0    0  0.00000000000E+00 -0.14210854715E-13  0.62807109070E+03  0.77396334812E+03  0.45226758590E+03 0.  0.
      99925    2    3    3    0    0  0.47435818916E+02  0.94941614032E+02  0.44898795134E+03  0.53110053521E+03  0.26308464619E+03 0.  0.
         25    1    4    4    0    0  0.44054516883E+02  0.58644842019E+02  0.29978860969E+03  0.33301762199E+03  0.12509000000E+03 0.  0.
         25    1    4    4    0    0  0.33813020333E+01  0.36296772013E+02  0.14919934165E+03  0.19808291322E+03  0.12509000000E+03 0.  0.
         25    1    3    3    0    0 -0.47435818916E+02 -0.94941614032E+02  0.17908313936E+03  0.24286281291E+03  0.12509000000E+03 0.  0.
<mgrwt>
<rscale>  2 0.45226759E+03</rscale>
<asrwt>0</asrwt>
<pdfrwt beam="1">  1       21 0.10309076E+00 0.45226759E+03</pdfrwt>
<pdfrwt beam="2">  1       21 0.10727372E-01 0.45226759E+03</pdfrwt>
<totfact> 0.50116283E+04</totfact>
</mgrwt>
</event>
<event>
 7    0  0.4712189E-002  0.4549922E+03  0.7546771E-02  0.1026244E+00
         21   -1    0    0  502  501  0.00000000000E+00  0.00000000000E+00  0.12252199478E+03  0.12252199478E+03  0.00000000000E+00 0.  1.
         21   -1    0    0  501  502 -0.00000000000E+00 -0.00000000000E+00 -0.42240965510E+03  0.42240965510E+03  0.00000000000E+00 0.  1.
      99926    2    1    2    0    0  0.00000000000E+00  0.71054273576E-14 -0.29988766032E+03  0.54493164987E+03  0.45499219139E+03 0.  0.
      99925    2    3    3    0    0  0.62423546769E+02  0.54850108080E+02 -0.96668630106E+02  0.29224465795E+03  0.26297696193E+03 0.  0.
         25    1    3    3    0    0 -0.62423546769E+02 -0.54850108080E+02 -0.20321903021E+03  0.25268699192E+03  0.12509000000E+03 0.  0.
         25    1    4    4    0    0  0.20381268858E+02  0.35134060064E+02 -0.74425876397E+01  0.13172964172E+03  0.12509000000E+03 0.  0.
         25    1    4    4    0    0  0.42042277911E+02  0.19716048016E+02 -0.89226042466E+02  0.16051501623E+03  0.12509000000E+03 0.  0.
<mgrwt>
<rscale>  2 0.45499219E+03</rscale>
<asrwt>0</asrwt>
<pdfrwt beam="1">  1       21 0.18017941E-01 0.45499219E+03</pdfrwt>
<pdfrwt beam="2">  1       21 0.62119066E-01 0.45499219E+03</pdfrwt>
<totfact> 0.62206524E+04</totfact>
</mgrwt>
</event>
<event>
 7    0  0.4712189E-002  0.4505458E+03  0.7546771E-02  0.1027559E+00
         21   -1    0    0  502  501  0.00000000000E+00  0.00000000000E+00  0.16648321660E+04  0.16648321660E+04  0.00000000000E+00 0. -1.
         21   -1    0    0  501  502 -0.00000000000E+00 -0.00000000000E+00 -0.30482280439E+02  0.30482280439E+02  0.00000000000E+00 0. -1.
      99926    2    1    2    0    0  0.00000000000E+00  0.00000000000E+00  0.16343498856E+04  0.16953144465E+04  0.45054580663E+03 0.  0.
      99925    2    3    3    0    0  0.55643121140E+02 -0.75459710232E+02  0.82496720511E+03  0.87097340275E+03  0.26312250757E+03 0.  0.
         25    1    3    3    0    0 -0.55643121140E+02  0.75459710232E+02  0.80938268049E+03  0.82434104373E+03  0.12509000000E+03 0.  0.
         25    1    4    4    0    0  0.29161719589E+02 -0.16130651598E+02  0.50510762737E+03  0.52143247610E+03  0.12509000000E+03 0.  0.
         25    1    4    4    0    0  0.26481401551E+02 -0.59329058635E+02  0.31985957774E+03  0.34954092664E+03  0.12509000000E+03 0.  0.
<mgrwt>
<rscale>  2 0.45054581E+03</rscale>
<asrwt>0</asrwt>
<pdfrwt beam="1">  1       21 0.24482820E+00 0.45054581E+03</pdfrwt>
<pdfrwt beam="2">  1       21 0.44826894E-02 0.45054581E+03</pdfrwt>
<totfact> 0.20043533E+04</totfact>
</mgrwt>
</event>
<event>
 7    0  0.4712189E-002  0.4510151E+03  0.7546771E-02  0.1027420E+00
         21   -1    0    0  502  501  0.00000000000E+00  0.00000000000E+00  0.11816998862E+03  0.11816998862E+03  0.00000000000E+00 0. -1.
         21   -1    0    0  501  502 -0.00000000000E+00 -0.00000000000E+00 -0.43034315718E+03  0.43034315718E+03  0.00000000000E+00 0. -1.
      99926    2    1    2    0    0  0.00000000000E+00 -0.71054273576E-14 -0.31217316857E+03  0.54851314580E+03  0.45101505955E+03 0.  0.
      99925    2    3    3    0    0 -0.15976550696E+02 -0.47745785861E+02 -0.31541177219E+03  0.41363206153E+03  0.26281549812E+03 0.  0.
         25    1    4    4    0    0  0.24438472009E+02 -0.26284860696E+02 -0.11917489944E+03  0.17646047028E+03  0.12509000000E+03 0.  0.
         25    1    4    4    0    0 -0.40415022705E+02 -0.21460925164E+02 -0.19623687275E+03  0.23717159125E+03  0.12509000000E+03 0.  0.
         25    1    3    3    0    0  0.15976550696E+02  0.47745785861E+02  0.32386036229E+01  0.13488108427E+03  0.12509000000E+03 0.  0.
<mgrwt>
<rscale>  2 0.45101506E+03</rscale>
<asrwt>0</asrwt>
<pdfrwt beam="1">  1       21 0.17377940E-01 0.45101506E+03</pdfrwt>
<pdfrwt beam="2">  1       21 0.63285758E-01 0.45101506E+03</pdfrwt>
<totfact> 0.63957693E+04</totfact>
</mgrwt>
</event>
<event>
 7    0  0.4712189E-002  0.4445653E+03  0.7546771E-02  0.1029355E+00
         21   -1    0    0  502  501  0.00000000000E+00  0.00000000000E+00  0.28399343048E+03  0.28399343048E+03  0.00000000000E+00 0.  1.
         21   -1    0    0  501  502 -0.00000000000E+00 -0.00000000000E+00 -0.17398139908E+03  0.17398139908E+03  0.00000000000E+00 0.  1.
      99926    2    1    2    0    0  0.00000000000E+00  0.14210854715E-13  0.11001203140E+03  0.45797482956E+03  0.44456529043E+03 0.  0.
      99925    2    3    3    0    0 -0.17678245518E+02  0.10077357081E+03  0.57063003583E+02  0.28791913108E+03  0.26300837768E+03 0.  0.
         25    1    4    4    0    0 -0.15990605209E+02  0.60134261223E+02 -0.10386421594E+02  0.14009716157E+03  0.12509000000E+03 0.  0.
         25    1    3    3    0    0  0.17678245518E+02 -0.10077357081E+03  0.52949027819E+02  0.17005569848E+03  0.12509000000E+03 0.  0.
         25    1    4    4    0    0 -0.16876403085E+01  0.40639309582E+02  0.67449425177E+02  0.14782196951E+03  0.12509000000E+03 0.  0.
<mgrwt>
<rscale>  2 0.44456529E+03</rscale>
<asrwt>0</asrwt>
<pdfrwt beam="1">  1       21 0.41763740E-01 0.44456529E+03</pdfrwt>
<pdfrwt beam="2">  1       21 0.25585500E-01 0.44456529E+03</pdfrwt>
<totfact> 0.74302912E+04</totfact>
</mgrwt>
</event>
<event>
 7    0  0.4712189E-002  0.4545228E+03  0.7546771E-02  0.1026382E+00
         21   -1    0    0  502  501  0.00000000000E+00  0.00000000000E+00  0.29675634460E+03  0.29675634460E+03  0.00000000000E+00 0.  1.
         21   -1    0    0  501  502 -0.00000000000E+00 -0.00000000000E+00 -0.17404093729E+03  0.17404093729E+03  0.00000000000E+00 0.  1.
      99926    2    1    2    0    0  0.00000000000E+00  0.00000000000E+00  0.12271540732E+03  0.47079728189E+03  0.45452283710E+03 0.  0.
      99925    2    3    3    0    0  0.68400540533E+02  0.67342335655E+02  0.16074116084E+02  0.28044629762E+03  0.26301734644E+03 0.  0.
         25    1    4    4    0    0  0.29181689782E+02  0.54493579463E+02  0.42989373914E+02  0.14600245063E+03  0.12509000000E+03 0.  0.
         25    1    3    3    0    0 -0.68400540533E+02 -0.67342335655E+02  0.10664129123E+03  0.19035098427E+03  0.12509000000E+03 0.  0.
         25    1    4    4    0    0  0.39218850751E+02  0.12848756192E+02 -0.26915257830E+02  0.13444384699E+03  0.12509000000E+03 0.  0.
<mgrwt>
<rscale>  2 0.45452284E+03</rscale>
<asrwt>0</asrwt>
<pdfrwt beam="1">  1       21 0.43640639E-01 0.45452284E+03</pdfrwt>
<pdfrwt beam="2">  1       21 0.25594255E-01 0.45452284E+03</pdfrwt>
<totfact> 0.67632124E+04</totfact>
</mgrwt>
</event>
<event>
 7    0  0.4712189E-002  0.4551410E+03  0.7546771E-02  0.1026200E+00
         21   -1    0    0  502  501  0.00000000000E+00  0.00000000000E+00  0.57936718256E+03  0.57936718256E+03  0.00000000000E+00 0. -1.
         21   -1    0    0  501  502 -0.00000000000E+00 -0.00000000000E+00 -0.89387763421E+02  0.89387763421E+02  0.00000000000E+00 0. -1.
      99926    2    1    2    0    0 -0.14210854715E-13  0.17763568394E-14  0.48997941914E+03  0.66875494598E+03  0.45514101836E+03 0.  0.
      99925    2    3    3    0    0 -0.99783361876E+02  0.10761811363E+02  0.38531186567E+03  0.47724687633E+03  0.26310988437E+03 0.  0.
         25    1    4    4    0    0 -0.12075574319E+02 -0.11843786385E+02  0.15409136154E+03  0.19919274728E+03  0.12509000000E+03 0.  0.
         25    1    4    4    0    0 -0.87707787557E+02  0.22605597748E+02  0.23122050414E+03  0.27805412905E+03  0.12509000000E+03 0.  0.
         25    1    3    3    0    0  0.99783361876E+02 -0.10761811363E+02  0.10466755347E+03  0.19150806965E+03  0.12509000000E+03 0.  0.
<mgrwt>
<rscale>  2 0.45514102E+03</rscale>
<asrwt>0</asrwt>
<pdfrwt beam="1">  1       21 0.85201054E-01 0.45514102E+03</pdfrwt>
<pdfrwt beam="2">  1       21 0.13145260E-01 0.45514102E+03</pdfrwt>
<totfact> 0.54571723E+04</totfact>
</mgrwt>
</event>
<event>
 7    0  0.4712189E-002  0.4489258E+03  0.7546771E-02  0.1028043E+00
         21   -1    0    0  502  501  0.00000000000E+00  0.00000000000E+00  0.10897011134E+04  0.10897011134E+04  0.00000000000E+00 0.  1.
         21   -1    0    0  501  502 -0.00000000000E+00 -0.00000000000E+00 -0.46236149171E+02  0.46236149171E+02  0.00000000000E+00 0.  1.
      99926    2    1    2    0    0  0.00000000000E+00  0.00000000000E+00  0.10434649643E+04  0.11359372626E+04  0.44892575436E+03 0.  0.
      99925    2    3    3    0    0 -0.81966291652E+01  0.75133210475E+02  0.85306403903E+03  0.89591183796E+03  0.26311135033E+03 0.  0.
         25    1    4    4    0    0 -0.55926111393E+01  0.78995131005E+02  0.48970690986E+03  0.51159737458E+03  0.12509000000E+03 0.  0.
         25    1    4    4    0    0 -0.26040180259E+01 -0.38619205299E+01  0.36335712917E+03  0.38431446337E+03  0.12509000000E+03 0.  0.
         25    1    3    3    0    0  0.81966291652E+01 -0.75133210475E+02  0.19040092525E+03  0.24002542466E+03  0.12509000000E+03 0.  0.
<mgrwt>
<rscale>  2 0.44892575E+03</rscale>
<asrwt>0</asrwt>
<pdfrwt beam="1">  1       21 0.16025015E+00 0.44892575E+03</pdfrwt>
<pdfrwt beam="2">  1       21 0.67994344E-02 0.44892575E+03</pdfrwt>
<totfact> 0.35926507E+04</totfact>
</mgrwt>
</event>
<event>
 7    0  0.4712189E-002  0.4498219E+03  0.7546771E-02  0.1027775E+00
         21   -1    0    0  502  501  0.00000000000E+00  0.00000000000E+00  0.11207352770E+04  0.11207352770E+04  0.00000000000E+00 0. -1.
         21   -1    0    0  501  502 -0.00000000000E+00 -0.00000000000E+00 -0.45135495568E+02  0.45135495568E+02  0.00000000000E+00 0. -1.
      99926    2    1    2    0    0  0.00000000000E+00  0.00000000000E+00  0.10755997815E+04  0.11658707726E+04  0.44982192979E+03 0.  0.
      99925    2    3    3    0    0  0.62483361563E+02  0.27788034720E+02  0.89734840882E+03  0.93762221227E+03  0.26310625378E+03 0.  0.
         25    1    3    3    0    0 -0.62483361563E+02 -0.27788034720E+02  0.17825137265E+03  0.22824856034E+03  0.12509000000E+03 0.  0.
         25    1    4    4    0    0  0.68171262136E+02  0.14614386743E+02  0.41079757144E+03  0.43504373813E+03  0.12509000000E+03 0.  0.
         25    1    4    4    0    0 -0.56879005728E+01  0.13173647977E+02  0.48655083738E+03  0.50257847414E+03  0.12509000000E+03 0.  0.
<mgrwt>
<rscale>  2 0.44982193E+03</rscale>
<asrwt>0</asrwt>
<pdfrwt beam="1">  1       21 0.16481399E+00 0.44982193E+03</pdfrwt>
<pdfrwt beam="2">  1       21 0.66375736E-02 0.44982193E+03</pdfrwt>
<totfact> 0.34633365E+04</totfact>
</mgrwt>
</event>
<event>
 7    0  0.4712189E-002  0.4440264E+03  0.7546771E-02  0.1029519E+00
         21   -1    0    0  502  501  0.00000000000E+00  0.00000000000E+00  0.86148782187E+02  0.86148782187E+02  0.00000000000E+00 0.  1.
         21   -1    0    0  501  502 -0.00000000000E+00 -0.00000000000E+00 -0.57214819251E+03  0.57214819251E+03  0.00000000000E+00 0.  1.
      99926    2    1    2    0    0  0.00000000000E+00  0.00000000000E+00 -0.48599941033E+03  0.65829697470E+03  0.44402644072E+03 0.  0.
      99925    2    3    3    0    0 -0.72786681348E+02  0.21586148599E+02 -0.20776040537E+03  0.34392726437E+03  0.26335852814E+03 0.  0.
         25    1    4    4    0    0 -0.71446396104E+02  0.21768573694E+02 -0.13809911619E+03  0.20074195453E+03  0.12509000000E+03 0.  0.
         25    1    3    3    0    0  0.72786681348E+02 -0.21586148599E+02 -0.27823900496E+03  0.31436971033E+03  0.12509000000E+03 0.  0.
         25    1    4    4    0    0 -0.13402852441E+01 -0.18242509467E+00 -0.69661289174E+02  0.14318530984E+03  0.12509000000E+03 0.  0.
<mgrwt>
<rscale>  2 0.44402644E+03</rscale>
<asrwt>0</asrwt>
<pdfrwt beam="1">  1       21 0.12668939E-01 0.44402644E+03</pdfrwt>
<pdfrwt beam="2">  1       21 0.84139440E-01 0.44402644E+03</pdfrwt>
<totfact> 0.60272992E+04</totfact>
</mgrwt>
</event>
<event>
 7    0  0.4712189E-002  0.4497877E+03  0.7546771E-02  0.1027785E+00
         21   -1    0    0  502  501  0.00000000000E+00  0.00000000000E+00  0.24689553348E+03  0.24689553348E+03  0.00000000000E+00 0.  1.
         21   -1    0    0  501  502 -0.00000000000E+00 -0.00000000000E+00 -0.20485280803E+03  0.20485280803E+03  0.00000000000E+00 0.  1.
      99926    2    1    2    0    0 -0.14210854715E-13  0.71054273576E-14  0.42042725445E+02  0.45174834151E+03  0.44978769803E+03 0.  0.
      99925    2    3    3    0    0 -0.99777229971E+02  0.41247955092E+02  0.33876402317E+02  0.28630624786E+03  0.26299575569E+03 0.  0.
         25    1    4    4    0    0 -0.18398598945E+02  0.38282702505E+02 -0.45348566290E+01  0.13218224835E+03  0.12509000000E+03 0.  0.
         25    1    3    3    0    0  0.99777229971E+02 -0.41247955092E+02  0.81663231282E+01  0.16544209366E+03  0.12509000000E+03 0.  0.
         25    1    4    4    0    0 -0.81378631026E+02  0.29652525872E+01  0.38411258945E+02  0.15412399951E+03  0.12509000000E+03 0.  0.
<mgrwt>
<rscale>  2 0.44978770E+03</rscale>
<asrwt>0</asrwt>
<pdfrwt beam="1">  1       21 0.36308167E-01 0.44978770E+03</pdfrwt>
<pdfrwt beam="2">  1       21 0.30125413E-01 0.44978770E+03</pdfrwt>
<totfact> 0.71721253E+04</totfact>
</mgrwt>
</event>
<event>
 7    0  0.4712189E-002  0.4678954E+03  0.7546771E-02  0.1022516E+00
         21   -1    0    0  502  501  0.00000000000E+00  0.00000000000E+00  0.14225279024E+03  0.14225279024E+03  0.00000000000E+00 0.  1.
         21   -1    0    0  501  502 -0.00000000000E+00 -0.00000000000E+00 -0.38474832099E+03  0.38474832099E+03  0.00000000000E+00 0.  1.
      99926    2    1    2    0    0  0.00000000000E+00  0.35527136788E-14 -0.24249553075E+03  0.52700111122E+03  0.46789538232E+03 0.  0.
      99925    2    3    3    0    0 -0.34301908097E+02 -0.19252820324E+02 -0.28442111676E+03  0.38933283292E+03  0.26293990024E+03 0.  0.
         25    1    4    4    0    0 -0.12502875633E+02 -0.48222100177E+02 -0.12783493742E+03  0.18566359947E+03  0.12509000000E+03 0.  0.
         25    1    4    4    0    0 -0.21799032464E+02  0.28969279853E+02 -0.15658617934E+03  0.20366923344E+03  0.12509000000E+03 0.  0.
         25    1    3    3    0    0  0.34301908097E+02  0.19252820324E+02  0.41925586010E+02  0.13766827831E+03  0.12509000000E+03 0.  0.
<mgrwt>
<rscale>  2 0.46789538E+03</rscale>
<asrwt>0</asrwt>
<pdfrwt beam="1">  1       21 0.20919528E-01 0.46789538E+03</pdfrwt>
<pdfrwt beam="2">  1       21 0.56580634E-01 0.46789538E+03</pdfrwt>
<totfact> 0.57319868E+04</totfact>
</mgrwt>
</event>
<event>
 7    0  0.4712189E-002  0.4502019E+03  0.7546771E-02  0.1027662E+00
         21   -1    0    0  502  501  0.00000000000E+00  0.00000000000E+00  0.21350441452E+04  0.21350441452E+04  0.00000000000E+00 0. -1.
         21   -1    0    0  501  502 -0.00000000000E+00 -0.00000000000E+00 -0.23732736346E+02  0.23732736346E+02  0.00000000000E+00 0. -1.
      99926    2    1    2    0    0  0.00000000000E+00  0.00000000000E+00  0.21113114088E+04  0.21587768815E+04  0.45020190930E+03 0.  0.
      99925    2    3    3    0    0 -0.63237945308E+02  0.32823456614E+02  0.94084729819E+03  0.97949313304E+03  0.26293866611E+03 0.  0.
         25    1    4    4    0    0 -0.38311268797E+00  0.24631015274E+02  0.35836655968E+03  0.38036946892E+03  0.12509000000E+03 0.  0.
         25    1    3    3    0    0  0.63237945308E+02 -0.32823456614E+02  0.11704641106E+04  0.11792837485E+04  0.12509000000E+03 0.  0.
         25    1    4    4    0    0 -0.62854832620E+02  0.81924413402E+01  0.58248073850E+03  0.59912366412E+03  0.12509000000E+03 0.  0.
<mgrwt>
<rscale>  2 0.45020191E+03</rscale>
<asrwt>0</asrwt>
<pdfrwt beam="1">  1       21 0.31397695E+00 0.45020191E+03</pdfrwt>
<pdfrwt beam="2">  1       21 0.34901098E-02 0.45020191E+03</pdfrwt>
<totfact> 0.11716970E+04</totfact>
</mgrwt>
</event>
<event>
 7    0  0.4712189E-002  0.4519604E+03  0.7546771E-02  0.1027139E+00
         21   -1    0    0  502  501  0.00000000000E+00  0.00000000000E+00  0.47753155986E+03  0.47753155986E+03  0.00000000000E+00 0.  1.
         21   -1    0    0  501  502 -0.00000000000E+00 -0.00000000000E+00 -0.10693965147E+03  0.10693965147E+03  0.00000000000E+00 0.  1.
      99926    2    1    2    0    0  0.00000000000E+00 -0.14210854715E-13  0.37059190839E+03  0.58447121134E+03  0.45196043446E+03 0.  0.
      99925    2    3    3    0    0 -0.85983967074E+02 -0.68056702647E+02  0.22186048676E+03  0.36132663657E+03  0.26326774459E+03 0.  0.
         25    1    3    3    0    0  0.85983967074E+02  0.68056702647E+02  0.14873142162E+03  0.22314457477E+03  0.12509000000E+03 0.  0.
         25    1    4    4    0    0  0.51073040626E-01 -0.32958621896E+02  0.99237700121E+02  0.16303957370E+03  0.12509000000E+03 0.  0.
         25    1    4    4    0    0 -0.86035040115E+02 -0.35098080752E+02  0.12262278664E+03  0.19828706288E+03  0.12509000000E+03 0.  0.
<mgrwt>
<rscale>  2 0.45196043E+03</rscale>
<asrwt>0</asrwt>
<pdfrwt beam="1">  1       21 0.70225229E-01 0.45196043E+03</pdfrwt>
<pdfrwt beam="2">  1       21 0.15726420E-01 0.45196043E+03</pdfrwt>
<totfact> 0.61099265E+04</totfact>
</mgrwt>
</event>
<event>
 7    0  0.4712189E-002  0.4522509E+03  0.7546771E-02  0.1027053E+00
         21   -1    0    0  502  501  0.00000000000E+00  0.00000000000E+00  0.16087302806E+03  0.16087302806E+03  0.00000000000E+00 0. -1.
         21   -1    0    0  501  502 -0.00000000000E+00 -0.00000000000E+00 -0.31784526330E+03  0.31784526330E+03  0.00000000000E+00 0. -1.
      99926    2    1    2    0    0  0.00000000000E+00  0.00000000000E+00 -0.15697223524E+03  0.47871829135E+03  0.45225094786E+03 0.  0.
      99925    2    3    3    0    0 -0.69579857592E+02  0.84980372374E+02 -0.85920804002E+02  0.29772427418E+03  0.26304816784E+03 0.  0.
         25    1    4    4    0    0 -0.62246226266E+02  0.17641789186E+02 -0.60233285499E+02  0.15317108798E+03  0.12509000000E+03 0.  0.
         25    1    4    4    0    0 -0.73336313263E+01  0.67338583189E+02 -0.25687518503E+02  0.14455318620E+03  0.12509000000E+03 0.  0.
         25    1    3    3    0    0  0.69579857592E+02 -0.84980372374E+02 -0.71051431240E+02  0.18099401717E+03  0.12509000000E+03 0.  0.
<mgrwt>
<rscale>  2 0.45225095E+03</rscale>
<asrwt>0</asrwt>
<pdfrwt beam="1">  1       21 0.23657798E-01 0.45225095E+03</pdfrwt>
<pdfrwt beam="2">  1       21 0.46741950E-01 0.45225095E+03</pdfrwt>
<totfact> 0.68271116E+04</totfact>
</mgrwt>
</event>
<event>
 7    0  0.4712189E-002  0.4682284E+03  0.7546771E-02  0.1022421E+00
         21   -1    0    0  502  501  0.00000000000E+00  0.00000000000E+00  0.14823003973E+03  0.14823003973E+03  0.00000000000E+00 0. -1.
         21   -1    0    0  501  502 -0.00000000000E+00 -0.00000000000E+00 -0.36975952442E+03  0.36975952442E+03  0.00000000000E+00 0. -1.
      99926    2    1    2    0    0 -0.35527136788E-14  0.00000000000E+00 -0.22152948469E+03  0.51798956415E+03  0.46822844423E+03 0.  0.
      99925    2    3    3    0    0 -0.26156329657E+02 -0.70124035621E+02 -0.26905499565E+02  0.27482801777E+03  0.26306843120E+03 0.  0.
         25    1    4    4    0    0  0.21434264639E+01 -0.73672598422E+02 -0.15891794135E+02  0.14605582240E+03  0.12509000000E+03 0.  0.
         25    1    4    4    0    0 -0.28299756120E+02  0.35485628007E+01 -0.11013705431E+02  0.12877219538E+03  0.12509000000E+03 0.  0.
         25    1    3    3    0    0  0.26156329657E+02  0.70124035621E+02 -0.19462398512E+03  0.24316154638E+03  0.12509000000E+03 0.  0.
<mgrwt>
<rscale>  2 0.46822844E+03</rscale>
<asrwt>0</asrwt>
<pdfrwt beam="1">  1       21 0.21798535E-01 0.46822844E+03</pdfrwt>
<pdfrwt beam="2">  1       21 0.54376400E-01 0.46822844E+03</pdfrwt>
<totfact> 0.57722362E+04</totfact>
</mgrwt>
</event>
<event>
 7    0  0.4712189E-002  0.4558018E+03  0.7546771E-02  0.1026006E+00
         21   -1    0    0  502  501  0.00000000000E+00  0.00000000000E+00  0.44804350067E+03  0.44804350067E+03  0.00000000000E+00 0. -1.
         21   -1    0    0  501  502 -0.00000000000E+00 -0.00000000000E+00 -0.11592361932E+03  0.11592361932E+03  0.00000000000E+00 0. -1.
      99926    2    1    2    0    0  0.71054273576E-14 -0.17763568394E-14  0.33211988135E+03  0.56396711999E+03  0.45580181751E+03 0.  0.
      99925    2    3    3    0    0 -0.42573380430E+02 -0.13471162272E+02  0.33859953853E+03  0.43098795248E+03  0.26288210809E+03 0.  0.
         25    1    4    4    0    0  0.89493651408E+01 -0.32234491468E+02  0.15058951317E+03  0.19860479136E+03  0.12509000000E+03 0.  0.
         25    1    4    4    0    0 -0.51522745571E+02  0.18763329196E+02  0.18801002536E+03  0.23238316112E+03  0.12509000000E+03 0.  0.
         25    1    3    3    0    0  0.42573380430E+02  0.13471162272E+02 -0.64796571804E+01  0.13297916751E+03  0.12509000000E+03 0.  0.
<mgrwt>
<rscale>  2 0.45580182E+03</rscale>
<asrwt>0</asrwt>
<pdfrwt beam="1">  1       21 0.65888749E-01 0.45580182E+03</pdfrwt>
<pdfrwt beam="2">  1       21 0.17047591E-01 0.45580182E+03</pdfrwt>
<totfact> 0.60567866E+04</totfact>
</mgrwt>
</event>
<event>
 7    0  0.4712189E-002  0.4546896E+03  0.7546771E-02  0.1026333E+00
         21   -1    0    0  502  501  0.00000000000E+00  0.00000000000E+00  0.37247987019E+02  0.37247987019E+02  0.00000000000E+00 0. -1.
         21   -1    0    0  501  502 -0.00000000000E+00 -0.00000000000E+00 -0.13876096609E+04  0.13876096609E+04  0.00000000000E+00 0. -1.
      99926    2    1    2    0    0 -0.14210854715E-13  0.71054273576E-14 -0.13503616739E+04  0.14248576479E+04  0.45468963761E+03 0.  0.
      99925    2    3    3    0    0  0.96114427215E+02 -0.53611225975E+02 -0.92841642553E+03  0.97120861246E+03  0.26301513844E+03 0.  0.
         25    1    3    3    0    0 -0.96114427215E+02  0.53611225975E+02 -0.42194524835E+03  0.45364903546E+03  0.12509000000E+03 0.  0.
         25    1    4    4    0    0  0.52008331632E+02 -0.35154804207E+01 -0.56715868692E+03  0.58312409435E+03  0.12509000000E+03 0.  0.
         25    1    4    4    0    0  0.44106095583E+02 -0.50095745554E+02 -0.36125773861E+03  0.38808451811E+03  0.12509000000E+03 0.  0.
<mgrwt>
<rscale>  2 0.45468964E+03</rscale>
<asrwt>0</asrwt>
<pdfrwt beam="1">  1       21 0.54776442E-02 0.45468964E+03</pdfrwt>
<pdfrwt beam="2">  1       21 0.20406028E+00 0.45468964E+03</pdfrwt>
<totfact> 0.25739084E+04</totfact>
</mgrwt>
</event>
<event>
 7    0  0.4712189E-002  0.4538069E+03  0.7546771E-02  0.1026593E+00
         21   -1    0    0  502  501  0.00000000000E+00  0.00000000000E+00  0.12522538989E+03  0.12522538989E+03  0.00000000000E+00 0.  1.
         21   -1    0    0  501  502 -0.00000000000E+00 -0.00000000000E+00 -0.41114010726E+03  0.41114010726E+03  0.00000000000E+00 0.  1.
      99926    2    1    2    0    0  0.00000000000E+00  0.00000000000E+00 -0.28591471738E+03  0.53636549715E+03  0.45380692031E+03 0.  0.
      99925    2    3    3    0    0 -0.56692402035E+02  0.96443604206E+02 -0.17244730680E+03  0.33378771307E+03  0.26298434656E+03 0.  0.
         25    1    4    4    0    0  0.35545507947E+01  0.62488055526E+02 -0.61266638447E+02  0.15270396524E+03  0.12509000000E+03 0.  0.
         25    1    4    4    0    0 -0.60246952830E+02  0.33955548680E+02 -0.11118066835E+03  0.18108374782E+03  0.12509000000E+03 0.  0.
         25    1    3    3    0    0  0.56692402035E+02 -0.96443604206E+02 -0.11346741058E+03  0.20257778408E+03  0.12509000000E+03 0.  0.
<mgrwt>
<rscale>  2 0.45380692E+03</rscale>
<asrwt>0</asrwt>
<pdfrwt beam="1">  1       21 0.18415499E-01 0.45380692E+03</pdfrwt>
<pdfrwt beam="2">  1       21 0.60461780E-01 0.45380692E+03</pdfrwt>
<totfact> 0.63372883E+04</totfact>
</mgrwt>
</event>
<event>
 7    0  0.4712189E-002  0.4566857E+03  0.7546771E-02  0.1025747E+00
         21   -1    0    0  502  501  0.00000000000E+00  0.00000000000E+00  0.69046307103E+03  0.69046307103E+03  0.00000000000E+00 0. -1.
         21   -1    0    0  501  502 -0.00000000000E+00 -0.00000000000E+00 -0.75515201985E+02  0.75515201985E+02  0.00000000000E+00 0. -1.
      99926    2    1    2    0    0  0.00000000000E+00  0.00000000000E+00  0.61494786904E+03  0.76597827301E+03  0.45668570493E+03 0.  0.
      99925    2    3    3    0    0 -0.52475957149E+02 -0.10209688601E+03  0.38953199361E+03  0.48377741332E+03  0.26292187316E+03 0.  0.
         25    1    4    4    0    0 -0.21015793742E+02 -0.80118432367E+02  0.15834347364E+03  0.21813021463E+03  0.12509000000E+03 0.  0.
         25    1    4    4    0    0 -0.31460163408E+02 -0.21978453646E+02  0.23118851997E+03  0.26564719869E+03  0.12509000000E+03 0.  0.
         25    1    3    3    0    0  0.52475957149E+02  0.10209688601E+03  0.22541587543E+03  0.28220085969E+03  0.12509000000E+03 0.  0.
<mgrwt>
<rscale>  2 0.45668570E+03</rscale>
<asrwt>0</asrwt>
<pdfrwt beam="1">  1       21 0.10153868E+00 0.45668570E+03</pdfrwt>
<pdfrwt beam="2">  1       21 0.11105177E-01 0.45668570E+03</pdfrwt>
<totfact> 0.48805173E+04</totfact>
</mgrwt>
</event>
<event>
 7    0  0.4712189E-002  0.4537863E+03  0.7546771E-02  0.1026599E+00
         21   -1    0    0  502  501  0.00000000000E+00  0.00000000000E+00  0.55083786521E+02  0.55083786521E+02  0.00000000000E+00 0. -1.
         21   -1    0    0  501  502 -0.00000000000E+00 -0.00000000000E+00 -0.93458538030E+03  0.93458538030E+03  0.00000000000E+00 0. -1.
      99926    2    1    2    0    0  0.14210854715E-13  0.00000000000E+00 -0.87950159378E+03  0.98966916682E+03  0.45378630025E+03 0.  0.
      99925    2    3    3    0    0  0.90822975053E+02 -0.18988556819E+02 -0.69094745548E+03  0.74510925748E+03  0.26300197957E+03 0.  0.
         25    1    4    4    0    0  0.57885714466E+02  0.53192326958E+01 -0.25748059294E+03  0.29210069157E+03  0.12509000000E+03 0.  0.
         25    1    4    4    0    0  0.32937260587E+02 -0.24307789514E+02 -0.43346686254E+03  0.45300856591E+03  0.12509000000E+03 0.  0.
         25    1    3    3    0    0 -0.90822975053E+02  0.18988556819E+02 -0.18855413830E+03  0.24455990934E+03  0.12509000000E+03 0.  0.
<mgrwt>
<rscale>  2 0.45378630E+03</rscale>
<asrwt>0</asrwt>
<pdfrwt beam="1">  1       21 0.81005574E-02 0.45378630E+03</pdfrwt>
<pdfrwt beam="2">  1       21 0.13743902E+00 0.45378630E+03</pdfrwt>
<totfact> 0.39948347E+04</totfact>
</mgrwt>
</event>
<event>
 7    0  0.4712189E-002  0.4094335E+03  0.7546771E-02  0.1040561E+00
         21   -1    0    0  502  501  0.00000000000E+00  0.00000000000E+00  0.19761430265E+03  0.19761430265E+03  0.00000000000E+00 0.  1.
         21   -1    0    0  501  502 -0.00000000000E+00 -0.00000000000E+00 -0.21207448469E+03  0.21207448469E+03  0.00000000000E+00 0.  1.
      99926    2    1    2    0    0 -0.71054273576E-14  0.00000000000E+00 -0.14460182043E+02  0.40968878733E+03  0.40943351793E+03 0.  0.
      99925    2    3    3    0    0  0.32257265710E+02 -0.50714821528E+02 -0.21372943141E+02  0.27073621024E+03  0.26311360384E+03 0.  0.
         25    1    3    3    0    0 -0.32257265710E+02  0.50714821528E+02  0.69127610981E+01  0.13895257709E+03  0.12509000000E+03 0.  0.
         25    1    4    4    0    0  0.56479001708E+02 -0.33856452318E+02 -0.11911624318E+02  0.14186448425E+03  0.12509000000E+03 0.  0.
         25    1    4    4    0    0 -0.24221735998E+02 -0.16858369210E+02 -0.94613188227E+01  0.12887172600E+03  0.12509000000E+03 0.  0.
<mgrwt>
<rscale>  2 0.40943352E+03</rscale>
<asrwt>0</asrwt>
<pdfrwt beam="1">  1       21 0.29060927E-01 0.40943352E+03</pdfrwt>
<pdfrwt beam="2">  1       21 0.31187424E-01 0.40943352E+03</pdfrwt>
<totfact> 0.10542675E+05</totfact>
</mgrwt>
</event>
<event>
 7    0  0.4712189E-002  0.4579149E+03  0.7546771E-02  0.1025388E+00
         21   -1    0    0  502  501  0.00000000000E+00  0.00000000000E+00  0.60166831150E+03  0.60166831150E+03  0.00000000000E+00 0.  1.
         21   -1    0    0  501  502 -0.00000000000E+00 -0.00000000000E+00 -0.87126927835E+02  0.87126927835E+02  0.00000000000E+00 0.  1.
      99926    2    1    2    0    0 -0.88817841970E-15  0.00000000000E+00  0.51454138366E+03  0.68879523933E+03  0.45791488972E+03 0.  0.
      99925    2    3    3    0    0  0.67793391916E+01  0.35672842255E+02  0.15727530726E+03  0.30852550801E+03  0.26293336742E+03 0.  0.
         25    1    4    4    0    0 -0.25606816029E+01 -0.16597140425E+02  0.51485919180E+02  0.13630968467E+03  0.12509000000E+03 0.  0.
         25    1    4    4    0    0  0.93400207945E+01  0.52269982681E+02  0.10578938808E+03  0.17221582334E+03  0.12509000000E+03 0.  0.
         25    1    3    3    0    0 -0.67793391916E+01 -0.35672842255E+02  0.35726607640E+03  0.38026973133E+03  0.12509000000E+03 0.  0.
<mgrwt>
<rscale>  2 0.45791489E+03</rscale>
<asrwt>0</asrwt>
<pdfrwt beam="1">  1       21 0.88480632E-01 0.45791489E+03</pdfrwt>
<pdfrwt beam="2">  1       21 0.12812784E-01 0.45791489E+03</pdfrwt>
<totfact> 0.52305051E+04</totfact>
</mgrwt>
</event>
<event>
 7    0  0.4712189E-002  0.4685416E+03  0.7546771E-02  0.1022333E+00
         21   -1    0    0  502  501  0.00000000000E+00  0.00000000000E+00  0.60480539245E+02  0.60480539245E+02  0.00000000000E+00 0.  1.
         21   -1    0    0  501  502 -0.00000000000E+00 -0.00000000000E+00 -0.90744556002E+03  0.90744556002E+03  0.00000000000E+00 0.  1.
      99926    2    1    2    0    0  0.00000000000E+00  0.31086244690E-14 -0.84696502077E+03  0.96792609926E+03  0.46854155335E+03 0.  0.
      99925    2    3    3    0    0  0.92041584917E+02 -0.35995722035E+01 -0.70166381937E+03  0.75521841839E+03  0.26370084146E+03 0.  0.
         25    1    3    3    0    0 -0.92041584917E+02  0.35995722035E+01 -0.14530120140E+03  0.21270768088E+03  0.12509000000E+03 0.  0.
         25    1    4    4    0    0  0.42789167272E+02  0.39783162583E+02 -0.34695032772E+03  0.37341083389E+03  0.12509000000E+03 0.  0.
         25    1    4    4    0    0  0.49252417645E+02 -0.43382734787E+02 -0.35471349166E+03  0.38180758450E+03  0.12509000000E+03 0.  0.
<mgrwt>
<rscale>  2 0.46854155E+03</rscale>
<asrwt>0</asrwt>
<pdfrwt beam="1">  1       21 0.88941971E-02 0.46854155E+03</pdfrwt>
<pdfrwt beam="2">  1       21 0.13344787E+00 0.46854155E+03</pdfrwt>
<totfact> 0.36412602E+04</totfact>
</mgrwt>
</event>
<event>
 7    0  0.4712189E-002  0.4756551E+03  0.7546771E-02  0.1020336E+00
         21   -1    0    0  502  501  0.00000000000E+00  0.00000000000E+00  0.58970169375E+02  0.58970169375E+02  0.00000000000E+00 0.  1.
         21   -1    0    0  501  502 -0.00000000000E+00 -0.00000000000E+00 -0.95916183226E+03  0.95916183226E+03  0.00000000000E+00 0.  1.
      99926    2    1    2    0    0  0.00000000000E+00  0.00000000000E+00 -0.90019166289E+03  0.10181320016E+04  0.47565506707E+03 0.  0.
      99925    2    3    3    0    0  0.12323916583E+03 -0.13097079159E+02 -0.65061603536E+03  0.71268981818E+03  0.26318458541E+03 0.  0.
         25    1    3    3    0    0 -0.12323916583E+03  0.13097079159E+02 -0.24957562753E+03  0.30544218345E+03  0.12509000000E+03 0.  0.
         25    1    4    4    0    0  0.80972536006E+02 -0.41505776685E+02 -0.37891719854E+03  0.40927378677E+03  0.12509000000E+03 0.  0.
         25    1    4    4    0    0  0.42266629825E+02  0.28408697526E+02 -0.27169883682E+03  0.30341603142E+03  0.12509000000E+03 0.  0.
<mgrwt>
<rscale>  2 0.47565507E+03</rscale>
<asrwt>0</asrwt>
<pdfrwt beam="1">  1       21 0.86720830E-02 0.47565507E+03</pdfrwt>
<pdfrwt beam="2">  1       21 0.14105322E+00 0.47565507E+03</pdfrwt>
<totfact> 0.32843335E+04</totfact>
</mgrwt>
</event>
<event>
 7    0  0.4712189E-002  0.4433678E+03  0.7546771E-02  0.1029718E+00
         21   -1    0    0  502  501  0.00000000000E+00  0.00000000000E+00  0.32635105972E+02  0.32635105972E+02  0.00000000000E+00 0. -1.
         21   -1    0    0  501  502 -0.00000000000E+00 -0.00000000000E+00 -0.15058552482E+04  0.15058552482E+04  0.00000000000E+00 0. -1.
      99926    2    1    2    0    0  0.00000000000E+00  0.00000000000E+00 -0.14732201422E+04  0.15384903542E+04  0.44336777331E+03 0.  0.
      99925    2    3    3    0    0 -0.65557969328E+02 -0.32337699878E+02 -0.11835426203E+04  0.12146012543E+04  0.26294390812E+03 0.  0.
         25    1    3    3    0    0  0.65557969328E+02  0.32337699878E+02 -0.28967752195E+03  0.32388909984E+03  0.12509000000E+03 0.  0.
         25    1    4    4    0    0 -0.60933864310E+01  0.32425225615E+01 -0.44279748385E+03  0.46017905549E+03  0.12509000000E+03 0.  0.
         25    1    4    4    0    0 -0.59464582897E+02 -0.35580222439E+02 -0.74074513642E+03  0.75442219882E+03  0.12509000000E+03 0.  0.
<mgrwt>
<rscale>  2 0.44336777E+03</rscale>
<asrwt>0</asrwt>
<pdfrwt beam="1">  1       21 0.47992799E-02 0.44336777E+03</pdfrwt>
<pdfrwt beam="2">  1       21 0.22144932E+00 0.44336777E+03</pdfrwt>
<totfact> 0.25038191E+04</totfact>
</mgrwt>
</event>
<event>
 7    0  0.4712189E-002  0.4473389E+03  0.7546771E-02  0.1028519E+00
         21   -1    0    0  502  501  0.00000000000E+00  0.00000000000E+00  0.55000554175E+03  0.55000554175E+03  0.00000000000E+00 0. -1.
         21   -1    0    0  501  502 -0.00000000000E+00 -0.00000000000E+00 -0.90959123171E+02  0.90959123171E+02  0.00000000000E+00 0. -1.
      99926    2    1    2    0    0  0.00000000000E+00  0.00000000000E+00  0.45904641858E+03  0.64096466492E+03  0.44733889532E+03 0.  0.
      99925    2    3    3    0    0 -0.23038889989E+02 -0.78412641148E+02  0.38718503079E+03  0.47516086551E+03  0.26303282552E+03 0.  0.
         25    1    4    4    0    0 -0.39833250977E+02 -0.60562435303E+02  0.24257500004E+03  0.28239092619E+03  0.12509000000E+03 0.  0.
         25    1    3    3    0    0  0.23038889989E+02  0.78412641148E+02  0.71861387783E+02  0.16580379941E+03  0.12509000000E+03 0.  0.
         25    1    4    4    0    0  0.16794360988E+02 -0.17850205845E+02  0.14461003075E+03  0.19276993932E+03  0.12509000000E+03 0.  0.
<mgrwt>
<rscale>  2 0.44733890E+03</rscale>
<asrwt>0</asrwt>
<pdfrwt beam="1">  1       21 0.80883166E-01 0.44733890E+03</pdfrwt>
<pdfrwt beam="2">  1       21 0.13376342E-01 0.44733890E+03</pdfrwt>
<totfact> 0.59756338E+04</totfact>
</mgrwt>
</event>
<event>
 6    0  0.5264844E-002  0.4422686E+03  0.7546771E-02  0.1030053E+00
         21   -1    0    0  502  501  0.00000000000E+00  0.00000000000E+00  0.28987268478E+03  0.28987268478E+03  0.00000000000E+00 0.  1.
         21   -1    0    0  501  502 -0.00000000000E+00 -0.00000000000E+00 -0.16869604575E+03  0.16869604575E+03  0.00000000000E+00 0.  1.
      99926    2    1    2    0    0  0.00000000000E+00 -0.17763568394E-14  0.12117663903E+03  0.45856873054E+03  0.44226858670E+03 0.  0.
         25    1    3    3    0    0  0.42285384562E+02  0.58876931753E+01  0.25236890609E+02  0.13456272673E+03  0.12509000000E+03 0.  0.
         25    1    3    3    0    0  0.30145292012E+00  0.93643663266E+01  0.13606800249E+03  0.18506699229E+03  0.12509000000E+03 0.  0.
         25    1    3    3    0    0 -0.42586837482E+02 -0.15252059502E+02 -0.40128254076E+02  0.13893901152E+03  0.12509000000E+03 0.  0.
<mgrwt>
<rscale>  2 0.44226859E+03</rscale>
<asrwt>0</asrwt>
<pdfrwt beam="1">  1       21 0.42628336E-01 0.44226859E+03</pdfrwt>
<pdfrwt beam="2">  1       21 0.24808242E-01 0.44226859E+03</pdfrwt>
<totfact> 0.75651949E+04</totfact>
</mgrwt>
</event>
<event>
 7    0  0.4712189E-002  0.4557770E+03  0.7546771E-02  0.1026013E+00
         21   -1    0    0  502  501  0.00000000000E+00  0.00000000000E+00  0.57565756680E+03  0.57565756680E+03  0.00000000000E+00 0. -1.
         21   -1    0    0  501  502 -0.00000000000E+00 -0.00000000000E+00 -0.90215376522E+02  0.90215376522E+02  0.00000000000E+00 0. -1.
      99926    2    1    2    0    0  0.00000000000E+00  0.00000000000E+00  0.48544219028E+03  0.66587294333E+03  0.45577698115E+03 0.  0.
      99925    2    3    3    0    0  0.78922054377E+02  0.64464253525E+02  0.23077006932E+03  0.36439371030E+03  0.26295174569E+03 0.  0.
         25    1    4    4    0    0  0.50426989616E+02 -0.50956764823E+01  0.12698191949E+03  0.18531260934E+03  0.12509000000E+03 0.  0.
         25    1    3    3    0    0 -0.78922054377E+02 -0.64464253525E+02  0.25467212096E+03  0.30147923303E+03  0.12509000000E+03 0.  0.
         25    1    4    4    0    0  0.28495064761E+02  0.69559930008E+02  0.10378814982E+03  0.17908110096E+03  0.12509000000E+03 0.  0.
<mgrwt>
<rscale>  2 0.45577698E+03</rscale>
<asrwt>0</asrwt>
<pdfrwt beam="1">  1       21 0.84655522E-01 0.45577698E+03</pdfrwt>
<pdfrwt beam="2">  1       21 0.13266968E-01 0.45577698E+03</pdfrwt>
<totfact> 0.54460762E+04</totfact>
</mgrwt>
</event>
<event>
 7    0  0.4712189E-002  0.4507534E+03  0.7546771E-02  0.1027498E+00
         21   -1    0    0  502  501  0.00000000000E+00  0.00000000000E+00  0.96672775305E+02  0.96672775305E+02  0.00000000000E+00 0.  1.
         21   -1    0    0  501  502 -0.00000000000E+00 -0.00000000000E+00 -0.52542886437E+03  0.52542886437E+03  0.00000000000E+00 0.  1.
      99926    2    1    2    0    0  0.00000000000E+00  0.00000000000E+00 -0.42875608907E+03  0.62210163968E+03  0.45075344278E+03 0.  0.
      99925    2    3    3    0    0 -0.94713025581E+01 -0.81372632922E+02 -0.17133115513E+03  0.32439991702E+03  0.26300138875E+03 0.  0.
         25    1    4    4    0    0 -0.35412522508E+02 -0.55177626122E+02 -0.62069737082E+02  0.15426852413E+03  0.12509000000E+03 0.  0.
         25    1    4    4    0    0  0.25941219950E+02 -0.26195006800E+02 -0.10926141805E+03  0.17013139289E+03  0.12509000000E+03 0.  0.
         25    1    3    3    0    0  0.94713025581E+01  0.81372632922E+02 -0.25742493394E+03  0.29770172266E+03  0.12509000000E+03 0.  0.
<mgrwt>
<rscale>  2 0.45075344E+03</rscale>
<asrwt>0</asrwt>
<pdfrwt beam="1">  1       21 0.14216585E-01 0.45075344E+03</pdfrwt>
<pdfrwt beam="2">  1       21 0.77268951E-01 0.45075344E+03</pdfrwt>
<totfact> 0.59301573E+04</totfact>
</mgrwt>
</event>
<event>
 7    0  0.4712189E-002  0.4560429E+03  0.7546771E-02  0.1025935E+00
         21   -1    0    0  502  501  0.00000000000E+00  0.00000000000E+00  0.89720059929E+03  0.89720059929E+03  0.00000000000E+00 0. -1.
         21   -1    0    0  501  502 -0.00000000000E+00 -0.00000000000E+00 -0.57951132326E+02  0.57951132326E+02  0.00000000000E+00 0. -1.
      99926    2    1    2    0    0  0.00000000000E+00  0.00000000000E+00  0.83924946696E+03  0.95515173161E+03  0.45604293944E+03 0.  0.
      99925    2    3    3    0    0  0.10119355347E+03  0.51627914346E+02  0.51910034218E+03  0.59314545128E+03  0.26353516714E+03 0.  0.
         25    1    3    3    0    0 -0.10119355347E+03 -0.51627914346E+02  0.32014912478E+03  0.36200628034E+03  0.12509000000E+03 0.  0.
         25    1    4    4    0    0  0.69430732893E+01  0.29949502539E+02  0.22757009551E+03  0.26149729528E+03  0.12509000000E+03 0.  0.
         25    1    4    4    0    0  0.94250480181E+02  0.21678411807E+02  0.29153024667E+03  0.33164815600E+03  0.12509000000E+03 0.  0.
<mgrwt>
<rscale>  2 0.45604294E+03</rscale>
<asrwt>0</asrwt>
<pdfrwt beam="1">  1       21 0.13194126E+00 0.45604294E+03</pdfrwt>
<pdfrwt beam="2">  1       21 0.85222259E-02 0.45604294E+03</pdfrwt>
<totfact> 0.40600799E+04</totfact>
</mgrwt>
</event>
<event>
 7    0  0.4712189E-002  0.4571764E+03  0.7546771E-02  0.1025603E+00
         21   -1    0    0  502  501  0.00000000000E+00  0.00000000000E+00  0.12190200955E+03  0.12190200955E+03  0.00000000000E+00 0. -1.
         21   -1    0    0  501  502 -0.00000000000E+00 -0.00000000000E+00 -0.42864407696E+03  0.42864407696E+03  0.00000000000E+00 0. -1.
      99926    2    1    2    0    0  0.00000000000E+00  0.00000000000E+00 -0.30674206741E+03  0.55054608651E+03  0.45717644018E+03 0.  0.
      99925    2    3    3    0    0 -0.59125886077E+02 -0.98537765758E+02 -0.20235068999E+03  0.35117048754E+03  0.26300066140E+03 0.  0.
         25    1    3    3    0    0  0.59125886077E+02  0.98537765758E+02 -0.10439137742E+03  0.19937559897E+03  0.12509000000E+03 0.  0.
         25    1    4    4    0    0 -0.31070670477E+02 -0.56277188309E+02 -0.15204512138E+03  0.20711768520E+03  0.12509000000E+03 0.  0.
         25    1    4    4    0    0 -0.28055215599E+02 -0.42260577449E+02 -0.50305568610E+02  0.14405280234E+03  0.12509000000E+03 0.  0.
<mgrwt>
<rscale>  2 0.45717644E+03</rscale>
<asrwt>0</asrwt>
<pdfrwt beam="1">  1       21 0.17926766E-01 0.45717644E+03</pdfrwt>
<pdfrwt beam="2">  1       21 0.63035894E-01 0.45717644E+03</pdfrwt>
<totfact> 0.60777100E+04</totfact>
</mgrwt>
</event>
<event>
 7    0  0.4712189E-002  0.4617287E+03  0.7546771E-02  0.1024281E+00
         21   -1    0    0  502  501  0.00000000000E+00  0.00000000000E+00  0.19700330186E+03  0.19700330186E+03  0.00000000000E+00 0. -1.
         21   -1    0    0  501  502 -0.00000000000E+00 -0.00000000000E+00 -0.27054546944E+03  0.27054546944E+03  0.00000000000E+00 0. -1.
      99926    2    1    2    0    0 -0.14210854715E-13  0.71054273576E-14 -0.73542167580E+02  0.46754877130E+03  0.46172871161E+03 0.  0.
      99925    2    3    3    0    0 -0.10651953039E+03  0.46311132563E+02 -0.73736462829E+02  0.29684822295E+03  0.26304119481E+03 0.  0.
         25    1    3    3    0    0  0.10651953039E+03 -0.46311132563E+02  0.19429524864E+00  0.17070054834E+03  0.12509000000E+03 0.  0.
         25    1    4    4    0    0 -0.52037109700E+02 -0.13500086843E+02 -0.16050964684E+02  0.13709578658E+03  0.12509000000E+03 0.  0.
         25    1    4    4    0    0 -0.54482420689E+02  0.59811219406E+02 -0.57685498145E+02  0.15975243637E+03  0.12509000000E+03 0.  0.
<mgrwt>
<rscale>  2 0.46172871E+03</rscale>
<asrwt>0</asrwt>
<pdfrwt beam="1">  1       21 0.28971074E-01 0.46172871E+03</pdfrwt>
<pdfrwt beam="2">  1       21 0.39786098E-01 0.46172871E+03</pdfrwt>
<totfact> 0.64122230E+04</totfact>
</mgrwt>
</event>
<event>
 7    0  0.4712189E-002  0.4521713E+03  0.7546771E-02  0.1027077E+00
         21   -1    0    0  502  501  0.00000000000E+00  0.00000000000E+00  0.12015286467E+04  0.12015286467E+04  0.00000000000E+00 0. -1.
         21   -1    0    0  501  502 -0.00000000000E+00 -0.00000000000E+00 -0.42541411105E+02  0.42541411105E+02  0.00000000000E+00 0. -1.
      99926    2    1    2    0    0  0.00000000000E+00  0.00000000000E+00  0.11589872356E+04  0.12440700578E+04  0.45217131316E+03 0.  0.
      99925    2    3    3    0    0 -0.46615166405E+02  0.40492313108E+02  0.47898652874E+03  0.54990792215E+03  0.26297913789E+03 0.  0.
         25    1    3    3    0    0  0.46615166405E+02 -0.40492313108E+02  0.68000070682E+03  0.69416213563E+03  0.12509000000E+03 0.  0.
         25    1    4    4    0    0 -0.39781040131E+01  0.11883904217E+02  0.30244584572E+03  0.32753328103E+03  0.12509000000E+03 0.  0.
         25    1    4    4    0    0 -0.42637062392E+02  0.28608408891E+02  0.17654068302E+03  0.22237464112E+03  0.12509000000E+03 0.  0.
<mgrwt>
<rscale>  2 0.45217131E+03</rscale>
<asrwt>0</asrwt>
<pdfrwt beam="1">  1       21 0.17669537E+00 0.45217131E+03</pdfrwt>
<pdfrwt beam="2">  1       21 0.62560906E-02 0.45217131E+03</pdfrwt>
<totfact> 0.31470568E+04</totfact>
</mgrwt>
</event>
<event>
 7    0  0.4712189E-002  0.4488992E+03  0.7546771E-02  0.1028051E+00
         21   -1    0    0  502  501  0.00000000000E+00  0.00000000000E+00  0.27596646634E+03  0.27596646634E+03  0.00000000000E+00 0.  1.
         21   -1    0    0  501  502 -0.00000000000E+00 -0.00000000000E+00 -0.18254982211E+03  0.18254982211E+03  0.00000000000E+00 0.  1.
      99926    2    1    2    0    0  0.00000000000E+00  0.66613381478E-15  0.93416644233E+02  0.45851628845E+03  0.44889922850E+03 0.  0.
      99925    2    3    3    0    0  0.10720406108E+03 -0.19588292960E+01  0.50724201500E+02  0.28832022360E+03  0.26279090356E+03 0.  0.
         25    1    3    3    0    0 -0.10720406108E+03  0.19588292960E+01  0.42692442733E+02  0.17019606485E+03  0.12509000000E+03 0.  0.
         25    1    4    4    0    0  0.41753777979E+02  0.37733830502E+02  0.23694969944E+02  0.13919834640E+03  0.12509000000E+03 0.  0.
         25    1    4    4    0    0  0.65450283102E+02 -0.39692659798E+02  0.27029231556E+02  0.14912187720E+03  0.12509000000E+03 0.  0.
<mgrwt>
<rscale>  2 0.44889923E+03</rscale>
<asrwt>0</asrwt>
<pdfrwt beam="1">  1       21 0.40583304E-01 0.44889923E+03</pdfrwt>
<pdfrwt beam="2">  1       21 0.26845562E-01 0.44889923E+03</pdfrwt>
<totfact> 0.71707789E+04</totfact>
</mgrwt>
</event>
<event>
 7    0  0.4712189E-002  0.4574068E+03  0.7546771E-02  0.1025536E+00
         21   -1    0    0  502  501  0.00000000000E+00  0.00000000000E+00  0.60687014940E+03  0.60687014940E+03  0.00000000000E+00 0.  1.
         21   -1    0    0  501  502 -0.00000000000E+00 -0.00000000000E+00 -0.86188544103E+02  0.86188544103E+02  0.00000000000E+00 0.  1.
      99926    2    1    2    0    0  0.71054273576E-14  0.00000000000E+00  0.52068160529E+03  0.69305869350E+03  0.45740684138E+03 0.  0.
      99925    2    3    3    0    0  0.43780446778E+02 -0.92971209407E+02  0.24788484663E+03  0.37584275295E+03  0.26315490583E+03 0.  0.
         25    1    4    4    0    0  0.57344495806E+02 -0.69474187167E+02  0.12597614877E+03  0.19907926070E+03  0.12509000000E+03 0.  0.
         25    1    4    4    0    0 -0.13564049028E+02 -0.23497022240E+02  0.12190869785E+03  0.17676349225E+03  0.12509000000E+03 0.  0.
         25    1    3    3    0    0 -0.43780446778E+02  0.92971209407E+02  0.27279675867E+03  0.31721594055E+03  0.12509000000E+03 0.  0.
<mgrwt>
<rscale>  2 0.45740684E+03</rscale>
<asrwt>0</asrwt>
<pdfrwt beam="1">  1       21 0.89245608E-01 0.45740684E+03</pdfrwt>
<pdfrwt beam="2">  1       21 0.12674786E-01 0.45740684E+03</pdfrwt>
<totfact> 0.52283914E+04</totfact>
</mgrwt>
</event>
<event>
 7    0  0.4712189E-002  0.4549592E+03  0.7546771E-02  0.1026253E+00
         21   -1    0    0  502  501  0.00000000000E+00  0.00000000000E+00  0.25485489295E+03  0.25485489295E+03  0.00000000000E+00 0.  1.
         21   -1    0    0  501  502 -0.00000000000E+00 -0.00000000000E+00 -0.20304486889E+03  0.20304486889E+03  0.00000000000E+00 0.  1.
      99926    2    1    2    0    0  0.00000000000E+00  0.00000000000E+00  0.51810024058E+02  0.45789976185E+03  0.45495924357E+03 0.  0.
      99925    2    3    3    0    0  0.51941410387E+02  0.30530388924E+02 -0.63677919977E+02  0.27730356012E+03  0.26308244373E+03 0.  0.
         25    1    4    4    0    0  0.64241421711E+02  0.85602887421E+01 -0.47546510903E+02  0.14868899625E+03  0.12509000000E+03 0.  0.
         25    1    3    3    0    0 -0.51941410387E+02 -0.30530388924E+02  0.11548794403E+03  0.18059620173E+03  0.12509000000E+03 0.  0.
         25    1    4    4    0    0 -0.12300011323E+02  0.21970100182E+02 -0.16131409073E+02  0.12861456387E+03  0.12509000000E+03 0.  0.
<mgrwt>
<rscale>  2 0.45495924E+03</rscale>
<asrwt>0</asrwt>
<pdfrwt beam="1">  1       21 0.37478661E-01 0.45495924E+03</pdfrwt>
<pdfrwt beam="2">  1       21 0.29859539E-01 0.45495924E+03</pdfrwt>
<totfact> 0.68356027E+04</totfact>
</mgrwt>
</event>
<event>
 7    0  0.4712189E-002  0.4570378E+03  0.7546771E-02  0.1025644E+00
         21   -1    0    0  502  501  0.00000000000E+00  0.00000000000E+00  0.79218352124E+02  0.79218352124E+02  0.00000000000E+00 0.  1.
         21   -1    0    0  501  502 -0.00000000000E+00 -0.00000000000E+00 -0.65920193929E+03  0.65920193929E+03  0.00000000000E+00 0.  1.
      99926    2    1    2    0    0  0.00000000000E+00 -0.44408920985E-15 -0.57998358717E+03  0.73842029142E+03  0.45703781615E+03 0.  0.
      99925    2    3    3    0    0  0.10119444138E+03  0.33685980801E+01 -0.45264056935E+03  0.53319988622E+03  0.26299614299E+03 0.  0.
         25    1    4    4    0    0  0.27818906266E+02  0.22588211652E+02 -0.26544408992E+03  0.29562170392E+03  0.12509000000E+03 0.  0.
         25    1    3    3    0    0 -0.10119444138E+03 -0.33685980801E+01 -0.12734301782E+03  0.20522040519E+03  0.12509000000E+03 0.  0.
         25    1    4    4    0    0  0.73375535116E+02 -0.19219613572E+02 -0.18719647943E+03  0.23757818231E+03  0.12509000000E+03 0.  0.
<mgrwt>
<rscale>  2 0.45703782E+03</rscale>
<asrwt>0</asrwt>
<pdfrwt beam="1">  1       21 0.11649758E-01 0.45703782E+03</pdfrwt>
<pdfrwt beam="2">  1       21 0.96941459E-01 0.45703782E+03</pdfrwt>
<totfact> 0.50059305E+04</totfact>
</mgrwt>
</event>
<event>
 7    0  0.4712189E-002  0.4545184E+03  0.7546771E-02  0.1026383E+00
         21   -1    0    0  502  501  0.00000000000E+00  0.00000000000E+00  0.35987437363E+03  0.35987437363E+03  0.00000000000E+00 0.  1.
         21   -1    0    0  501  502 -0.00000000000E+00 -0.00000000000E+00 -0.14351326970E+03  0.14351326970E+03  0.00000000000E+00 0.  1.
      99926    2    1    2    0    0  0.00000000000E+00  0.00000000000E+00  0.21636110394E+03  0.50338764333E+03  0.45451841785E+03 0.  0.
      99925    2    3    3    0    0 -0.88762378352E+02  0.69330874248E+02  0.14076231862E+03  0.31886606092E+03  0.26301331626E+03 0.  0.
         25    1    4    4    0    0 -0.19171697103E+02  0.48734273666E+02  0.10036668962E+03  0.16871148119E+03  0.12509000000E+03 0.  0.
         25    1    4    4    0    0 -0.69590681249E+02  0.20596600582E+02  0.40395629006E+02  0.15015457973E+03  0.12509000000E+03 0.  0.
         25    1    3    3    0    0  0.88762378352E+02 -0.69330874248E+02  0.75598785313E+02  0.18452158241E+03  0.12509000000E+03 0.  0.
<mgrwt>
<rscale>  2 0.45451842E+03</rscale>
<asrwt>0</asrwt>
<pdfrwt beam="1">  1       21 0.52922702E-01 0.45451842E+03</pdfrwt>
<pdfrwt beam="2">  1       21 0.21104893E-01 0.45451842E+03</pdfrwt>
<totfact> 0.65282510E+04</totfact>
</mgrwt>
</event>
<event>
 7    0  0.4712189E-002  0.4568522E+03  0.7546771E-02  0.1025698E+00
         21   -1    0    0  502  501  0.00000000000E+00  0.00000000000E+00  0.16458025806E+03  0.16458025806E+03  0.00000000000E+00 0.  1.
         21   -1    0    0  501  502 -0.00000000000E+00 -0.00000000000E+00 -0.31703976764E+03  0.31703976764E+03  0.00000000000E+00 0.  1.
      99926    2    1    2    0    0  0.00000000000E+00  0.00000000000E+00 -0.15245950958E+03  0.48162002569E+03  0.45685221581E+03 0.  0.
      99925    2    3    3    0    0  0.78897857222E+02 -0.69372165181E+02 -0.47483701521E+02  0.28744279337E+03  0.26330835226E+03 0.  0.
         25    1    4    4    0    0  0.41436119541E+02 -0.24186587110E+02 -0.63645689126E+02  0.14832472769E+03  0.12509000000E+03 0.  0.
         25    1    3    3    0    0 -0.78897857222E+02  0.69372165181E+02 -0.10497580806E+03  0.19417723233E+03  0.12509000000E+03 0.  0.
         25    1    4    4    0    0  0.37461737681E+02 -0.45185578072E+02  0.16161987604E+02  0.13911806568E+03  0.12509000000E+03 0.  0.
<mgrwt>
<rscale>  2 0.45685222E+03</rscale>
<asrwt>0</asrwt>
<pdfrwt beam="1">  1       21 0.24202979E-01 0.45685222E+03</pdfrwt>
<pdfrwt beam="2">  1       21 0.46623495E-01 0.45685222E+03</pdfrwt>
<totfact> 0.65612401E+04</totfact>
</mgrwt>
</event>
<event>
 7    0  0.4712189E-002  0.4593125E+03  0.7546771E-02  0.1024981E+00
         21   -1    0    0  502  501  0.00000000000E+00  0.00000000000E+00  0.39048429867E+02  0.39048429867E+02  0.00000000000E+00 0. -1.
         21   -1    0    0  501  502 -0.00000000000E+00 -0.00000000000E+00 -0.13506815778E+04  0.13506815778E+04  0.00000000000E+00 0. -1.
      99926    2    1    2    0    0 -0.71054273576E-14  0.14210854715E-13 -0.13116331479E+04  0.13897300077E+04  0.45931250740E+03 0.  0.
      99925    2    3    3    0    0  0.53090574418E+02 -0.71820936228E+02 -0.10514165408E+04  0.10875098119E+04  0.26310452836E+03 0.  0.
         25    1    4    4    0    0 -0.48069609756E+01 -0.47864121674E+02 -0.60577327415E+03  0.62042150897E+03  0.12509000000E+03 0.  0.
         25    1    3    3    0    0 -0.53090574418E+02  0.71820936228E+02 -0.26021660713E+03  0.30222019572E+03  0.12509000000E+03 0.  0.
         25    1    4    4    0    0  0.57897535393E+02 -0.23956814555E+02 -0.44564326664E+03  0.46708830296E+03  0.12509000000E+03 0.  0.
<mgrwt>
<rscale>  2 0.45931251E+03</rscale>
<asrwt>0</asrwt>
<pdfrwt beam="1">  1       21 0.57424161E-02 0.45931251E+03</pdfrwt>
<pdfrwt beam="2">  1       21 0.19862965E+00 0.45931251E+03</pdfrwt>
<totfact> 0.25733641E+04</totfact>
</mgrwt>
</event>
<event>
 7    0  0.4712189E-002  0.4555963E+03  0.7546771E-02  0.1026066E+00
         21   -1    0    0  502  501  0.00000000000E+00  0.00000000000E+00  0.92912282771E+02  0.92912282771E+02  0.00000000000E+00 0.  1.
         21   -1    0    0  501  502 -0.00000000000E+00 -0.00000000000E+00 -0.55850523125E+03  0.55850523125E+03  0.00000000000E+00 0.  1.
      99926    2    1    2    0    0  0.00000000000E+00  0.00000000000E+00 -0.46559294848E+03  0.65141751402E+03  0.45559629487E+03 0.  0.
      99925    2    3    3    0    0  0.48645960914E+02  0.10185836503E+03 -0.31246435166E+03  0.42373916349E+03  0.26301967906E+03 0.  0.
         25    1    3    3    0    0 -0.48645960914E+02 -0.10185836503E+03 -0.15312859682E+03  0.22767835054E+03  0.12509000000E+03 0.  0.
         25    1    4    4    0    0  0.10351514035E+02  0.46176918909E+02 -0.95495045310E+02  0.16433585568E+03  0.12509000000E+03 0.  0.
         25    1    4    4    0    0  0.38294446879E+02  0.55681446117E+02 -0.21696930635E+03  0.25940330781E+03  0.12509000000E+03 0.  0.
<mgrwt>
<rscale>  2 0.45559629E+03</rscale>
<asrwt>0</asrwt>
<pdfrwt beam="1">  1       21 0.13663571E-01 0.45559629E+03</pdfrwt>
<pdfrwt beam="2">  1       21 0.82133119E-01 0.45559629E+03</pdfrwt>
<totfact> 0.55359037E+04</totfact>
</mgrwt>
</event>
<event>
 7    0  0.4712189E-002  0.4553034E+03  0.7546771E-02  0.1026152E+00
         21   -1    0    0  502  501  0.00000000000E+00  0.00000000000E+00  0.18194871729E+02  0.18194871729E+02  0.00000000000E+00 0. -1.
         21   -1    0    0  501  502 -0.00000000000E+00 -0.00000000000E+00 -0.28483460310E+04  0.28483460310E+04  0.00000000000E+00 0. -1.
      99926    2    1    2    0    0  0.00000000000E+00  0.00000000000E+00 -0.28301511592E+04  0.28665409027E+04  0.45530337434E+03 0.  0.
      99925    2    3    3    0    0  0.74259745967E+02  0.85930277048E+01 -0.12429531173E+04  0.12726671679E+04  0.26298463545E+03 0.  0.
         25    1    3    3    0    0 -0.74259745967E+02 -0.85930277048E+01 -0.15871980420E+04  0.15938737348E+04  0.12509000000E+03 0.  0.
         25    1    4    4    0    0  0.51134005169E+02  0.24820639281E+02 -0.49121354837E+03  0.51006765122E+03  0.12509000000E+03 0.  0.
         25    1    4    4    0    0  0.23125740799E+02 -0.16227611576E+02 -0.75173956889E+03  0.76259951665E+03  0.12509000000E+03 0.  0.
<mgrwt>
<rscale>  2 0.45530337E+03</rscale>
<asrwt>0</asrwt>
<pdfrwt beam="1">  1       21 0.26757193E-02 0.45530337E+03</pdfrwt>
<pdfrwt beam="2">  1       21 0.41887397E+00 0.45530337E+03</pdfrwt>
<totfact> 0.40519419E+03</totfact>
</mgrwt>
</event>
<event>
 7    0  0.4712189E-002  0.4374077E+03  0.7546771E-02  0.1031545E+00
         21   -1    0    0  502  501  0.00000000000E+00  0.00000000000E+00  0.12770280705E+03  0.12770280705E+03  0.00000000000E+00 0.  1.
         21   -1    0    0  501  502 -0.00000000000E+00 -0.00000000000E+00 -0.37455216962E+03  0.37455216962E+03  0.00000000000E+00 0.  1.
      99926    2    1    2    0    0  0.00000000000E+00  0.00000000000E+00 -0.24684936257E+03  0.50225497667E+03  0.43740765173E+03 0.  0.
      99925    2    3    3    0    0 -0.54171655555E+02 -0.63238244002E+02 -0.10365754700E+03  0.29468559570E+03  0.26298492256E+03 0.  0.
         25    1    3    3    0    0  0.54171655555E+02  0.63238244002E+02 -0.14319181557E+03  0.20756938097E+03  0.12509000000E+03 0.  0.
         25    1    4    4    0    0 -0.13959567903E+02 -0.14150682549E+02 -0.86494342362E+02  0.15337500029E+03  0.12509000000E+03 0.  0.
         25    1    4    4    0    0 -0.40212087651E+02 -0.49087561454E+02 -0.17163204638E+02  0.14131059541E+03  0.12509000000E+03 0.  0.
<mgrwt>
<rscale>  2 0.43740765E+03</rscale>
<asrwt>0</asrwt>
<pdfrwt beam="1">  1       21 0.18779825E-01 0.43740765E+03</pdfrwt>
<pdfrwt beam="2">  1       21 0.55081201E-01 0.43740765E+03</pdfrwt>
<totfact> 0.75056121E+04</totfact>
</mgrwt>
</event>
<event>
 7    0  0.4712189E-002  0.4545034E+03  0.7546771E-02  0.1026388E+00
         21   -1    0    0  502  501  0.00000000000E+00  0.00000000000E+00  0.15958843174E+03  0.15958843174E+03  0.00000000000E+00 0. -1.
         21   -1    0    0  501  502 -0.00000000000E+00 -0.00000000000E+00 -0.32360330140E+03  0.32360330140E+03  0.00000000000E+00 0. -1.
      99926    2    1    2    0    0  0.35527136788E-14  0.00000000000E+00 -0.16401486966E+03  0.48319173313E+03  0.45450343618E+03 0.  0.
      99925    2    3    3    0    0  0.81976712922E+01  0.11234877450E+03 -0.10038073892E+03  0.30322990485E+03  0.26302591793E+03 0.  0.
         25    1    3    3    0    0 -0.81976712922E+01 -0.11234877450E+03 -0.63634130741E+02  0.17996182829E+03  0.12509000000E+03 0.  0.
         25    1    4    4    0    0 -0.26348837203E+02  0.65148594867E+02 -0.78088702850E+02  0.16335223980E+03  0.12509000000E+03 0.  0.
         25    1    4    4    0    0  0.34546508495E+02  0.47200179629E+02 -0.22292036070E+02  0.13987766504E+03  0.12509000000E+03 0.  0.
<mgrwt>
<rscale>  2 0.45450344E+03</rscale>
<asrwt>0</asrwt>
<pdfrwt beam="1">  1       21 0.23468887E-01 0.45450344E+03</pdfrwt>
<pdfrwt beam="2">  1       21 0.47588721E-01 0.45450344E+03</pdfrwt>
<totfact> 0.66731146E+04</totfact>
</mgrwt>
</event>
<event>
 7    0  0.4712189E-002  0.4567828E+03  0.7546771E-02  0.1025718E+00
         21   -1    0    0  502  501  0.00000000000E+00  0.00000000000E+00  0.19011421705E+03  0.19011421705E+03  0.00000000000E+00 0. -1.
         21   -1    0    0  501  502 -0.00000000000E+00 -0.00000000000E+00 -0.27437527407E+03  0.27437527407E+03  0.00000000000E+00 0. -1.
      99926    2    1    2    0    0  0.00000000000E+00  0.00000000000E+00 -0.84261057024E+02  0.46448949112E+03  0.45678283859E+03 0.  0.
      99925    2    3    3    0    0  0.54398219609E+02  0.86871643686E+02 -0.27092813671E+00  0.28225969491E+03  0.26299165994E+03 0.  0.
         25    1    4    4    0    0  0.78715469493E+01  0.45937326666E+02  0.35540417386E+02  0.13814061170E+03  0.12509000000E+03 0.  0.
         25    1    4    4    0    0  0.46526672659E+02  0.40934317021E+02 -0.35811345523E+02  0.14411908322E+03  0.12509000000E+03 0.  0.
         25    1    3    3    0    0 -0.54398219609E+02 -0.86871643686E+02 -0.83990128888E+02  0.18222979620E+03  0.12509000000E+03 0.  0.
<mgrwt>
<rscale>  2 0.45678284E+03</rscale>
<asrwt>0</asrwt>
<pdfrwt beam="1">  1       21 0.27957973E-01 0.45678284E+03</pdfrwt>
<pdfrwt beam="2">  1       21 0.40349305E-01 0.45678284E+03</pdfrwt>
<totfact> 0.66894963E+04</totfact>
</mgrwt>
</event>
<event>
 7    0  0.4712189E-002  0.4478218E+03  0.7546771E-02  0.1028374E+00
         21   -1    0    0  502  501  0.00000000000E+00  0.00000000000E+00  0.11438180104E+03  0.11438180104E+03  0.00000000000E+00 0. -1.
         21   -1    0    0  501  502 -0.00000000000E+00 -0.00000000000E+00 -0.43832227188E+03  0.43832227188E+03  0.00000000000E+00 0. -1.
      99926    2    1    2    0    0  0.17763568394E-14 -0.14210854715E-13 -0.32394047084E+03  0.55270407292E+03  0.44782179890E+03 0.  0.
      99925    2    3    3    0    0 -0.15629053293E+02  0.95112874565E+02 -0.14969354245E+03  0.31754407128E+03  0.26293602709E+03 0.  0.
         25    1    3    3    0    0  0.15629053293E+02 -0.95112874565E+02 -0.17424692839E+03  0.23516000163E+03  0.12509000000E+03 0.  0.
         25    1    4    4    0    0  0.37231003508E+01  0.53247134717E+02 -0.11904679578E+03  0.18074503179E+03  0.12509000000E+03 0.  0.
         25    1    4    4    0    0 -0.19352153644E+02  0.41865739847E+02 -0.30646746668E+02  0.13679903949E+03  0.12509000000E+03 0.  0.
<mgrwt>
<rscale>  2 0.44782180E+03</rscale>
<asrwt>0</asrwt>
<pdfrwt beam="1">  1       21 0.16820853E-01 0.44782180E+03</pdfrwt>
<pdfrwt beam="2">  1       21 0.64459157E-01 0.44782180E+03</pdfrwt>
<totfact> 0.65319289E+04</totfact>
</mgrwt>
</event>
<event>
 7    0  0.4712189E-002  0.4552788E+03  0.7546771E-02  0.1026159E+00
         21   -1    0    0  502  501  0.00000000000E+00  0.00000000000E+00  0.91732629218E+03  0.91732629218E+03  0.00000000000E+00 0.  1.
         21   -1    0    0  501  502 -0.00000000000E+00 -0.00000000000E+00 -0.56489918177E+02  0.56489918177E+02  0.00000000000E+00 0.  1.
      99926    2    1    2    0    0 -0.14432899320E-14  0.00000000000E+00  0.86083637401E+03  0.97381621036E+03  0.45527875939E+03 0.  0.
      99925    2    3    3    0    0  0.25549311297E+00 -0.78037778834E+02  0.71784444154E+03  0.76842837953E+03  0.26285275729E+03 0.  0.
         25    1    4    4    0    0  0.34183468130E+02 -0.52549256095E+02  0.41743312804E+03  0.44025885374E+03  0.12509000000E+03 0.  0.
         25    1    4    4    0    0 -0.33927975017E+02 -0.25488522739E+02  0.30041131350E+03  0.32816952580E+03  0.12509000000E+03 0.  0.
         25    1    3    3    0    0 -0.25549311297E+00  0.78037778834E+02  0.14299193246E+03  0.20538783083E+03  0.12509000000E+03 0.  0.
<mgrwt>
<rscale>  2 0.45527876E+03</rscale>
<asrwt>0</asrwt>
<pdfrwt beam="1">  1       21 0.13490092E+00 0.45527876E+03</pdfrwt>
<pdfrwt beam="2">  1       21 0.83073415E-02 0.45527876E+03</pdfrwt>
<totfact> 0.40103686E+04</totfact>
</mgrwt>
</event>
<event>
 7    0  0.4712189E-002  0.4569946E+03  0.7546771E-02  0.1025656E+00
         21   -1    0    0  502  501  0.00000000000E+00  0.00000000000E+00  0.51947964372E+03  0.51947964372E+03  0.00000000000E+00 0. -1.
         21   -1    0    0  501  502 -0.00000000000E+00 -0.00000000000E+00 -0.10050639388E+03  0.10050639388E+03  0.00000000000E+00 0. -1.
      99926    2    1    2    0    0  0.14210854715E-13  0.00000000000E+00  0.41897324985E+03  0.61998603760E+03  0.45699464191E+03 0.  0.
      99925    2    3    3    0    0 -0.10808172998E+03 -0.39269909936E+02  0.26499784448E+03  0.39068335611E+03  0.26303201513E+03 0.  0.
         25    1    3    3    0    0  0.10808172998E+03  0.39269909936E+02  0.15397540537E+03  0.22930268149E+03  0.12509000000E+03 0.  0.
         25    1    4    4    0    0 -0.62074802114E+02  0.19538335163E+02  0.14046564030E+03  0.19903047958E+03  0.12509000000E+03 0.  0.
         25    1    4    4    0    0 -0.46006927863E+02 -0.58808245099E+02  0.12453220418E+03  0.19165287653E+03  0.12509000000E+03 0.  0.
<mgrwt>
<rscale>  2 0.45699464E+03</rscale>
<asrwt>0</asrwt>
<pdfrwt beam="1">  1       21 0.76394064E-01 0.45699464E+03</pdfrwt>
<pdfrwt beam="2">  1       21 0.14780352E-01 0.45699464E+03</pdfrwt>
<totfact> 0.56568353E+04</totfact>
</mgrwt>
</event>
<event>
 7    0  0.4712189E-002  0.5031333E+03  0.7546771E-02  0.1012964E+00
         21   -1    0    0  502  501  0.00000000000E+00  0.00000000000E+00  0.17148456893E+03  0.17148456893E+03  0.00000000000E+00 0.  1.
         21   -1    0    0  501  502 -0.00000000000E+00 -0.00000000000E+00 -0.36904644517E+03  0.36904644517E+03  0.00000000000E+00 0.  1.
      99926    2    1    2    0    0  0.71054273576E-14 -0.71054273576E-14 -0.19756187623E+03  0.54053101410E+03  0.50313326491E+03 0.  0.
      99925    2    3    3    0    0  0.62148666551E+02  0.39303731691E+02 -0.26497479232E+03  0.38053335964E+03  0.26303375668E+03 0.  0.
         25    1    4    4    0    0  0.44117726399E+02  0.54403319845E+02 -0.16571605911E+03  0.21912420071E+03  0.12509000000E+03 0.  0.
         25    1    3    3    0    0 -0.62148666551E+02 -0.39303731691E+02  0.67412916085E+02  0.15999765446E+03  0.12509000000E+03 0.  0.
         25    1    4    4    0    0  0.18030940152E+02 -0.15099588154E+02 -0.99258733211E+02  0.16140915892E+03  0.12509000000E+03 0.  0.
<mgrwt>
<rscale>  2 0.50313326E+03</rscale>
<asrwt>0</asrwt>
<pdfrwt beam="1">  1       21 0.25218319E-01 0.50313326E+03</pdfrwt>
<pdfrwt beam="2">  1       21 0.54271535E-01 0.50313326E+03</pdfrwt>
<totfact> 0.43407000E+04</totfact>
</mgrwt>
</event>
<event>
 7    0  0.4712189E-002  0.4137962E+03  0.7546771E-02  0.1039105E+00
         21   -1    0    0  502  501  0.00000000000E+00  0.00000000000E+00  0.20360322401E+03  0.20360322401E+03  0.00000000000E+00 0. -1.
         21   -1    0    0  501  502 -0.00000000000E+00 -0.00000000000E+00 -0.21024631009E+03  0.21024631009E+03  0.00000000000E+00 0. -1.
      99926    2    1    2    0    0  0.00000000000E+00  0.00000000000E+00 -0.66430860843E+01  0.41384953410E+03  0.41379621347E+03 0.  0.
      99925    2    3    3    0    0  0.53393738997E+02  0.37929085533E+02  0.12769885458E+02  0.27132277010E+03  0.26298948402E+03 0.  0.
         25    1    4    4    0    0  0.16440788140E+02  0.24430329573E+02  0.45225982174E+02  0.13623523069E+03  0.12509000000E+03 0.  0.
         25    1    3    3    0    0 -0.53393738997E+02 -0.37929085533E+02 -0.19412971543E+02  0.14252676400E+03  0.12509000000E+03 0.  0.
         25    1    4    4    0    0  0.36952950857E+02  0.13498755961E+02 -0.32456096715E+02  0.13508753941E+03  0.12509000000E+03 0.  0.
<mgrwt>
<rscale>  2 0.41379621E+03</rscale>
<asrwt>0</asrwt>
<pdfrwt beam="1">  1       21 0.29941651E-01 0.41379621E+03</pdfrwt>
<pdfrwt beam="2">  1       21 0.30918575E-01 0.41379621E+03</pdfrwt>
<totfact> 0.10101730E+05</totfact>
</mgrwt>
</event>
<event>
 7    0  0.4712189E-002  0.4528447E+03  0.7546771E-02  0.1026877E+00
         21   -1    0    0  502  501  0.00000000000E+00  0.00000000000E+00  0.29896601697E+03  0.29896601697E+03  0.00000000000E+00 0. -1.
         21   -1    0    0  501  502 -0.00000000000E+00 -0.00000000000E+00 -0.17148130954E+03  0.17148130954E+03  0.00000000000E+00 0. -1.
      99926    2    1    2    0    0 -0.35527136788E-14  0.00000000000E+00  0.12748470743E+03  0.47044732652E+03  0.45284471555E+03 0.  0.
      99925    2    3    3    0    0  0.24578907321E+02  0.99564649829E+02  0.12512224820E+03  0.30867485823E+03  0.26288276651E+03 0.  0.
         25    1    4    4    0    0  0.64913664710E+01  0.18911435645E+02  0.27101442306E+02  0.12954449626E+03  0.12509000000E+03 0.  0.
         25    1    3    3    0    0 -0.24578907321E+02 -0.99564649829E+02  0.23624592306E+01  0.16177246828E+03  0.12509000000E+03 0.  0.
         25    1    4    4    0    0  0.18087540850E+02  0.80653214184E+02  0.98020805890E+02  0.17913036197E+03  0.12509000000E+03 0.  0.
<mgrwt>
<rscale>  2 0.45284472E+03</rscale>
<asrwt>0</asrwt>
<pdfrwt beam="1">  1       21 0.43965591E-01 0.45284472E+03</pdfrwt>
<pdfrwt beam="2">  1       21 0.25217840E-01 0.45284472E+03</pdfrwt>
<totfact> 0.68567468E+04</totfact>
</mgrwt>
</event>
<event>
 7    0  0.4712189E-002  0.4519707E+03  0.7546771E-02  0.1027136E+00
         21   -1    0    0  502  501  0.00000000000E+00  0.00000000000E+00  0.77856435884E+03  0.77856435884E+03  0.00000000000E+00 0. -1.
         21   -1    0    0  501  502 -0.00000000000E+00 -0.00000000000E+00 -0.65594284422E+02  0.65594284422E+02  0.00000000000E+00 0. -1.
      99926    2    1    2    0    0  0.00000000000E+00  0.00000000000E+00  0.71297007442E+03  0.84415864327E+03  0.45197067159E+03 0.  0.
      99925    2    3    3    0    0  0.91246148263E+02 -0.19310291997E+02  0.55967312481E+03  0.62542087833E+03  0.26309413042E+03 0.  0.
         25    1    3    3    0    0 -0.91246148263E+02  0.19310291997E+02  0.15329694961E+03  0.21873776494E+03  0.12509000000E+03 0.  0.
         25    1    4    4    0    0  0.48998871307E+02 -0.43902365065E+02  0.33613804489E+03  0.36464311370E+03  0.12509000000E+03 0.  0.
         25    1    4    4    0    0  0.42247276956E+02  0.24592073068E+02  0.22353507992E+03  0.26077776462E+03  0.12509000000E+03 0.  0.
<mgrwt>
<rscale>  2 0.45197067E+03</rscale>
<asrwt>0</asrwt>
<pdfrwt beam="1">  1       21 0.11449475E+00 0.45197067E+03</pdfrwt>
<pdfrwt beam="2">  1       21 0.96462187E-02 0.45197067E+03</pdfrwt>
<totfact> 0.46804255E+04</totfact>
</mgrwt>
</event>
<event>
 7    0  0.4712189E-002  0.4549647E+03  0.7546771E-02  0.1026252E+00
         21   -1    0    0  502  501  0.00000000000E+00  0.00000000000E+00  0.46068791408E+03  0.46068791408E+03  0.00000000000E+00 0.  1.
         21   -1    0    0  501  502 -0.00000000000E+00 -0.00000000000E+00 -0.11232813062E+03  0.11232813062E+03  0.00000000000E+00 0.  1.
      99926    2    1    2    0    0  0.00000000000E+00  0.35527136788E-14  0.34835978346E+03  0.57301604470E+03  0.45496466758E+03 0.  0.
      99925    2    3    3    0    0 -0.24139058228E+02 -0.30712158395E+02  0.35266942322E+03  0.44189773209E+03  0.26338555911E+03 0.  0.
         25    1    4    4    0    0 -0.37485816965E+02 -0.48279014940E+02  0.18163797589E+03  0.22885784265E+03  0.12509000000E+03 0.  0.
         25    1    4    4    0    0  0.13346758737E+02  0.17566856546E+02  0.17103144733E+03  0.21303988944E+03  0.12509000000E+03 0.  0.
         25    1    3    3    0    0  0.24139058228E+02  0.30712158395E+02 -0.43096397562E+01  0.13111831260E+03  0.12509000000E+03 0.  0.
<mgrwt>
<rscale>  2 0.45496467E+03</rscale>
<asrwt>0</asrwt>
<pdfrwt beam="1">  1       21 0.67748222E-01 0.45496467E+03</pdfrwt>
<pdfrwt beam="2">  1       21 0.16518843E-01 0.45496467E+03</pdfrwt>
<totfact> 0.60387593E+04</totfact>
</mgrwt>
</event>
<event>
 7    0  0.4712189E-002  0.4539838E+03  0.7546771E-02  0.1026541E+00
         21   -1    0    0  502  501  0.00000000000E+00  0.00000000000E+00  0.15132545104E+03  0.15132545104E+03  0.00000000000E+00 0.  1.
         21   -1    0    0  501  502 -0.00000000000E+00 -0.00000000000E+00 -0.34049342792E+03  0.34049342792E+03  0.00000000000E+00 0.  1.
      99926    2    1    2    0    0  0.00000000000E+00  0.00000000000E+00 -0.18916797688E+03  0.49181887896E+03  0.45398379511E+03 0.  0.
      99925    2    3    3    0    0  0.16954644623E+02  0.16318508080E+02 -0.23799599406E+03  0.35549046284E+03  0.26301639169E+03 0.  0.
         25    1    3    3    0    0 -0.16954644623E+02 -0.16318508080E+02  0.48828017185E+02  0.13632841612E+03  0.12509000000E+03 0.  0.
         25    1    4    4    0    0 -0.44310141642E+01  0.38059247003E+00 -0.16857341366E+03  0.20996257436E+03  0.12509000000E+03 0.  0.
         25    1    4    4    0    0  0.21385658787E+02  0.15937915610E+02 -0.69422580401E+02  0.14552788848E+03  0.12509000000E+03 0.  0.
<mgrwt>
<rscale>  2 0.45398380E+03</rscale>
<asrwt>0</asrwt>
<pdfrwt beam="1">  1       21 0.22253743E-01 0.45398380E+03</pdfrwt>
<pdfrwt beam="2">  1       21 0.50072563E-01 0.45398380E+03</pdfrwt>
<totfact> 0.66383233E+04</totfact>
</mgrwt>
</event>
<event>
 7    0  0.4712189E-002  0.4538923E+03  0.7546771E-02  0.1026568E+00
         21   -1    0    0  502  501  0.00000000000E+00  0.00000000000E+00  0.42978766372E+03  0.42978766372E+03  0.00000000000E+00 0. -1.
         21   -1    0    0  501  502 -0.00000000000E+00 -0.00000000000E+00 -0.11983722631E+03  0.11983722631E+03  0.00000000000E+00 0. -1.
      99926    2    1    2    0    0  0.14210854715E-13 -0.17763568394E-14  0.30995043740E+03  0.54962489003E+03  0.45389232874E+03 0.  0.
      99925    2    3    3    0    0  0.11170871244E+03 -0.94279740119E+01  0.19056656546E+03  0.34354786533E+03  0.26294827776E+03 0.  0.
         25    1    3    3    0    0 -0.11170871244E+03  0.94279740119E+01  0.11938387195E+03  0.20607702470E+03  0.12509000000E+03 0.  0.
         25    1    4    4    0    0  0.45397582872E+02 -0.43904675388E+02  0.92577145155E+02  0.16794819724E+03  0.12509000000E+03 0.  0.
         25    1    4    4    0    0  0.66311129563E+02  0.34476701376E+02  0.97989420302E+02  0.17559966809E+03  0.12509000000E+03 0.  0.
<mgrwt>
<rscale>  2 0.45389233E+03</rscale>
<asrwt>0</asrwt>
<pdfrwt beam="1">  1       21 0.63204067E-01 0.45389233E+03</pdfrwt>
<pdfrwt beam="2">  1       21 0.17623122E-01 0.45389233E+03</pdfrwt>
<totfact> 0.62436696E+04</totfact>
</mgrwt>
</event>
<event>
 7    0  0.4712189E-002  0.4524453E+03  0.7546771E-02  0.1026995E+00
         21   -1    0    0  502  501  0.00000000000E+00  0.00000000000E+00  0.43769711943E+03  0.43769711943E+03  0.00000000000E+00 0. -1.
         21   -1    0    0  501  502 -0.00000000000E+00 -0.00000000000E+00 -0.11692262683E+03  0.11692262683E+03  0.00000000000E+00 0. -1.
      99926    2    1    2    0    0  0.00000000000E+00  0.00000000000E+00  0.32077449259E+03  0.55461974626E+03  0.45244534238E+03 0.  0.
      99925    2    3    3    0    0  0.19342297249E+02  0.10738673346E+03  0.22202870434E+03  0.36147660301E+03  0.26355749655E+03 0.  0.
         25    1    3    3    0    0 -0.19342297249E+02 -0.10738673346E+03  0.98745788250E+02  0.19314314325E+03  0.12509000000E+03 0.  0.
         25    1    4    4    0    0 -0.13315893551E+02  0.90284788801E+02  0.12027055357E+03  0.19606419935E+03  0.12509000000E+03 0.  0.
         25    1    4    4    0    0  0.32658190799E+02  0.17101944661E+02  0.10175815077E+03  0.16541240366E+03  0.12509000000E+03 0.  0.
<mgrwt>
<rscale>  2 0.45244534E+03</rscale>
<asrwt>0</asrwt>
<pdfrwt beam="1">  1       21 0.64367223E-01 0.45244534E+03</pdfrwt>
<pdfrwt beam="2">  1       21 0.17194504E-01 0.45244534E+03</pdfrwt>
<totfact> 0.62822291E+04</totfact>
</mgrwt>
</event>
<event>
 7    0  0.4712189E-002  0.4554941E+03  0.7546771E-02  0.1026096E+00
         21   -1    0    0  502  501  0.00000000000E+00  0.00000000000E+00  0.13327266984E+03  0.13327266984E+03  0.00000000000E+00 0.  1.
         21   -1    0    0  501  502 -0.00000000000E+00 -0.00000000000E+00 -0.38919241741E+03  0.38919241741E+03  0.00000000000E+00 0.  1.
      99926    2    1    2    0    0 -0.17763568394E-14  0.00000000000E+00 -0.25591974757E+03  0.52246508726E+03  0.45549407263E+03 0.  0.
      99925    2    3    3    0    0 -0.12455670750E+02 -0.89616057704E+02 -0.23974767642E+03  0.36723871863E+03  0.26305730665E+03 0.  0.
         25    1    4    4    0    0 -0.15756279189E+02 -0.32652101900E+01 -0.11119423480E+03  0.16813859724E+03  0.12509000000E+03 0.  0.
         25    1    3    3    0    0  0.12455670750E+02  0.89616057704E+02 -0.16172071153E+02  0.15522636863E+03  0.12509000000E+03 0.  0.
         25    1    4    4    0    0  0.33006084385E+01 -0.86350847514E+02 -0.12855344162E+03  0.19910012138E+03  0.12509000000E+03 0.  0.
<mgrwt>
<rscale>  2 0.45549407E+03</rscale>
<asrwt>0</asrwt>
<pdfrwt beam="1">  1       21 0.19598922E-01 0.45549407E+03</pdfrwt>
<pdfrwt beam="2">  1       21 0.57234179E-01 0.45549407E+03</pdfrwt>
<totfact> 0.63470434E+04</totfact>
</mgrwt>
</event>
<event>
 7    0  0.4712189E-002  0.4509754E+03  0.7546771E-02  0.1027432E+00
         21   -1    0    0  502  501  0.00000000000E+00  0.00000000000E+00  0.45056618555E+03  0.45056618555E+03  0.00000000000E+00 0. -1.
         21   -1    0    0  501  502 -0.00000000000E+00 -0.00000000000E+00 -0.11284626953E+03  0.11284626953E+03  0.00000000000E+00 0. -1.
      99926    2    1    2    0    0  0.00000000000E+00  0.00000000000E+00  0.33771991602E+03  0.56341245508E+03  0.45097544597E+03 0.  0.
      99925    2    3    3    0    0 -0.10617150400E+03  0.11566686470E+02  0.18384015470E+03  0.33817332540E+03  0.26297874255E+03 0.  0.
         25    1    4    4    0    0 -0.32899164938E+02 -0.79253884659E+01  0.46932233141E+02  0.13782347203E+03  0.12509000000E+03 0.  0.
         25    1    4    4    0    0 -0.73272339062E+02  0.19492074936E+02  0.13690792156E+03  0.20034985337E+03  0.12509000000E+03 0.  0.
         25    1    3    3    0    0  0.10617150400E+03 -0.11566686470E+02  0.15387976132E+03  0.22523912968E+03  0.12509000000E+03 0.  0.
<mgrwt>
<rscale>  2 0.45097545E+03</rscale>
<asrwt>0</asrwt>
<pdfrwt beam="1">  1       21 0.66259733E-01 0.45097545E+03</pdfrwt>
<pdfrwt beam="2">  1       21 0.16595040E-01 0.45097545E+03</pdfrwt>
<totfact> 0.62969359E+04</totfact>
</mgrwt>
</event>
<event>
 7    0  0.4712189E-002  0.4551223E+03  0.7546771E-02  0.1026205E+00
         21   -1    0    0  502  501  0.00000000000E+00  0.00000000000E+00  0.91925175536E+03  0.91925175536E+03  0.00000000000E+00 0.  1.
         21   -1    0    0  501  502 -0.00000000000E+00 -0.00000000000E+00 -0.56332849569E+02  0.56332849569E+02  0.00000000000E+00 0.  1.
      99926    2    1    2    0    0 -0.71054273576E-14  0.14210854715E-13  0.86291890579E+03  0.97558460493E+03  0.45512227302E+03 0.  0.
      99925    2    3    3    0    0 -0.49306790412E+02  0.10135681596E+03  0.57241913492E+03  0.63981386663E+03  0.26266662176E+03 0.  0.
         25    1    4    4    0    0 -0.62086575164E+02  0.64917533814E+02  0.28379633198E+03  0.32288836330E+03  0.12509000000E+03 0.  0.
         25    1    3    3    0    0  0.49306790412E+02 -0.10135681596E+03  0.29049977087E+03  0.33577073830E+03  0.12509000000E+03 0.  0.
         25    1    4    4    0    0  0.12779784752E+02  0.36439282141E+02  0.28862280294E+03  0.31692550333E+03  0.12509000000E+03 0.  0.
<mgrwt>
<rscale>  2 0.45512227E+03</rscale>
<asrwt>0</asrwt>
<pdfrwt beam="1">  1       21 0.13518407E+00 0.45512227E+03</pdfrwt>
<pdfrwt beam="2">  1       21 0.82842432E-02 0.45512227E+03</pdfrwt>
<totfact> 0.40083439E+04</totfact>
</mgrwt>
</event>
<event>
 7    0  0.4712189E-002  0.4288876E+03  0.7546771E-02  0.1034212E+00
         21   -1    0    0  502  501  0.00000000000E+00  0.00000000000E+00  0.12594848638E+03  0.12594848638E+03  0.00000000000E+00 0.  1.
         21   -1    0    0  501  502 -0.00000000000E+00 -0.00000000000E+00 -0.36511871440E+03  0.36511871440E+03  0.00000000000E+00 0.  1.
      99926    2    1    2    0    0  0.00000000000E+00  0.00000000000E+00 -0.23917022802E+03  0.49106720077E+03  0.42888762830E+03 0.  0.
      99925    2    3    3    0    0  0.77179559551E+02  0.20775100134E+02 -0.19314600189E+03  0.33565154297E+03  0.26261814686E+03 0.  0.
         25    1    3    3    0    0 -0.77179559551E+02 -0.20775100134E+02 -0.46024226135E+02  0.15541565780E+03  0.12509000000E+03 0.  0.
         25    1    4    4    0    0  0.13359217684E+02  0.40325477447E+02 -0.10444987344E+03  0.16840990764E+03  0.12509000000E+03 0.  0.
         25    1    4    4    0    0  0.63820341867E+02 -0.19550377313E+02 -0.88696128443E+02  0.16724163534E+03  0.12509000000E+03 0.  0.
<mgrwt>
<rscale>  2 0.42888763E+03</rscale>
<asrwt>0</asrwt>
<pdfrwt beam="1">  1       21 0.18521836E-01 0.42888763E+03</pdfrwt>
<pdfrwt beam="2">  1       21 0.53693929E-01 0.42888763E+03</pdfrwt>
<totfact> 0.81533994E+04</totfact>
</mgrwt>
</event>
<event>
 7    0  0.4712189E-002  0.4481732E+03  0.7546771E-02  0.1028268E+00
         21   -1    0    0  502  501  0.00000000000E+00  0.00000000000E+00  0.12635034897E+04  0.12635034897E+04  0.00000000000E+00 0. -1.
         21   -1    0    0  501  502 -0.00000000000E+00 -0.00000000000E+00 -0.39742511324E+02  0.39742511324E+02  0.00000000000E+00 0. -1.
      99926    2    1    2    0    0  0.00000000000E+00  0.14210854715E-13  0.12237609784E+04  0.13032460010E+04  0.44817318861E+03 0.  0.
      99925    2    3    3    0    0  0.84560072480E+01  0.98661036227E+02  0.89545830194E+03  0.93823139915E+03  0.26196771501E+03 0.  0.
         25    1    4    4    0    0  0.16192837761E+02  0.86153789297E+02  0.44443501910E+03  0.46995178232E+03  0.12509000000E+03 0.  0.
         25    1    3    3    0    0 -0.84560072480E+01 -0.98661036227E+02  0.32830267646E+03  0.36501460189E+03  0.12509000000E+03 0.  0.
         25    1    4    4    0    0 -0.77368305125E+01  0.12507246930E+02  0.45102328284E+03  0.46827961683E+03  0.12509000000E+03 0.  0.
<mgrwt>
<rscale>  2 0.44817319E+03</rscale>
<asrwt>0</asrwt>
<pdfrwt beam="1">  1       21 0.18580931E+00 0.44817319E+03</pdfrwt>
<pdfrwt beam="2">  1       21 0.58444878E-02 0.44817319E+03</pdfrwt>
<totfact> 0.30613917E+04</totfact>
</mgrwt>
</event>
<event>
 7    0  0.4712189E-002  0.4570274E+03  0.7546771E-02  0.1025647E+00
         21   -1    0    0  502  501  0.00000000000E+00  0.00000000000E+00  0.10428684910E+03  0.10428684910E+03  0.00000000000E+00 0.  1.
         21   -1    0    0  501  502 -0.00000000000E+00 -0.00000000000E+00 -0.50072009409E+03  0.50072009409E+03  0.00000000000E+00 0.  1.
      99926    2    1    2    0    0  0.00000000000E+00  0.00000000000E+00 -0.39643324499E+03  0.60500694318E+03  0.45702744291E+03 0.  0.
      99925    2    3    3    0    0  0.37316798630E+02  0.71023504024E+02 -0.13989780323E+03  0.30853633324E+03  0.26303306255E+03 0.  0.
         25    1    4    4    0    0  0.24490033629E+02  0.23469206038E+02 -0.11186540957E+03  0.17120731099E+03  0.12509000000E+03 0.  0.
         25    1    3    3    0    0 -0.37316798630E+02 -0.71023504024E+02 -0.25653544176E+03  0.29647060995E+03  0.12509000000E+03 0.  0.
         25    1    4    4    0    0  0.12826765001E+02  0.47554297986E+02 -0.28032393662E+02  0.13732902225E+03  0.12509000000E+03 0.  0.
<mgrwt>
<rscale>  2 0.45702744E+03</rscale>
<asrwt>0</asrwt>
<pdfrwt beam="1">  1       21 0.15336301E-01 0.45702744E+03</pdfrwt>
<pdfrwt beam="2">  1       21 0.73635311E-01 0.45702744E+03</pdfrwt>
<totfact> 0.57445473E+04</totfact>
</mgrwt>
</event>
<event>
 7    0  0.4712189E-002  0.4575305E+03  0.7546771E-02  0.1025500E+00
         21   -1    0    0  502  501  0.00000000000E+00  0.00000000000E+00  0.48131114295E+03  0.48131114295E+03  0.00000000000E+00 0.  1.
         21   -1    0    0  501  502 -0.00000000000E+00 -0.00000000000E+00 -0.10873120500E+03  0.10873120500E+03  0.00000000000E+00 0.  1.
      99926    2    1    2    0    0  0.00000000000E+00  0.00000000000E+00  0.37257993795E+03  0.59004234795E+03  0.45753050413E+03 0.  0.
      99925    2    3    3    0    0 -0.67690431995E+02  0.85984908714E+02  0.28163954225E+03  0.40058770224E+03  0.26301003083E+03 0.  0.
         25    1    4    4    0    0 -0.27651841121E+02  0.55602402999E+02  0.89504035910E+02  0.16587565247E+03  0.12509000000E+03 0.  0.
         25    1    3    3    0    0  0.67690431995E+02 -0.85984908714E+02  0.90940395694E+02  0.18945464571E+03  0.12509000000E+03 0.  0.
         25    1    4    4    0    0 -0.40038590874E+02  0.30382505715E+02  0.19213550634E+03  0.23471204978E+03  0.12509000000E+03 0.  0.
<mgrwt>
<rscale>  2 0.45753050E+03</rscale>
<asrwt>0</asrwt>
<pdfrwt beam="1">  1       21 0.70781049E-01 0.45753050E+03</pdfrwt>
<pdfrwt beam="2">  1       21 0.15989883E-01 0.45753050E+03</pdfrwt>
<totfact> 0.58124170E+04</totfact>
</mgrwt>
</event>
<event>
 7    0  0.4712189E-002  0.4344211E+03  0.7546771E-02  0.1032472E+00
         21   -1    0    0  502  501  0.00000000000E+00  0.00000000000E+00  0.36418700050E+03  0.36418700050E+03  0.00000000000E+00 0. -1.
         21   -1    0    0  501  502 -0.00000000000E+00 -0.00000000000E+00 -0.12954996999E+03  0.12954996999E+03  0.00000000000E+00 0. -1.
      99926    2    1    2    0    0  0.17763568394E-14  0.00000000000E+00  0.23463703051E+03  0.49373697049E+03  0.43442106296E+03 0.  0.
      99925    2    3    3    0    0 -0.12377263016E+02  0.55141341209E+02  0.23354022756E+03  0.35646907466E+03  0.26331615816E+03 0.  0.
         25    1    4    4    0    0 -0.67440031354E+01 -0.32403410113E+01  0.74445175713E+02  0.14575861441E+03  0.12509000000E+03 0.  0.
         25    1    4    4    0    0 -0.56332598807E+01  0.58381682220E+02  0.15909505184E+03  0.21071046025E+03  0.12509000000E+03 0.  0.
         25    1    3    3    0    0  0.12377263016E+02 -0.55141341209E+02  0.10968029495E+01  0.13726789583E+03  0.12509000000E+03 0.  0.
<mgrwt>
<rscale>  2 0.43442106E+03</rscale>
<asrwt>0</asrwt>
<pdfrwt beam="1">  1       21 0.53556912E-01 0.43442106E+03</pdfrwt>
<pdfrwt beam="2">  1       21 0.19051466E-01 0.43442106E+03</pdfrwt>
<totfact> 0.77640232E+04</totfact>
</mgrwt>
</event>
<event>
 7    0  0.4712189E-002  0.4595092E+03  0.7546771E-02  0.1024924E+00
         21   -1    0    0  502  501  0.00000000000E+00  0.00000000000E+00  0.14147046317E+03  0.14147046317E+03  0.00000000000E+00 0.  1.
         21   -1    0    0  501  502 -0.00000000000E+00 -0.00000000000E+00 -0.37313219690E+03  0.37313219690E+03  0.00000000000E+00 0.  1.
      99926    2    1    2    0    0 -0.28421709430E-13  0.71054273576E-14 -0.23166173374E+03  0.51460266007E+03  0.45950923699E+03 0.  0.
      99925    2    3    3    0    0  0.11155840628E+03 -0.35427614727E+02 -0.15423272325E+03  0.32660491098E+03  0.26302593230E+03 0.  0.
         25    1    4    4    0    0  0.30133280189E+02 -0.36255705164E+02 -0.42887407750E+02  0.14038991622E+03  0.12509000000E+03 0.  0.
         25    1    4    4    0    0  0.81425126091E+02  0.82809043735E+00 -0.11134531550E+03  0.18621499477E+03  0.12509000000E+03 0.  0.
         25    1    3    3    0    0 -0.11155840628E+03  0.35427614727E+02 -0.77429010489E+02  0.18799774909E+03  0.12509000000E+03 0.  0.
<mgrwt>
<rscale>  2 0.45950924E+03</rscale>
<asrwt>0</asrwt>
<pdfrwt beam="1">  1       21 0.20804480E-01 0.45950924E+03</pdfrwt>
<pdfrwt beam="2">  1       21 0.54872381E-01 0.45950924E+03</pdfrwt>
<totfact> 0.62007681E+04</totfact>
</mgrwt>
</event>
<event>
 7    0  0.4712189E-002  0.4429544E+03  0.7546771E-02  0.1029844E+00
         21   -1    0    0  502  501  0.00000000000E+00  0.00000000000E+00  0.31758736115E+03  0.31758736115E+03  0.00000000000E+00 0.  1.
         21   -1    0    0  501  502 -0.00000000000E+00 -0.00000000000E+00 -0.15445247642E+03  0.15445247642E+03  0.00000000000E+00 0.  1.
      99926    2    1    2    0    0  0.71054273576E-14  0.71054273576E-14  0.16313488474E+03  0.47203983757E+03  0.44295441937E+03 0.  0.
      99925    2    3    3    0    0 -0.56548609130E+02 -0.30692634676E+02  0.20092365708E+02  0.27141966568E+03  0.26291661937E+03 0.  0.
         25    1    4    4    0    0 -0.11640109981E+02  0.22296742471E+02  0.92553078947E+01  0.12792890881E+03  0.12509000000E+03 0.  0.
         25    1    3    3    0    0  0.56548609130E+02  0.30692634676E+02  0.14304251903E+03  0.20062017189E+03  0.12509000000E+03 0.  0.
         25    1    4    4    0    0 -0.44908499149E+02 -0.52989377147E+02  0.10837057814E+02  0.14349075687E+03  0.12509000000E+03 0.  0.
<mgrwt>
<rscale>  2 0.44295442E+03</rscale>
<asrwt>0</asrwt>
<pdfrwt beam="1">  1       21 0.46704024E-01 0.44295442E+03</pdfrwt>
<pdfrwt beam="2">  1       21 0.22713599E-01 0.44295442E+03</pdfrwt>
<totfact> 0.74121279E+04</totfact>
</mgrwt>
</event>
<event>
 7    0  0.4712189E-002  0.4946884E+03  0.7546771E-02  0.1015175E+00
         21   -1    0    0  502  501  0.00000000000E+00  0.00000000000E+00  0.10292471928E+04  0.10292471928E+04  0.00000000000E+00 0. -1.
         21   -1    0    0  501  502 -0.00000000000E+00 -0.00000000000E+00 -0.59440669119E+02  0.59440669119E+02  0.00000000000E+00 0. -1.
      99926    2    1    2    0    0 -0.17763568394E-14  0.00000000000E+00  0.96980652365E+03  0.10886878619E+04  0.49468835372E+03 0.  0.
      99925    2    3    3    0    0  0.12783026126E+02 -0.13537720671E+03  0.71569505002E+03  0.77450552154E+03  0.26296198286E+03 0.  0.
         25    1    4    4    0    0 -0.32887565934E+02 -0.69895361177E+02  0.38134871087E+03  0.40870686426E+03  0.12509000000E+03 0.  0.
         25    1    3    3    0    0 -0.12783026126E+02  0.13537720671E+03  0.25411147364E+03  0.31418234035E+03  0.12509000000E+03 0.  0.
         25    1    4    4    0    0  0.45670592060E+02 -0.65481845531E+02  0.33434633914E+03  0.36579865729E+03  0.12509000000E+03 0.  0.
<mgrwt>
<rscale>  2 0.49468835E+03</rscale>
<asrwt>0</asrwt>
<pdfrwt beam="1">  1       21 0.15135987E+00 0.49468835E+03</pdfrwt>
<pdfrwt beam="2">  1       21 0.87412755E-02 0.49468835E+03</pdfrwt>
<totfact> 0.26634337E+04</totfact>
</mgrwt>
</event>
<event>
 7    0  0.4712189E-002  0.4646034E+03  0.7546771E-02  0.1023454E+00
         21   -1    0    0  502  501  0.00000000000E+00  0.00000000000E+00  0.32189973629E+03  0.32189973629E+03  0.00000000000E+00 0. -1.
         21   -1    0    0  501  502 -0.00000000000E+00 -0.00000000000E+00 -0.16764253218E+03  0.16764253218E+03  0.00000000000E+00 0. -1.
      99926    2    1    2    0    0  0.88817841970E-15  0.00000000000E+00  0.15425720410E+03  0.48954226847E+03  0.46460343046E+03 0.  0.
      99925    2    3    3    0    0  0.13671827194E+01  0.73437413011E+02  0.20002107634E+03  0.33743453388E+03  0.26164615583E+03 0.  0.
         25    1    3    3    0    0 -0.13671827194E+01 -0.73437413011E+02 -0.45763872237E+02  0.15210773458E+03  0.12509000000E+03 0.  0.
         25    1    4    4    0    0  0.31931192797E+02  0.16356800969E+02  0.10878270429E+03  0.16961229574E+03  0.12509000000E+03 0.  0.
         25    1    4    4    0    0 -0.30564010078E+02  0.57080612042E+02  0.91238372048E+02  0.16782223815E+03  0.12509000000E+03 0.  0.
<mgrwt>
<rscale>  2 0.46460343E+03</rscale>
<asrwt>0</asrwt>
<pdfrwt beam="1">  1       21 0.47338197E-01 0.46460343E+03</pdfrwt>
<pdfrwt beam="2">  1       21 0.24653314E-01 0.46460343E+03</pdfrwt>
<totfact> 0.61210688E+04</totfact>
</mgrwt>
</event>
<event>
 7    0  0.4712189E-002  0.4565303E+03  0.7546771E-02  0.1025792E+00
         21   -1    0    0  502  501  0.00000000000E+00  0.00000000000E+00  0.65070922038E+02  0.65070922038E+02  0.00000000000E+00 0.  1.
         21   -1    0    0  501  502 -0.00000000000E+00 -0.00000000000E+00 -0.80074150267E+03  0.80074150267E+03  0.00000000000E+00 0.  1.
      99926    2    1    2    0    0  0.00000000000E+00 -0.14210854715E-13 -0.73567058063E+03  0.86581242471E+03  0.45653034025E+03 0.  0.
      99925    2    3    3    0    0 -0.32222478819E+02  0.72121329380E+02 -0.30437922089E+03  0.40985242714E+03  0.26285457506E+03 0.  0.
         25    1    3    3    0    0  0.32222478819E+02 -0.72121329380E+02 -0.43129135974E+03  0.45595999756E+03  0.12509000000E+03 0.  0.
         25    1    4    4    0    0 -0.19061261507E+02  0.62848903486E+02 -0.11426108848E+03  0.18170421239E+03  0.12509000000E+03 0.  0.
         25    1    4    4    0    0 -0.13161217312E+02  0.92724258941E+01 -0.19011813241E+03  0.22814821475E+03  0.12509000000E+03 0.  0.
<mgrwt>
<rscale>  2 0.45653034E+03</rscale>
<asrwt>0</asrwt>
<pdfrwt beam="1">  1       21 0.95692532E-02 0.45653034E+03</pdfrwt>
<pdfrwt beam="2">  1       21 0.11775610E+00 0.45653034E+03</pdfrwt>
<totfact> 0.44207031E+04</totfact>
</mgrwt>
</event>
<event>
 7    0  0.4712189E-002  0.4747379E+03  0.7546771E-02  0.1020591E+00
         21   -1    0    0  502  501  0.00000000000E+00  0.00000000000E+00  0.50572463729E+02  0.50572463729E+02  0.00000000000E+00 0.  1.
         21   -1    0    0  501  502 -0.00000000000E+00 -0.00000000000E+00 -0.11141244745E+04  0.11141244745E+04  0.00000000000E+00 0.  1.
      99926    2    1    2    0    0  0.00000000000E+00  0.35527136788E-14 -0.10635520108E+04  0.11646969382E+04  0.47473790485E+03 0.  0.
      99925    2    3    3    0    0  0.78505754639E+02  0.28368342350E+02 -0.90541054183E+03  0.94646736036E+03  0.26280087255E+03 0.  0.
         25    1    4    4    0    0  0.35634192640E+02  0.53313967685E+02 -0.43121262039E+03  0.45354603616E+03  0.12509000000E+03 0.  0.
         25    1    4    4    0    0  0.42871561998E+02 -0.24945625335E+02 -0.47419792144E+03  0.49292132420E+03  0.12509000000E+03 0.  0.
         25    1    3    3    0    0 -0.78505754639E+02 -0.28368342350E+02 -0.15814146896E+03  0.21822957788E+03  0.12509000000E+03 0.  0.
<mgrwt>
<rscale>  2 0.47473790E+03</rscale>
<asrwt>0</asrwt>
<pdfrwt beam="1">  1       21 0.74371275E-02 0.47473790E+03</pdfrwt>
<pdfrwt beam="2">  1       21 0.16384182E+00 0.47473790E+03</pdfrwt>
<totfact> 0.28631499E+04</totfact>
</mgrwt>
</event>
<event>
 7    0  0.4712189E-002  0.4684505E+03  0.7546771E-02  0.1022358E+00
         21   -1    0    0  502  501  0.00000000000E+00  0.00000000000E+00  0.43787301613E+02  0.43787301613E+02  0.00000000000E+00 0.  1.
         21   -1    0    0  501  502 -0.00000000000E+00 -0.00000000000E+00 -0.12529082327E+04  0.12529082327E+04  0.00000000000E+00 0.  1.
      99926    2    1    2    0    0  0.71054273576E-14  0.00000000000E+00 -0.12091209311E+04  0.12966955343E+04  0.46845051256E+03 0.  0.
      99925    2    3    3    0    0 -0.62002499679E+02  0.49191319138E+02 -0.10212602971E+04  0.10575235842E+04  0.26290576399E+03 0.  0.
         25    1    4    4    0    0  0.61446804996E+01  0.11792715704E+02 -0.41605476809E+03  0.43465607484E+03  0.12509000000E+03 0.  0.
         25    1    3    3    0    0  0.62002499679E+02 -0.49191319138E+02 -0.18786063397E+03  0.23917195015E+03  0.12509000000E+03 0.  0.
         25    1    4    4    0    0 -0.68147180178E+02  0.37398603433E+02 -0.60520552904E+03  0.62286750933E+03  0.12509000000E+03 0.  0.
<mgrwt>
<rscale>  2 0.46845051E+03</rscale>
<asrwt>0</asrwt>
<pdfrwt beam="1">  1       21 0.64393085E-02 0.46845051E+03</pdfrwt>
<pdfrwt beam="2">  1       21 0.18425123E+00 0.46845051E+03</pdfrwt>
<totfact> 0.26343959E+04</totfact>
</mgrwt>
</event>
<event>
 7    0  0.4712189E-002  0.5308586E+03  0.7546771E-02  0.1006024E+00
         21   -1    0    0  502  501  0.00000000000E+00  0.00000000000E+00  0.10329113927E+03  0.10329113927E+03  0.00000000000E+00 0. -1.
         21   -1    0    0  501  502 -0.00000000000E+00 -0.00000000000E+00 -0.68207887592E+03  0.68207887592E+03  0.00000000000E+00 0. -1.
      99926    2    1    2    0    0  0.71054273576E-14  0.00000000000E+00 -0.57878773665E+03  0.78537001519E+03  0.53085856559E+03 0.  0.
      99925    2    3    3    0    0  0.53647263271E+02  0.15962995368E+03 -0.41409394944E+03  0.51866549214E+03  0.26302156338E+03 0.  0.
         25    1    3    3    0    0 -0.53647263271E+02 -0.15962995368E+03 -0.16469378721E+03  0.26670452305E+03  0.12509000000E+03 0.  0.
         25    1    4    4    0    0 -0.77249094389E+01  0.95911571644E+02 -0.23358079385E+03  0.28189749761E+03  0.12509000000E+03 0.  0.
         25    1    4    4    0    0  0.61372172710E+02  0.63718382039E+02 -0.18051315559E+03  0.23676799453E+03  0.12509000000E+03 0.  0.
<mgrwt>
<rscale>  2 0.53085857E+03</rscale>
<asrwt>0</asrwt>
<pdfrwt beam="1">  1       21 0.15189874E-01 0.53085857E+03</pdfrwt>
<pdfrwt beam="2">  1       21 0.10030571E+00 0.53085857E+03</pdfrwt>
<totfact> 0.27824921E+04</totfact>
</mgrwt>
</event>
<event>
 7    0  0.4712189E-002  0.4596557E+03  0.7546771E-02  0.1024881E+00
         21   -1    0    0  502  501  0.00000000000E+00  0.00000000000E+00  0.93564456933E+02  0.93564456933E+02  0.00000000000E+00 0. -1.
         21   -1    0    0  501  502 -0.00000000000E+00 -0.00000000000E+00 -0.56453971547E+03  0.56453971547E+03  0.00000000000E+00 0. -1.
      99926    2    1    2    0    0 -0.14210854715E-13  0.00000000000E+00 -0.47097525854E+03  0.65810417240E+03  0.45965574899E+03 0.  0.
      99925    2    3    3    0    0  0.70454394547E+02 -0.90890608038E+02 -0.26077268341E+03  0.38781256130E+03  0.26300430786E+03 0.  0.
         25    1    4    4    0    0  0.12577155151E+02 -0.56497454243E+02 -0.17154475230E+03  0.22005739549E+03  0.12509000000E+03 0.  0.
         25    1    3    3    0    0 -0.70454394547E+02  0.90890608038E+02 -0.21020257513E+03  0.27029161110E+03  0.12509000000E+03 0.  0.
         25    1    4    4    0    0  0.57877239396E+02 -0.34393153795E+02 -0.89227931114E+02  0.16775516582E+03  0.12509000000E+03 0.  0.
<mgrwt>
<rscale>  2 0.45965575E+03</rscale>
<asrwt>0</asrwt>
<pdfrwt beam="1">  1       21 0.13759479E-01 0.45965575E+03</pdfrwt>
<pdfrwt beam="2">  1       21 0.83020548E-01 0.45965575E+03</pdfrwt>
<totfact> 0.53254371E+04</totfact>
</mgrwt>
</event>
<event>
 7    0  0.4712189E-002  0.4608382E+03  0.7546771E-02  0.1024538E+00
         21   -1    0    0  502  501  0.00000000000E+00  0.00000000000E+00  0.11102675797E+03  0.11102675797E+03  0.00000000000E+00 0.  1.
         21   -1    0    0  501  502 -0.00000000000E+00 -0.00000000000E+00 -0.47819968019E+03  0.47819968019E+03  0.00000000000E+00 0.  1.
      99926    2    1    2    0    0  0.00000000000E+00  0.14210854715E-13 -0.36717292221E+03  0.58922643816E+03  0.46083819353E+03 0.  0.
      99925    2    3    3    0    0 -0.64888058654E+02  0.98801501586E+02 -0.21242621320E+03  0.35778260281E+03  0.26250961496E+03 0.  0.
         25    1    4    4    0    0 -0.39873402495E+02  0.91404716967E+02 -0.12359603443E+03  0.20215884432E+03  0.12509000000E+03 0.  0.
         25    1    3    3    0    0  0.64888058654E+02 -0.98801501586E+02 -0.15474670901E+03  0.23144383535E+03  0.12509000000E+03 0.  0.
         25    1    4    4    0    0 -0.25014656159E+02  0.73967846188E+01 -0.88830178773E+02  0.15562375849E+03  0.12509000000E+03 0.  0.
<mgrwt>
<rscale>  2 0.46083819E+03</rscale>
<asrwt>0</asrwt>
<pdfrwt beam="1">  1       21 0.16327464E-01 0.46083819E+03</pdfrwt>
<pdfrwt beam="2">  1       21 0.70323483E-01 0.46083819E+03</pdfrwt>
<totfact> 0.56685025E+04</totfact>
</mgrwt>
</event>
<event>
 7    0  0.4712189E-002  0.4645583E+03  0.7546771E-02  0.1023467E+00
         21   -1    0    0  502  501  0.00000000000E+00  0.00000000000E+00  0.20090869064E+03  0.20090869064E+03  0.00000000000E+00 0. -1.
         21   -1    0    0  501  502 -0.00000000000E+00 -0.00000000000E+00 -0.26854783615E+03  0.26854783615E+03  0.00000000000E+00 0. -1.
      99926    2    1    2    0    0 -0.71054273576E-14 -0.35527136788E-14 -0.67639145507E+02  0.46945652680E+03  0.46455825958E+03 0.  0.
      99925    2    3    3    0    0  0.50787236941E+02  0.31884639328E+02  0.65051142957E+02  0.27749248221E+03  0.26301036638E+03 0.  0.
         25    1    4    4    0    0  0.81277224152E+01 -0.45246450495E+01 -0.73429153530E+00  0.12543755247E+03  0.12509000000E+03 0.  0.
         25    1    3    3    0    0 -0.50787236941E+02 -0.31884639328E+02 -0.13269028846E+03  0.19196404459E+03  0.12509000000E+03 0.  0.
         25    1    4    4    0    0  0.42659514526E+02  0.36409284378E+02  0.65785434492E+02  0.15205492974E+03  0.12509000000E+03 0.  0.
<mgrwt>
<rscale>  2 0.46455826E+03</rscale>
<asrwt>0</asrwt>
<pdfrwt beam="1">  1       21 0.29545396E-01 0.46455826E+03</pdfrwt>
<pdfrwt beam="2">  1       21 0.39492329E-01 0.46455826E+03</pdfrwt>
<totfact> 0.62588109E+04</totfact>
</mgrwt>
</event>
<event>
 7    0  0.4712189E-002  0.4558870E+03  0.7546771E-02  0.1025981E+00
         21   -1    0    0  502  501  0.00000000000E+00  0.00000000000E+00  0.40919502579E+02  0.40919502579E+02  0.00000000000E+00 0. -1.
         21   -1    0    0  501  502 -0.00000000000E+00 -0.00000000000E+00 -0.12697671896E+04  0.12697671896E+04  0.00000000000E+00 0. -1.
      99926    2    1    2    0    0  0.00000000000E+00  0.00000000000E+00 -0.12288476871E+04  0.13106866922E+04  0.45588701140E+03 0.  0.
      99925    2    3    3    0    0  0.14093073554E+02  0.11230502873E+03 -0.81232463078E+03  0.86129822027E+03  0.26296821915E+03 0.  0.
         25    1    4    4    0    0 -0.23189861793E+01  0.17993964222E+02 -0.41743370104E+03  0.43615084926E+03  0.12509000000E+03 0.  0.
         25    1    3    3    0    0 -0.14093073554E+02 -0.11230502873E+03 -0.41652305628E+03  0.44938847194E+03  0.12509000000E+03 0.  0.
         25    1    4    4    0    0  0.16412059734E+02  0.94311064504E+02 -0.39489092973E+03  0.42514737101E+03  0.12509000000E+03 0.  0.
<mgrwt>
<rscale>  2 0.45588701E+03</rscale>
<asrwt>0</asrwt>
<pdfrwt beam="1">  1       21 0.60175744E-02 0.45588701E+03</pdfrwt>
<pdfrwt beam="2">  1       21 0.18673045E+00 0.45588701E+03</pdfrwt>
<totfact> 0.28608052E+04</totfact>
</mgrwt>
</event>
<event>
 7    0  0.4712189E-002  0.4522695E+03  0.7546771E-02  0.1027047E+00
         21   -1    0    0  502  501  0.00000000000E+00  0.00000000000E+00  0.32164947556E+03  0.32164947556E+03  0.00000000000E+00 0. -1.
         21   -1    0    0  501  502 -0.00000000000E+00 -0.00000000000E+00 -0.15898338007E+03  0.15898338007E+03  0.00000000000E+00 0. -1.
      99926    2    1    2    0    0 -0.35527136788E-14 -0.35527136788E-14  0.16266609549E+03  0.48063285563E+03  0.45226948083E+03 0.  0.
      99925    2    3    3    0    0 -0.30600511255E+02 -0.25893690888E+02  0.21198347246E+03  0.34032395966E+03  0.26320435103E+03 0.  0.
         25    1    4    4    0    0 -0.24032018465E+02 -0.51258946454E+02  0.94105589147E+02  0.16645836570E+03  0.12509000000E+03 0.  0.
         25    1    3    3    0    0  0.30600511255E+02  0.25893690888E+02 -0.49317376972E+02  0.14030889597E+03  0.12509000000E+03 0.  0.
         25    1    4    4    0    0 -0.65684927903E+01  0.25365255566E+02  0.11787788331E+03  0.17386559396E+03  0.12509000000E+03 0.  0.
<mgrwt>
<rscale>  2 0.45226948E+03</rscale>
<asrwt>0</asrwt>
<pdfrwt beam="1">  1       21 0.47301393E-01 0.45226948E+03</pdfrwt>
<pdfrwt beam="2">  1       21 0.23379909E-01 0.45226948E+03</pdfrwt>
<totfact> 0.68118579E+04</totfact>
</mgrwt>
</event>
<event>
 7    0  0.4712189E-002  0.4494952E+03  0.7546771E-02  0.1027873E+00
         21   -1    0    0  502  501  0.00000000000E+00  0.00000000000E+00  0.12920803804E+03  0.12920803804E+03  0.00000000000E+00 0. -1.
         21   -1    0    0  501  502 -0.00000000000E+00 -0.00000000000E+00 -0.39093148058E+03  0.39093148058E+03  0.00000000000E+00 0. -1.
      99926    2    1    2    0    0  0.71054273576E-14  0.00000000000E+00 -0.26172344254E+03  0.52013951862E+03  0.44949522628E+03 0.  0.
      99925    2    3    3    0    0  0.39015416770E+02 -0.77692877605E+02 -0.91354634409E+02  0.29159756435E+03  0.26291649688E+03 0.  0.
         25    1    3    3    0    0 -0.39015416770E+02  0.77692877605E+02 -0.17036880813E+03  0.22854195427E+03  0.12509000000E+03 0.  0.
         25    1    4    4    0    0  0.44887600661E+02 -0.71903515974E+02 -0.41626113989E+02  0.15673306533E+03  0.12509000000E+03 0.  0.
         25    1    4    4    0    0 -0.58721838914E+01 -0.57893616309E+01 -0.49728520420E+02  0.13486449902E+03  0.12509000000E+03 0.  0.
<mgrwt>
<rscale>  2 0.44949523E+03</rscale>
<asrwt>0</asrwt>
<pdfrwt beam="1">  1       21 0.19001182E-01 0.44949523E+03</pdfrwt>
<pdfrwt beam="2">  1       21 0.57489923E-01 0.44949523E+03</pdfrwt>
<totfact> 0.66744429E+04</totfact>
</mgrwt>
</event>
<event>
 7    0  0.4712189E-002  0.4583827E+03  0.7546771E-02  0.1025251E+00
         21   -1    0    0  502  501  0.00000000000E+00  0.00000000000E+00  0.66873096178E+02  0.66873096178E+02  0.00000000000E+00 0. -1.
         21   -1    0    0  501  502 -0.00000000000E+00 -0.00000000000E+00 -0.78549787630E+03  0.78549787630E+03  0.00000000000E+00 0. -1.
      99926    2    1    2    0    0 -0.35527136788E-14  0.00000000000E+00 -0.71862478013E+03  0.85237097248E+03  0.45838270050E+03 0.  0.
      99925    2    3    3    0    0 -0.17779103140E+02 -0.71682356842E+02 -0.61799793878E+03  0.67565728855E+03  0.26293889487E+03 0.  0.
         25    1    4    4    0    0 -0.44318759247E+02 -0.22526394331E+02 -0.34178345176E+03  0.36733503354E+03  0.12509000000E+03 0.  0.
         25    1    3    3    0    0  0.17779103140E+02  0.71682356842E+02 -0.10062684134E+03  0.17671368393E+03  0.12509000000E+03 0.  0.
         25    1    4    4    0    0  0.26539656107E+02 -0.49155962511E+02 -0.27621448702E+03  0.30832225501E+03  0.12509000000E+03 0.  0.
<mgrwt>
<rscale>  2 0.45838270E+03</rscale>
<asrwt>0</asrwt>
<pdfrwt beam="1">  1       21 0.98342785E-02 0.45838270E+03</pdfrwt>
<pdfrwt beam="2">  1       21 0.11551440E+00 0.45838270E+03</pdfrwt>
<totfact> 0.44150248E+04</totfact>
</mgrwt>
</event>
<event>
 7    0  0.4712189E-002  0.4564063E+03  0.7546771E-02  0.1025829E+00
         21   -1    0    0  502  501  0.00000000000E+00  0.00000000000E+00  0.67153341011E+03  0.67153341011E+03  0.00000000000E+00 0. -1.
         21   -1    0    0  501  502 -0.00000000000E+00 -0.00000000000E+00 -0.77548900067E+02  0.77548900067E+02  0.00000000000E+00 0. -1.
      99926    2    1    2    0    0  0.17763568394E-14  0.00000000000E+00  0.59398451004E+03  0.74908231017E+03  0.45640629843E+03 0.  0.
      99925    2    3    3    0    0  0.13074480650E+02 -0.18464616386E+02  0.18916109273E+03  0.32476946403E+03  0.26302357624E+03 0.  0.
         25    1    4    4    0    0  0.25393411262E+02  0.91749830292E+01  0.56338066585E+02  0.13982307211E+03  0.12509000000E+03 0.  0.
         25    1    4    4    0    0 -0.12318930612E+02 -0.27639599415E+02  0.13282302615E+03  0.18494639192E+03  0.12509000000E+03 0.  0.
         25    1    3    3    0    0 -0.13074480650E+02  0.18464616386E+02  0.40482341731E+03  0.42431284614E+03  0.12509000000E+03 0.  0.
<mgrwt>
<rscale>  2 0.45640630E+03</rscale>
<asrwt>0</asrwt>
<pdfrwt beam="1">  1       21 0.98754910E-01 0.45640630E+03</pdfrwt>
<pdfrwt beam="2">  1       21 0.11404250E-01 0.45640630E+03</pdfrwt>
<totfact> 0.49765449E+04</totfact>
</mgrwt>
</event>
<event>
 7    0  0.4712189E-002  0.4600442E+03  0.7546771E-02  0.1024768E+00
         21   -1    0    0  502  501  0.00000000000E+00  0.00000000000E+00  0.42152366970E+02  0.42152366970E+02  0.00000000000E+00 0. -1.
         21   -1    0    0  501  502 -0.00000000000E+00 -0.00000000000E+00 -0.12552122467E+04  0.12552122467E+04  0.00000000000E+00 0. -1.
      99926    2    1    2    0    0  0.00000000000E+00  0.71054273576E-14 -0.12130598797E+04  0.12973646137E+04  0.46004420330E+03 0.  0.
      99925    2    3    3    0    0  0.10058329564E+03  0.52933078796E+02 -0.84757472909E+03  0.89469128002E+03  0.26300314631E+03 0.  0.
         25    1    3    3    0    0 -0.10058329564E+03 -0.52933078796E+02 -0.36548515065E+03  0.40267333366E+03  0.12509000000E+03 0.  0.
         25    1    4    4    0    0  0.83225386410E+02  0.44492845835E+02 -0.53462294917E+03  0.55711334947E+03  0.12509000000E+03 0.  0.
         25    1    4    4    0    0  0.17357909225E+02  0.84402329619E+01 -0.31295177992E+03  0.33757793055E+03  0.12509000000E+03 0.  0.
<mgrwt>
<rscale>  2 0.46004420E+03</rscale>
<asrwt>0</asrwt>
<pdfrwt beam="1">  1       21 0.61988768E-02 0.46004420E+03</pdfrwt>
<pdfrwt beam="2">  1       21 0.18459006E+00 0.46004420E+03</pdfrwt>
<totfact> 0.28073466E+04</totfact>
</mgrwt>
</event>
<event>
 7    0  0.4712189E-002  0.4514483E+03  0.7546771E-02  0.1027291E+00
         21   -1    0    0  502  501  0.00000000000E+00  0.00000000000E+00  0.11186410381E+04  0.11186410381E+04  0.00000000000E+00 0.  1.
         21   -1    0    0  501  502 -0.00000000000E+00 -0.00000000000E+00 -0.45547574264E+02  0.45547574264E+02  0.00000000000E+00 0.  1.
      99926    2    1    2    0    0  0.00000000000E+00 -0.14210854715E-13  0.10730934638E+04  0.11641886124E+04  0.45144827282E+03 0.  0.
      99925    2    3    3    0    0  0.56904766905E+02  0.93371485532E+02  0.68244561552E+03  0.73967755680E+03  0.26350423730E+03 0.  0.
         25    1    4    4    0    0 -0.88647468029E+00  0.20557087869E+02  0.25655377653E+03  0.28616556056E+03  0.12509000000E+03 0.  0.
         25    1    3    3    0    0 -0.56904766905E+02 -0.93371485532E+02  0.39064784833E+03  0.42451105558E+03  0.12509000000E+03 0.  0.
         25    1    4    4    0    0  0.57791241585E+02  0.72814397662E+02  0.42589183899E+03  0.45351199623E+03  0.12509000000E+03 0.  0.
<mgrwt>
<rscale>  2 0.45144827E+03</rscale>
<asrwt>0</asrwt>
<pdfrwt beam="1">  1       21 0.16450602E+00 0.45144827E+03</pdfrwt>
<pdfrwt beam="2">  1       21 0.66981734E-02 0.45144827E+03</pdfrwt>
<totfact> 0.34250335E+04</totfact>
</mgrwt>
</event>
<event>
 7    0  0.4712189E-002  0.4559645E+03  0.7546771E-02  0.1025958E+00
         21   -1    0    0  502  501  0.00000000000E+00  0.00000000000E+00  0.63661429256E+03  0.63661429256E+03  0.00000000000E+00 0.  1.
         21   -1    0    0  501  502 -0.00000000000E+00 -0.00000000000E+00 -0.81644273162E+02  0.81644273162E+02  0.00000000000E+00 0.  1.
      99926    2    1    2    0    0  0.00000000000E+00  0.35527136788E-14  0.55497001939E+03  0.71825856572E+03  0.45596452143E+03 0.  0.
      99925    2    3    3    0    0  0.30274287574E+02 -0.27327117515E+02  0.51667253126E+03  0.58122751253E+03  0.26308100069E+03 0.  0.
         25    1    4    4    0    0  0.27859674370E+02 -0.52510981161E+02  0.26073090852E+03  0.29523156904E+03  0.12509000000E+03 0.  0.
         25    1    3    3    0    0 -0.30274287574E+02  0.27327117515E+02  0.38297488134E+02  0.13703105319E+03  0.12509000000E+03 0.  0.
         25    1    4    4    0    0  0.24146132035E+01  0.25183863646E+02  0.25594162274E+03  0.28599594350E+03  0.12509000000E+03 0.  0.
<mgrwt>
<rscale>  2 0.45596452E+03</rscale>
<asrwt>0</asrwt>
<pdfrwt beam="1">  1       21 0.93619746E-01 0.45596452E+03</pdfrwt>
<pdfrwt beam="2">  1       21 0.12006511E-01 0.45596452E+03</pdfrwt>
<totfact> 0.51530787E+04</totfact>
</mgrwt>
</event>
<event>
 7    0  0.4712189E-002  0.4513861E+03  0.7546771E-02  0.1027309E+00
         21   -1    0    0  502  501  0.00000000000E+00  0.00000000000E+00  0.11649235812E+03  0.11649235812E+03  0.00000000000E+00 0. -1.
         21   -1    0    0  501  502 -0.00000000000E+00 -0.00000000000E+00 -0.43725918651E+03  0.43725918651E+03  0.00000000000E+00 0. -1.
      99926    2    1    2    0    0 -0.35527136788E-14 -0.14210854715E-13 -0.32076682840E+03  0.55375154463E+03  0.45138610411E+03 0.  0.
      99925    2    3    3    0    0  0.21743524681E+02  0.84234934882E+02 -0.28457581357E+03  0.39714502250E+03  0.26300659708E+03 0.  0.
         25    1    3    3    0    0 -0.21743524681E+02 -0.84234934882E+02 -0.36191014828E+02  0.15660652213E+03  0.12509000000E+03 0.  0.
         25    1    4    4    0    0  0.21529741799E+02  0.55218873319E+02 -0.93913312039E+02  0.16727185068E+03  0.12509000000E+03 0.  0.
         25    1    4    4    0    0  0.21378288183E+00  0.29016061563E+02 -0.19066250153E+03  0.22987317182E+03  0.12509000000E+03 0.  0.
<mgrwt>
<rscale>  2 0.45138610E+03</rscale>
<asrwt>0</asrwt>
<pdfrwt beam="1">  1       21 0.17131229E-01 0.45138610E+03</pdfrwt>
<pdfrwt beam="2">  1       21 0.64302822E-01 0.45138610E+03</pdfrwt>
<totfact> 0.63412898E+04</totfact>
</mgrwt>
</event>
<event>
 7    0  0.4712189E-002  0.4569093E+03  0.7546771E-02  0.1025681E+00
         21   -1    0    0  502  501  0.00000000000E+00  0.00000000000E+00  0.14746129383E+03  0.14746129383E+03  0.00000000000E+00 0.  1.
         21   -1    0    0  501  502 -0.00000000000E+00 -0.00000000000E+00 -0.35393372643E+03  0.35393372643E+03  0.00000000000E+00 0.  1.
      99926    2    1    2    0    0  0.00000000000E+00 -0.88817841970E-15 -0.20647243260E+03  0.50139502026E+03  0.45690929179E+03 0.  0.
      99925    2    3    3    0    0 -0.10105831016E+03  0.66192179015E+01 -0.18830989750E+03  0.33942594334E+03  0.26361478983E+03 0.  0.
         25    1    3    3    0    0  0.10105831016E+03 -0.66192179015E+01 -0.18162535092E+02  0.16196907692E+03  0.12509000000E+03 0.  0.
         25    1    4    4    0    0 -0.60351100029E+02 -0.36559462800E+02 -0.87694818537E+02  0.16827578225E+03  0.12509000000E+03 0.  0.
         25    1    4    4    0    0 -0.40707210132E+02  0.43178680701E+02 -0.10061507897E+03  0.17115016108E+03  0.12509000000E+03 0.  0.
<mgrwt>
<rscale>  2 0.45690929E+03</rscale>
<asrwt>0</asrwt>
<pdfrwt beam="1">  1       21 0.21685484E-01 0.45690929E+03</pdfrwt>
<pdfrwt beam="2">  1       21 0.52049077E-01 0.45690929E+03</pdfrwt>
<totfact> 0.64194310E+04</totfact>
</mgrwt>
</event>
<event>
 7    0  0.4712189E-002  0.4555020E+03  0.7546771E-02  0.1026094E+00
         21   -1    0    0  502  501  0.00000000000E+00  0.00000000000E+00  0.56016295059E+03  0.56016295059E+03  0.00000000000E+00 0.  1.
         21   -1    0    0  501  502 -0.00000000000E+00 -0.00000000000E+00 -0.92598971711E+02  0.92598971711E+02  0.00000000000E+00 0.  1.
      99926    2    1    2    0    0  0.00000000000E+00  0.00000000000E+00  0.46756397888E+03  0.65276192230E+03  0.45550197899E+03 0.  0.
      99925    2    3    3    0    0  0.57228380796E+02 -0.92800480625E+02  0.24791098384E+03  0.37747668277E+03  0.26294823322E+03 0.  0.
         25    1    3    3    0    0 -0.57228380796E+02  0.92800480625E+02  0.21965299504E+03  0.27528523953E+03  0.12509000000E+03 0.  0.
         25    1    4    4    0    0 -0.75365037627E+01 -0.50616535758E+02  0.14356123313E+03  0.19717040432E+03  0.12509000000E+03 0.  0.
         25    1    4    4    0    0  0.64764884559E+02 -0.42183944867E+02  0.10434975071E+03  0.18030627845E+03  0.12509000000E+03 0.  0.
<mgrwt>
<rscale>  2 0.45550198E+03</rscale>
<asrwt>0</asrwt>
<pdfrwt beam="1">  1       21 0.82376903E-01 0.45550198E+03</pdfrwt>
<pdfrwt beam="2">  1       21 0.13617496E-01 0.45550198E+03</pdfrwt>
<totfact> 0.55323267E+04</totfact>
</mgrwt>
</event>
<event>
 7    0  0.4712189E-002  0.4585334E+03  0.7546771E-02  0.1025207E+00
         21   -1    0    0  502  501  0.00000000000E+00  0.00000000000E+00  0.64383529215E+02  0.64383529215E+02  0.00000000000E+00 0. -1.
         21   -1    0    0  501  502 -0.00000000000E+00 -0.00000000000E+00 -0.81640795809E+03  0.81640795809E+03  0.00000000000E+00 0. -1.
      99926    2    1    2    0    0  0.00000000000E+00  0.00000000000E+00 -0.75202442888E+03  0.88079148731E+03  0.45853342570E+03 0.  0.
      99925    2    3    3    0    0  0.25770512546E+02 -0.10798066597E+03 -0.40377854545E+03  0.49446695150E+03  0.26293822245E+03 0.  0.
         25    1    3    3    0    0 -0.25770512546E+02  0.10798066597E+03 -0.34824588343E+03  0.38632453580E+03  0.12509000000E+03 0.  0.
         25    1    4    4    0    0  0.30410770216E+02 -0.90461443078E+02 -0.25025719900E+03  0.29560829045E+03  0.12509000000E+03 0.  0.
         25    1    4    4    0    0 -0.46402576698E+01 -0.17519222889E+02 -0.15352134645E+03  0.19885866106E+03  0.12509000000E+03 0.  0.
<mgrwt>
<rscale>  2 0.45853343E+03</rscale>
<asrwt>0</asrwt>
<pdfrwt beam="1">  1       21 0.94681668E-02 0.45853343E+03</pdfrwt>
<pdfrwt beam="2">  1       21 0.12005998E+00 0.45853343E+03</pdfrwt>
<totfact> 0.42875769E+04</totfact>
</mgrwt>
</event>
<event>
 7    0  0.4712189E-002  0.4541592E+03  0.7546771E-02  0.1026489E+00
         21   -1    0    0  502  501  0.00000000000E+00  0.00000000000E+00  0.11466160324E+03  0.11466160324E+03  0.00000000000E+00 0.  1.
         21   -1    0    0  501  502 -0.00000000000E+00 -0.00000000000E+00 -0.44971588350E+03  0.44971588350E+03  0.00000000000E+00 0.  1.
      99926    2    1    2    0    0  0.00000000000E+00  0.88817841970E-15 -0.33505428026E+03  0.56437748673E+03  0.45415919765E+03 0.  0.
      99925    2    3    3    0    0  0.65003981052E+02 -0.67657741468E+01 -0.32440884327E+03  0.42284259110E+03  0.26321752603E+03 0.  0.
         25    1    3    3    0    0 -0.65003981052E+02  0.67657741468E+01 -0.10645436992E+02  0.14153489563E+03  0.12509000000E+03 0.  0.
         25    1    4    4    0    0  0.44043876480E+02 -0.31476918800E+02 -0.12328875219E+03  0.18378869385E+03  0.12509000000E+03 0.  0.
         25    1    4    4    0    0  0.20960104572E+02  0.24711144654E+02 -0.20112009108E+03  0.23905389725E+03  0.12509000000E+03 0.  0.
<mgrwt>
<rscale>  2 0.45415920E+03</rscale>
<asrwt>0</asrwt>
<pdfrwt beam="1">  1       21 0.16862000E-01 0.45415920E+03</pdfrwt>
<pdfrwt beam="2">  1       21 0.66134689E-01 0.45415920E+03</pdfrwt>
<totfact> 0.61333158E+04</totfact>
</mgrwt>
</event>
<event>
 7    0  0.4712189E-002  0.4565824E+03  0.7546771E-02  0.1025777E+00
         21   -1    0    0  502  501  0.00000000000E+00  0.00000000000E+00  0.10023551036E+04  0.10023551036E+04  0.00000000000E+00 0. -1.
         21   -1    0    0  501  502 -0.00000000000E+00 -0.00000000000E+00 -0.51994422538E+02  0.51994422538E+02  0.00000000000E+00 0. -1.
      99926    2    1    2    0    0  0.14210854715E-13  0.88817841970E-15  0.95036068108E+03  0.10543495262E+04  0.45658241224E+03 0.  0.
      99925    2    3    3    0    0 -0.10138833024E+03 -0.74154702419E+01  0.47527081963E+03  0.55265991368E+03  0.26308942491E+03 0.  0.
         25    1    4    4    0    0 -0.18401373405E+02  0.80654921688E+01  0.16887665202E+03  0.21111725274E+03  0.12509000000E+03 0.  0.
         25    1    3    3    0    0  0.10138833024E+03  0.74154702419E+01  0.47508986146E+03  0.50168961247E+03  0.12509000000E+03 0.  0.
         25    1    4    4    0    0 -0.82986956831E+02 -0.15480962411E+02  0.30639416760E+03  0.34154266094E+03  0.12509000000E+03 0.  0.
<mgrwt>
<rscale>  2 0.45658241E+03</rscale>
<asrwt>0</asrwt>
<pdfrwt beam="1">  1       21 0.14740515E+00 0.45658241E+03</pdfrwt>
<pdfrwt beam="2">  1       21 0.76462392E-02 0.45658241E+03</pdfrwt>
<totfact> 0.36663285E+04</totfact>
</mgrwt>
</event>
<event>
 7    0  0.4712189E-002  0.4561191E+03  0.7546771E-02  0.1025913E+00
         21   -1    0    0  502  501  0.00000000000E+00  0.00000000000E+00  0.19723489740E+03  0.19723489740E+03  0.00000000000E+00 0.  1.
         21   -1    0    0  501  502 -0.00000000000E+00 -0.00000000000E+00 -0.26370157582E+03  0.26370157582E+03  0.00000000000E+00 0.  1.
      99926    2    1    2    0    0  0.00000000000E+00  0.00000000000E+00 -0.66466678420E+02  0.46093647321E+03  0.45611907765E+03 0.  0.
      99925    2    3    3    0    0  0.22398250374E+02  0.40659014174E+02 -0.14723009958E+03  0.30497149204E+03  0.26301344392E+03 0.  0.
         25    1    4    4    0    0  0.14093509001E+02  0.46303769702E+02 -0.11169493496E+03  0.17454493026E+03  0.12509000000E+03 0.  0.
         25    1    3    3    0    0 -0.22398250374E+02 -0.40659014174E+02  0.80763421157E+02  0.15596498117E+03  0.12509000000E+03 0.  0.
         25    1    4    4    0    0  0.83047413729E+01 -0.56447555280E+01 -0.35535164620E+02  0.13042656178E+03  0.12509000000E+03 0.  0.
<mgrwt>
<rscale>  2 0.45611908E+03</rscale>
<asrwt>0</asrwt>
<pdfrwt beam="1">  1       21 0.29005132E-01 0.45611908E+03</pdfrwt>
<pdfrwt beam="2">  1       21 0.38779643E-01 0.45611908E+03</pdfrwt>
<totfact> 0.67507905E+04</totfact>
</mgrwt>
</event>
<event>
 7    0  0.4712189E-002  0.4821793E+03  0.7546771E-02  0.1018538E+00
         21   -1    0    0  502  501  0.00000000000E+00  0.00000000000E+00  0.41538527902E+03  0.41538527902E+03  0.00000000000E+00 0. -1.
         21   -1    0    0  501  502 -0.00000000000E+00 -0.00000000000E+00 -0.13992846219E+03  0.13992846219E+03  0.00000000000E+00 0. -1.
      99926    2    1    2    0    0  0.35527136788E-14  0.00000000000E+00  0.27545681683E+03  0.55531374121E+03  0.48217931648E+03 0.  0.
      99925    2    3    3    0    0 -0.22537968936E+02 -0.76358063756E+02  0.29797013708E+03  0.40533750431E+03  0.26300907943E+03 0.  0.
         25    1    4    4    0    0 -0.47674562914E+02 -0.53575265515E+02  0.13964134090E+03  0.20072465023E+03  0.12509000000E+03 0.  0.
         25    1    4    4    0    0  0.25136593978E+02 -0.22782798241E+02  0.15832879619E+03  0.20461285408E+03  0.12509000000E+03 0.  0.
         25    1    3    3    0    0  0.22537968936E+02  0.76358063756E+02 -0.22513320258E+02  0.14997623690E+03  0.12509000000E+03 0.  0.
<mgrwt>
<rscale>  2 0.48217932E+03</rscale>
<asrwt>0</asrwt>
<pdfrwt beam="1">  1       21 0.61086070E-01 0.48217932E+03</pdfrwt>
<pdfrwt beam="2">  1       21 0.20577715E-01 0.48217932E+03</pdfrwt>
<totfact> 0.49883717E+04</totfact>
</mgrwt>
</event>
<event>
 7    0  0.4712189E-002  0.4524032E+03  0.7546771E-02  0.1027008E+00
         21   -1    0    0  502  501  0.00000000000E+00  0.00000000000E+00  0.49509641401E+02  0.49509641401E+02  0.00000000000E+00 0.  1.
         21   -1    0    0  501  502 -0.00000000000E+00 -0.00000000000E+00 -0.10334789923E+04  0.10334789923E+04  0.00000000000E+00 0.  1.
      99926    2    1    2    0    0  0.00000000000E+00  0.35527136788E-14 -0.98396935094E+03  0.10829886337E+04  0.45240324626E+03 0.  0.
      99925    2    3    3    0    0  0.10832937857E+03 -0.18669399997E+02 -0.58974637986E+03  0.65503646377E+03  0.26303645290E+03 0.  0.
         25    1    4    4    0    0  0.46596308064E+02  0.29805897895E+02 -0.26184103022E+03  0.29541130764E+03  0.12509000000E+03 0.  0.
         25    1    4    4    0    0  0.61733070503E+02 -0.48475297892E+02 -0.32790534964E+03  0.35962515613E+03  0.12509000000E+03 0.  0.
         25    1    3    3    0    0 -0.10832937857E+03  0.18669399997E+02 -0.39422297107E+03  0.42795216997E+03  0.12509000000E+03 0.  0.
<mgrwt>
<rscale>  2 0.45240325E+03</rscale>
<asrwt>0</asrwt>
<pdfrwt beam="1">  1       21 0.72808301E-02 0.45240325E+03</pdfrwt>
<pdfrwt beam="2">  1       21 0.15198220E+00 0.45240325E+03</pdfrwt>
<totfact> 0.36830297E+04</totfact>
</mgrwt>
</event>
<event>
 7    0  0.4712189E-002  0.4551268E+03  0.7546771E-02  0.1026204E+00
         21   -1    0    0  502  501  0.00000000000E+00  0.00000000000E+00  0.21710681298E+03  0.21710681298E+03  0.00000000000E+00 0.  1.
         21   -1    0    0  501  502 -0.00000000000E+00 -0.00000000000E+00 -0.23852357707E+03  0.23852357707E+03  0.00000000000E+00 0.  1.
      99926    2    1    2    0    0  0.00000000000E+00 -0.14210854715E-13 -0.21416764094E+02  0.45563039005E+03  0.45512676756E+03 0.  0.
      99925    2    3    3    0    0 -0.68569640816E+02  0.72138290449E+02  0.40834848231E+02  0.28408302071E+03  0.26292574852E+03 0.  0.
         25    1    3    3    0    0  0.68569640816E+02 -0.72138290449E+02 -0.62251612325E+02  0.17154736934E+03  0.12509000000E+03 0.  0.
         25    1    4    4    0    0 -0.61774408930E+02  0.64246357421E+02  0.55468263999E+01  0.15369433114E+03  0.12509000000E+03 0.  0.
         25    1    4    4    0    0 -0.67952318862E+01  0.78919330277E+01  0.35288021831E+02  0.13038868957E+03  0.12509000000E+03 0.  0.
<mgrwt>
<rscale>  2 0.45512677E+03</rscale>
<asrwt>0</asrwt>
<pdfrwt beam="1">  1       21 0.31927473E-01 0.45512677E+03</pdfrwt>
<pdfrwt beam="2">  1       21 0.35076997E-01 0.45512677E+03</pdfrwt>
<totfact> 0.68430419E+04</totfact>
</mgrwt>
</event>
<event>
 7    0  0.4712189E-002  0.4430716E+03  0.7546771E-02  0.1029809E+00
         21   -1    0    0  502  501  0.00000000000E+00  0.00000000000E+00  0.17848267268E+03  0.17848267268E+03  0.00000000000E+00 0. -1.
         21   -1    0    0  501  502 -0.00000000000E+00 -0.00000000000E+00 -0.27497413274E+03  0.27497413274E+03  0.00000000000E+00 0. -1.
      99926    2    1    2    0    0  0.00000000000E+00  0.00000000000E+00 -0.96491460060E+02  0.45345680542E+03  0.44307163361E+03 0.  0.
      99925    2    3    3    0    0  0.68785180276E+02 -0.60204349553E+02 -0.16174806172E+02  0.27894537965E+03  0.26304550128E+03 0.  0.
         25    1    3    3    0    0 -0.68785180276E+02  0.60204349553E+02 -0.80316653888E+02  0.17451142576E+03  0.12509000000E+03 0.  0.
         25    1    4    4    0    0  0.73285307209E+02 -0.19341186040E+02 -0.17201642206E+02  0.14726921717E+03  0.12509000000E+03 0.  0.
         25    1    4    4    0    0 -0.45001269332E+01 -0.40863163513E+02  0.10268360344E+01  0.13167616249E+03  0.12509000000E+03 0.  0.
<mgrwt>
<rscale>  2 0.44307163E+03</rscale>
<asrwt>0</asrwt>
<pdfrwt beam="1">  1       21 0.26247453E-01 0.44307163E+03</pdfrwt>
<pdfrwt beam="2">  1       21 0.40437371E-01 0.44307163E+03</pdfrwt>
<totfact> 0.75589001E+04</totfact>
</mgrwt>
</event>
<event>
 7    0  0.4712189E-002  0.4281618E+03  0.7546771E-02  0.1034442E+00
         21   -1    0    0  502  501  0.00000000000E+00  0.00000000000E+00  0.18107334788E+03  0.18107334788E+03  0.00000000000E+00 0. -1.
         21   -1    0    0  501  502 -0.00000000000E+00 -0.00000000000E+00 -0.25310528671E+03  0.25310528671E+03  0.00000000000E+00 0. -1.
      99926    2    1    2    0    0  0.00000000000E+00  0.00000000000E+00 -0.72031938824E+02  0.43417863459E+03  0.42816175276E+03 0.  0.
      99925    2    3    3    0    0 -0.37209486854E+02  0.76577420137E+02 -0.36603217617E+02  0.27877158979E+03  0.26291663422E+03 0.  0.
         25    1    4    4    0    0 -0.15589587395E+02  0.58729688399E+02  0.16444316035E+02  0.14003619234E+03  0.12509000000E+03 0.  0.
         25    1    4    4    0    0 -0.21619899458E+02  0.17847731738E+02 -0.53047533652E+02  0.13873539746E+03  0.12509000000E+03 0.  0.
         25    1    3    3    0    0  0.37209486854E+02 -0.76577420137E+02 -0.35428721207E+02  0.15540704480E+03  0.12509000000E+03 0.  0.
<mgrwt>
<rscale>  2 0.42816175E+03</rscale>
<asrwt>0</asrwt>
<pdfrwt beam="1">  1       21 0.26628434E-01 0.42816175E+03</pdfrwt>
<pdfrwt beam="2">  1       21 0.37221366E-01 0.42816175E+03</pdfrwt>
<totfact> 0.87353173E+04</totfact>
</mgrwt>
</event>
<event>
 7    0  0.4712189E-002  0.4543756E+03  0.7546771E-02  0.1026425E+00
         21   -1    0    0  502  501  0.00000000000E+00  0.00000000000E+00  0.13442085655E+03  0.13442085655E+03  0.00000000000E+00 0.  1.
         21   -1    0    0  501  502 -0.00000000000E+00 -0.00000000000E+00 -0.38397531376E+03  0.38397531376E+03  0.00000000000E+00 0.  1.
      99926    2    1    2    0    0  0.00000000000E+00  0.35527136788E-14 -0.24955445721E+03  0.51839617031E+03  0.45437557403E+03 0.  0.
      99925    2    3    3    0    0 -0.79104795323E+02 -0.17552674123E+02 -0.24634263682E+03  0.36932072330E+03  0.26295900238E+03 0.  0.
         25    1    3    3    0    0  0.79104795323E+02  0.17552674123E+02 -0.32118203973E+01  0.14907544701E+03  0.12509000000E+03 0.  0.
         25    1    4    4    0    0 -0.76450439813E+02 -0.16626445762E+02 -0.10837979476E+03  0.18307046856E+03  0.12509000000E+03 0.  0.
         25    1    4    4    0    0 -0.26543555100E+01 -0.92622836113E+00 -0.13796284205E+03  0.18625025474E+03  0.12509000000E+03 0.  0.
<mgrwt>
<rscale>  2 0.45437557E+03</rscale>
<asrwt>0</asrwt>
<pdfrwt beam="1">  1       21 0.19767774E-01 0.45437557E+03</pdfrwt>
<pdfrwt beam="2">  1       21 0.56466956E-01 0.45437557E+03</pdfrwt>
<totfact> 0.64314717E+04</totfact>
</mgrwt>
</event>
<event>
 7    0  0.4712189E-002  0.4581626E+03  0.7546771E-02  0.1025315E+00
         21   -1    0    0  502  501  0.00000000000E+00  0.00000000000E+00  0.15569089792E+03  0.15569089792E+03  0.00000000000E+00 0.  1.
         21   -1    0    0  501  502 -0.00000000000E+00 -0.00000000000E+00 -0.33706683844E+03  0.33706683844E+03  0.00000000000E+00 0.  1.
      99926    2    1    2    0    0  0.14210854715E-13 -0.35527136788E-14 -0.18137594052E+03  0.49275773636E+03  0.45816258571E+03 0.  0.
      99925    2    3    3    0    0  0.11205721141E+03 -0.30264617380E+02 -0.11482807534E+03  0.30959416970E+03  0.26304048610E+03 0.  0.
         25    1    4    4    0    0  0.62518838907E+02  0.99820746790E+01 -0.91030021271E+02  0.16715926509E+03  0.12509000000E+03 0.  0.
         25    1    4    4    0    0  0.49538372503E+02 -0.40246692059E+02 -0.23798054073E+02  0.14243490460E+03  0.12509000000E+03 0.  0.
         25    1    3    3    0    0 -0.11205721141E+03  0.30264617380E+02 -0.66547865172E+02  0.18316356666E+03  0.12509000000E+03 0.  0.
<mgrwt>
<rscale>  2 0.45816259E+03</rscale>
<asrwt>0</asrwt>
<pdfrwt beam="1">  1       21 0.22895720E-01 0.45816259E+03</pdfrwt>
<pdfrwt beam="2">  1       21 0.49568652E-01 0.45816259E+03</pdfrwt>
<totfact> 0.64156548E+04</totfact>
</mgrwt>
</event>
<event>
 7    0  0.4712189E-002  0.4571153E+03  0.7546771E-02  0.1025621E+00
         21   -1    0    0  502  501  0.00000000000E+00  0.00000000000E+00  0.55044676210E+03  0.55044676210E+03  0.00000000000E+00 0.  1.
         21   -1    0    0  501  502 -0.00000000000E+00 -0.00000000000E+00 -0.94902178368E+02  0.94902178368E+02  0.00000000000E+00 0.  1.
      99926    2    1    2    0    0  0.00000000000E+00  0.00000000000E+00  0.45554458373E+03  0.64534894047E+03  0.45711528874E+03 0.  0.
      99925    2    3    3    0    0 -0.24146426664E+02 -0.10901918036E+03  0.32586659417E+03  0.43337695958E+03  0.26297969558E+03 0.  0.
         25    1    4    4    0    0  0.26552144979E+01 -0.66835158252E+02  0.22125713603E+03  0.26282354705E+03  0.12509000000E+03 0.  0.
         25    1    3    3    0    0  0.24146426664E+02  0.10901918036E+03  0.12967798956E+03  0.21197198089E+03  0.12509000000E+03 0.  0.
         25    1    4    4    0    0 -0.26801641162E+02 -0.42184022108E+02  0.10460945814E+03  0.17055341252E+03  0.12509000000E+03 0.  0.
<mgrwt>
<rscale>  2 0.45711529E+03</rscale>
<asrwt>0</asrwt>
<pdfrwt beam="1">  1       21 0.80948052E-01 0.45711529E+03</pdfrwt>
<pdfrwt beam="2">  1       21 0.13956203E-01 0.45711529E+03</pdfrwt>
<totfact> 0.55045737E+04</totfact>
</mgrwt>
</event>
<event>
 7    0  0.4712189E-002  0.4558723E+03  0.7546771E-02  0.1025985E+00
         21   -1    0    0  502  501  0.00000000000E+00  0.00000000000E+00  0.62253030632E+03  0.62253030632E+03  0.00000000000E+00 0. -1.
         21   -1    0    0  501  502 -0.00000000000E+00 -0.00000000000E+00 -0.83457590532E+02  0.83457590532E+02  0.00000000000E+00 0. -1.
      99926    2    1    2    0    0  0.00000000000E+00  0.00000000000E+00  0.53907271579E+03  0.70598789686E+03  0.45587226017E+03 0.  0.
      99925    2    3    3    0    0 -0.34295899148E+02 -0.79020122695E+02  0.22331201713E+03  0.35559852001E+03  0.26298604896E+03 0.  0.
         25    1    3    3    0    0  0.34295899148E+02  0.79020122695E+02  0.31576069866E+03  0.35038937685E+03  0.12509000000E+03 0.  0.
         25    1    4    4    0    0 -0.27327424076E+02 -0.43515962745E+02  0.16384331656E+03  0.21244426940E+03  0.12509000000E+03 0.  0.
         25    1    4    4    0    0 -0.69684750726E+01 -0.35504159950E+02  0.59468700569E+02  0.14315425060E+03  0.12509000000E+03 0.  0.
<mgrwt>
<rscale>  2 0.45587226E+03</rscale>
<asrwt>0</asrwt>
<pdfrwt beam="1">  1       21 0.91548572E-01 0.45587226E+03</pdfrwt>
<pdfrwt beam="2">  1       21 0.12273175E-01 0.45587226E+03</pdfrwt>
<totfact> 0.52219729E+04</totfact>
</mgrwt>
</event>
<event>
 7    0  0.4712189E-002  0.4415895E+03  0.7546771E-02  0.1030260E+00
         21   -1    0    0  502  501  0.00000000000E+00  0.00000000000E+00  0.86237393588E+02  0.86237393588E+02  0.00000000000E+00 0. -1.
         21   -1    0    0  501  502 -0.00000000000E+00 -0.00000000000E+00 -0.56530367391E+03  0.56530367391E+03  0.00000000000E+00 0. -1.
      99926    2    1    2    0    0  0.00000000000E+00  0.00000000000E+00 -0.47906628033E+03  0.65154106750E+03  0.44158947190E+03 0.  0.
      99925    2    3    3    0    0 -0.72501864371E+02  0.68804301216E+02 -0.30950273130E+03  0.41832473561E+03  0.26308381086E+03 0.  0.
         25    1    4    4    0    0 -0.16072992322E+02  0.16637950231E+02 -0.96691181279E+02  0.15978690531E+03  0.12509000000E+03 0.  0.
         25    1    4    4    0    0 -0.56428872049E+02  0.52166350985E+02 -0.21281155002E+03  0.25853783030E+03  0.12509000000E+03 0.  0.
         25    1    3    3    0    0  0.72501864371E+02 -0.68804301216E+02 -0.16956354903E+03  0.23321633189E+03  0.12509000000E+03 0.  0.
<mgrwt>
<rscale>  2 0.44158947E+03</rscale>
<asrwt>0</asrwt>
<pdfrwt beam="1">  1       21 0.12681970E-01 0.44158947E+03</pdfrwt>
<pdfrwt beam="2">  1       21 0.83132892E-01 0.44158947E+03</pdfrwt>
<totfact> 0.61904273E+04</totfact>
</mgrwt>
</event>
<event>
 7    0  0.4712189E-002  0.4514620E+03  0.7546771E-02  0.1027287E+00
         21   -1    0    0  502  501  0.00000000000E+00  0.00000000000E+00  0.67911931319E+02  0.67911931319E+02  0.00000000000E+00 0. -1.
         21   -1    0    0  501  502 -0.00000000000E+00 -0.00000000000E+00 -0.75030238177E+03  0.75030238177E+03  0.00000000000E+00 0. -1.
      99926    2    1    2    0    0  0.00000000000E+00  0.00000000000E+00 -0.68239045045E+03  0.81821431309E+03  0.45146199760E+03 0.  0.
      99925    2    3    3    0    0 -0.71512116130E+02  0.53813626098E+02 -0.31222004698E+03  0.41736081764E+03  0.26210456932E+03 0.  0.
         25    1    4    4    0    0 -0.24841321492E+02  0.47695753172E+02 -0.20459722776E+03  0.24576311731E+03  0.12509000000E+03 0.  0.
         25    1    4    4    0    0 -0.46670794639E+02  0.61178729254E+01 -0.10762281922E+03  0.17159770033E+03  0.12509000000E+03 0.  0.
         25    1    3    3    0    0  0.71512116130E+02 -0.53813626098E+02 -0.37017040347E+03  0.40085349545E+03  0.12509000000E+03 0.  0.
<mgrwt>
<rscale>  2 0.45146200E+03</rscale>
<asrwt>0</asrwt>
<pdfrwt beam="1">  1       21 0.99870493E-02 0.45146200E+03</pdfrwt>
<pdfrwt beam="2">  1       21 0.11033858E+00 0.45146200E+03</pdfrwt>
<totfact> 0.48221238E+04</totfact>
</mgrwt>
</event>
<event>
 7    0  0.4712189E-002  0.4536238E+03  0.7546771E-02  0.1026647E+00
         21   -1    0    0  502  501  0.00000000000E+00  0.00000000000E+00  0.69362100289E+02  0.69362100289E+02  0.00000000000E+00 0.  1.
         21   -1    0    0  501  502 -0.00000000000E+00 -0.00000000000E+00 -0.74166787390E+03  0.74166787390E+03  0.00000000000E+00 0.  1.
      99926    2    1    2    0    0  0.00000000000E+00  0.00000000000E+00 -0.67230577361E+03  0.81102997419E+03  0.45362381530E+03 0.  0.
      99925    2    3    3    0    0 -0.39751618207E+01 -0.90548590580E+02 -0.54082258815E+03  0.60817488964E+03  0.26300717741E+03 0.  0.
         25    1    3    3    0    0  0.39751618207E+01  0.90548590580E+02 -0.13148318546E+03  0.20285508455E+03  0.12509000000E+03 0.  0.
         25    1    4    4    0    0 -0.13617970545E+02 -0.15105979463E+02 -0.30921582005E+03  0.33417895087E+03  0.12509000000E+03 0.  0.
         25    1    4    4    0    0  0.96428087247E+01 -0.75442611117E+02 -0.23160676810E+03  0.27399593877E+03  0.12509000000E+03 0.  0.
<mgrwt>
<rscale>  2 0.45362382E+03</rscale>
<asrwt>0</asrwt>
<pdfrwt beam="1">  1       21 0.10200309E-01 0.45362382E+03</pdfrwt>
<pdfrwt beam="2">  1       21 0.10906880E+00 0.45362382E+03</pdfrwt>
<totfact> 0.47749497E+04</totfact>
</mgrwt>
</event>
<event>
 7    0  0.4712189E-002  0.4286723E+03  0.7546771E-02  0.1034280E+00
         21   -1    0    0  502  501  0.00000000000E+00  0.00000000000E+00  0.16978991611E+04  0.16978991611E+04  0.00000000000E+00 0. -1.
         21   -1    0    0  501  502 -0.00000000000E+00 -0.00000000000E+00 -0.27056953527E+02  0.27056953527E+02  0.00000000000E+00 0. -1.
      99926    2    1    2    0    0  0.00000000000E+00  0.00000000000E+00  0.16708422076E+04  0.17249561147E+04  0.42867226967E+03 0.  0.
      99925    2    3    3    0    0 -0.50220680829E+02 -0.47597524833E+02  0.87139966541E+03  0.91283326218E+03  0.26294399880E+03 0.  0.
         25    1    4    4    0    0 -0.95088232070E+01 -0.60698681478E+02  0.42460317761E+03  0.44688937578E+03  0.12509000000E+03 0.  0.
         25    1    4    4    0    0 -0.40711857622E+02  0.13101156645E+02  0.44679648780E+03  0.46594388640E+03  0.12509000000E+03 0.  0.
         25    1    3    3    0    0  0.50220680829E+02  0.47597524833E+02  0.79944254220E+03  0.81212285248E+03  0.12509000000E+03 0.  0.
<mgrwt>
<rscale>  2 0.42867227E+03</rscale>
<asrwt>0</asrwt>
<pdfrwt beam="1">  1       21 0.24969098E+00 0.42867227E+03</pdfrwt>
<pdfrwt beam="2">  1       21 0.39789649E-02 0.42867227E+03</pdfrwt>
<totfact> 0.23123843E+04</totfact>
</mgrwt>
</event>
<event>
 7    0  0.4712189E-002  0.4467234E+03  0.7546771E-02  0.1028704E+00
         21   -1    0    0  502  501  0.00000000000E+00  0.00000000000E+00  0.14084050003E+03  0.14084050003E+03  0.00000000000E+00 0. -1.
         21   -1    0    0  501  502 -0.00000000000E+00 -0.00000000000E+00 -0.35423364148E+03  0.35423364148E+03  0.00000000000E+00 0. -1.
      99926    2    1    2    0    0 -0.44408920985E-14  0.00000000000E+00 -0.21339314145E+03  0.49507414152E+03  0.44672337389E+03 0.  0.
      99925    2    3    3    0    0 -0.28605195300E+01 -0.26189498149E+02 -0.24811506185E+03  0.36260832615E+03  0.26311526351E+03 0.  0.
         25    1    4    4    0    0  0.31554184224E+02 -0.42994924690E+01 -0.15344766648E+03  0.20051894331E+03  0.12509000000E+03 0.  0.
         25    1    4    4    0    0 -0.34414703754E+02 -0.21890005680E+02 -0.94667395371E+02  0.16208938284E+03  0.12509000000E+03 0.  0.
         25    1    3    3    0    0  0.28605195300E+01  0.26189498149E+02  0.34721920397E+02  0.13246581537E+03  0.12509000000E+03 0.  0.
<mgrwt>
<rscale>  2 0.44672337E+03</rscale>
<asrwt>0</asrwt>
<pdfrwt beam="1">  1       21 0.20711839E-01 0.44672337E+03</pdfrwt>
<pdfrwt beam="2">  1       21 0.52093181E-01 0.44672337E+03</pdfrwt>
<totfact> 0.70112537E+04</totfact>
</mgrwt>
</event>
<event>
 7    0  0.4712189E-002  0.4583817E+03  0.7546771E-02  0.1025252E+00
         21   -1    0    0  502  501  0.00000000000E+00  0.00000000000E+00  0.15440559468E+03  0.15440559468E+03  0.00000000000E+00 0.  1.
         21   -1    0    0  501  502 -0.00000000000E+00 -0.00000000000E+00 -0.34019784899E+03  0.34019784899E+03  0.00000000000E+00 0.  1.
      99926    2    1    2    0    0  0.00000000000E+00 -0.17763568394E-14 -0.18579225431E+03  0.49460344367E+03  0.45838172382E+03 0.  0.
      99925    2    3    3    0    0 -0.11482310205E+03  0.12720010858E+02 -0.10127324125E+03  0.30450579742E+03  0.26290942895E+03 0.  0.
         25    1    4    4    0    0 -0.55968728107E+02 -0.27513100280E+01 -0.85619026309E+01  0.13733492822E+03  0.12509000000E+03 0.  0.
         25    1    4    4    0    0 -0.58854373940E+02  0.15471320886E+02 -0.92711338619E+02  0.16717086920E+03  0.12509000000E+03 0.  0.
         25    1    3    3    0    0  0.11482310205E+03 -0.12720010858E+02 -0.84519013064E+02  0.19009764625E+03  0.12509000000E+03 0.  0.
<mgrwt>
<rscale>  2 0.45838172E+03</rscale>
<asrwt>0</asrwt>
<pdfrwt beam="1">  1       21 0.22706705E-01 0.45838172E+03</pdfrwt>
<pdfrwt beam="2">  1       21 0.50029095E-01 0.45838172E+03</pdfrwt>
<totfact> 0.63918190E+04</totfact>
</mgrwt>
</event>
<event>
 7    0  0.4712189E-002  0.4556904E+03  0.7546771E-02  0.1026039E+00
         21   -1    0    0  502  501  0.00000000000E+00  0.00000000000E+00  0.45345162987E+02  0.45345162987E+02  0.00000000000E+00 0. -1.
         21   -1    0    0  501  502 -0.00000000000E+00 -0.00000000000E+00 -0.11448503765E+04  0.11448503765E+04  0.00000000000E+00 0. -1.
      99926    2    1    2    0    0  0.00000000000E+00  0.00000000000E+00 -0.10995052135E+04  0.11901955395E+04  0.45569036382E+03 0.  0.
      99925    2    3    3    0    0 -0.10811128780E+03  0.34763435528E+02 -0.71072035824E+03  0.76628786229E+03  0.26301542403E+03 0.  0.
         25    1    4    4    0    0 -0.48988873141E+02 -0.66270810058E+01 -0.43080049256E+03  0.45130965022E+03  0.12509000000E+03 0.  0.
         25    1    4    4    0    0 -0.59122414660E+02  0.41390516533E+02 -0.27991986568E+03  0.31497821207E+03  0.12509000000E+03 0.  0.
         25    1    3    3    0    0  0.10811128780E+03 -0.34763435528E+02 -0.38878485530E+03  0.42390767722E+03  0.12509000000E+03 0.  0.
<mgrwt>
<rscale>  2 0.45569036E+03</rscale>
<asrwt>0</asrwt>
<pdfrwt beam="1">  1       21 0.66684054E-02 0.45569036E+03</pdfrwt>
<pdfrwt beam="2">  1       21 0.16836037E+00 0.45569036E+03</pdfrwt>
<totfact> 0.32294196E+04</totfact>
</mgrwt>
</event>
<event>
 7    0  0.4712189E-002  0.4525512E+03  0.7546771E-02  0.1026964E+00
         21   -1    0    0  502  501  0.00000000000E+00  0.00000000000E+00  0.52959294712E+03  0.52959294712E+03  0.00000000000E+00 0. -1.
         21   -1    0    0  501  502 -0.00000000000E+00 -0.00000000000E+00 -0.96679245136E+02  0.96679245136E+02  0.00000000000E+00 0. -1.
      99926    2    1    2    0    0 -0.71054273576E-14  0.14210854715E-13  0.43291370198E+03  0.62627219226E+03  0.45255119647E+03 0.  0.
      99925    2    3    3    0    0 -0.45908630074E+02  0.99206802052E+02  0.29786815458E+03  0.41218249175E+03  0.26309575653E+03 0.  0.
         25    1    3    3    0    0  0.45908630074E+02 -0.99206802052E+02  0.13504554740E+03  0.21408970050E+03  0.12509000000E+03 0.  0.
         25    1    4    4    0    0 -0.18006872357E+02  0.12906302628E+02  0.10335963918E+03  0.16377284027E+03  0.12509000000E+03 0.  0.
         25    1    4    4    0    0 -0.27901757717E+02  0.86300499424E+02  0.19450851540E+03  0.24840965148E+03  0.12509000000E+03 0.  0.
<mgrwt>
<rscale>  2 0.45255120E+03</rscale>
<asrwt>0</asrwt>
<pdfrwt beam="1">  1       21 0.77881315E-01 0.45255120E+03</pdfrwt>
<pdfrwt beam="2">  1       21 0.14217536E-01 0.45255120E+03</pdfrwt>
<totfact> 0.58206771E+04</totfact>
</mgrwt>
</event>
<event>
 7    0  0.4712189E-002  0.4539102E+03  0.7546771E-02  0.1026562E+00
         21   -1    0    0  502  501  0.00000000000E+00  0.00000000000E+00  0.96075626055E+03  0.96075626055E+03  0.00000000000E+00 0.  1.
         21   -1    0    0  501  502 -0.00000000000E+00 -0.00000000000E+00 -0.53612576255E+02  0.53612576255E+02  0.00000000000E+00 0.  1.
      99926    2    1    2    0    0  0.00000000000E+00  0.71054273576E-14  0.90714368430E+03  0.10143688368E+04  0.45391020381E+03 0.  0.
      99925    2    3    3    0    0  0.92598344873E+02  0.55969822235E+02  0.63735622850E+03  0.69792001965E+03  0.26298729503E+03 0.  0.
         25    1    4    4    0    0  0.78652984619E+02  0.30274275244E+01  0.33679268630E+03  0.36779379950E+03  0.12509000000E+03 0.  0.
         25    1    4    4    0    0  0.13945360254E+02  0.52942394711E+02  0.30056354220E+03  0.33012622015E+03  0.12509000000E+03 0.  0.
         25    1    3    3    0    0 -0.92598344873E+02 -0.55969822235E+02  0.26978745580E+03  0.31644881716E+03  0.12509000000E+03 0.  0.
<mgrwt>
<rscale>  2 0.45391020E+03</rscale>
<asrwt>0</asrwt>
<pdfrwt beam="1">  1       21 0.14128767E+00 0.45391020E+03</pdfrwt>
<pdfrwt beam="2">  1       21 0.78842030E-02 0.45391020E+03</pdfrwt>
<totfact> 0.38942836E+04</totfact>
</mgrwt>
</event>
<event>
 7    0  0.4712189E-002  0.4624616E+03  0.7546771E-02  0.1024070E+00
         21   -1    0    0  502  501  0.00000000000E+00  0.00000000000E+00  0.12190024468E+03  0.12190024468E+03  0.00000000000E+00 0. -1.
         21   -1    0    0  501  502 -0.00000000000E+00 -0.00000000000E+00 -0.43861840237E+03  0.43861840237E+03  0.00000000000E+00 0. -1.
      99926    2    1    2    0    0  0.00000000000E+00  0.00000000000E+00 -0.31671815769E+03  0.56051864704E+03  0.46246163330E+03 0.  0.
      99925    2    3    3    0    0 -0.16813016599E+02 -0.11247366651E+03 -0.24676212761E+03  0.37755865844E+03  0.26215642230E+03 0.  0.
         25    1    4    4    0    0 -0.24524706294E+02 -0.87499085058E+02 -0.16354549254E+03  0.22506040819E+03  0.12509000000E+03 0.  0.
         25    1    4    4    0    0  0.77116896949E+01 -0.24974581453E+02 -0.83216635074E+02  0.15249825025E+03  0.12509000000E+03 0.  0.
         25    1    3    3    0    0  0.16813016599E+02  0.11247366651E+03 -0.69956030080E+02  0.18295998860E+03  0.12509000000E+03 0.  0.
<mgrwt>
<rscale>  2 0.46246163E+03</rscale>
<asrwt>0</asrwt>
<pdfrwt beam="1">  1       21 0.17926506E-01 0.46246163E+03</pdfrwt>
<pdfrwt beam="2">  1       21 0.64502707E-01 0.46246163E+03</pdfrwt>
<totfact> 0.57695345E+04</totfact>
</mgrwt>
</event>
<event>
 7    0  0.4712189E-002  0.4525016E+03  0.7546771E-02  0.1026979E+00
         21   -1    0    0  502  501  0.00000000000E+00  0.00000000000E+00  0.63339371843E+03  0.63339371843E+03  0.00000000000E+00 0.  1.
         21   -1    0    0  501  502 -0.00000000000E+00 -0.00000000000E+00 -0.80817705900E+02  0.80817705900E+02  0.00000000000E+00 0.  1.
      99926    2    1    2    0    0  0.00000000000E+00  0.00000000000E+00  0.55257601253E+03  0.71421142433E+03  0.45250161217E+03 0.  0.
      99925    2    3    3    0    0  0.71892428224E+02 -0.84289074595E+02  0.35569917202E+03  0.45598445486E+03  0.26291966980E+03 0.  0.
         25    1    3    3    0    0 -0.71892428224E+02  0.84289074595E+02  0.19687684051E+03  0.25822696947E+03  0.12509000000E+03 0.  0.
         25    1    4    4    0    0  0.23536869005E+02 -0.49728587985E+02  0.11644553928E+03  0.17953826440E+03  0.12509000000E+03 0.  0.
         25    1    4    4    0    0  0.48355559219E+02 -0.34560486610E+02  0.23925363273E+03  0.27644619046E+03  0.12509000000E+03 0.  0.
<mgrwt>
<rscale>  2 0.45250161E+03</rscale>
<asrwt>0</asrwt>
<pdfrwt beam="1">  1       21 0.93146133E-01 0.45250161E+03</pdfrwt>
<pdfrwt beam="2">  1       21 0.11884957E-01 0.45250161E+03</pdfrwt>
<totfact> 0.53175619E+04</totfact>
</mgrwt>
</event>
<event>
 7    0  0.4712189E-002  0.4554638E+03  0.7546771E-02  0.1026105E+00
         21   -1    0    0  502  501  0.00000000000E+00  0.00000000000E+00  0.11446671579E+03  0.11446671579E+03  0.00000000000E+00 0. -1.
         21   -1    0    0  501  502 -0.00000000000E+00 -0.00000000000E+00 -0.45307336583E+03  0.45307336583E+03  0.00000000000E+00 0. -1.
      99926    2    1    2    0    0  0.00000000000E+00  0.00000000000E+00 -0.33860665005E+03  0.56754008162E+03  0.45546380843E+03 0.  0.
      99925    2    3    3    0    0  0.23403781909E+02 -0.93484954785E+02 -0.13790689933E+03  0.31216766373E+03  0.26295087682E+03 0.  0.
         25    1    3    3    0    0 -0.23403781909E+02  0.93484954785E+02 -0.20069975072E+03  0.25537241789E+03  0.12509000000E+03 0.  0.
         25    1    4    4    0    0  0.10507876215E+02 -0.99005186091E+01 -0.86049431226E+02  0.15251376477E+03  0.12509000000E+03 0.  0.
         25    1    4    4    0    0  0.12895905694E+02 -0.83584436176E+02 -0.51857468103E+02  0.15965389896E+03  0.12509000000E+03 0.  0.
<mgrwt>
<rscale>  2 0.45546381E+03</rscale>
<asrwt>0</asrwt>
<pdfrwt beam="1">  1       21 0.16833341E-01 0.45546381E+03</pdfrwt>
<pdfrwt beam="2">  1       21 0.66628435E-01 0.45546381E+03</pdfrwt>
<totfact> 0.60499897E+04</totfact>
</mgrwt>
</event>
<event>
 7    0  0.4712189E-002  0.4426046E+03  0.7546771E-02  0.1029951E+00
         21   -1    0    0  502  501  0.00000000000E+00  0.00000000000E+00  0.26845998581E+03  0.26845998581E+03  0.00000000000E+00 0. -1.
         21   -1    0    0  501  502 -0.00000000000E+00 -0.00000000000E+00 -0.18242831501E+03  0.18242831501E+03  0.00000000000E+00 0. -1.
      99926    2    1    2    0    0  0.14210854715E-13  0.00000000000E+00  0.86031670804E+02  0.45088830082E+03  0.44260457683E+03 0.  0.
      99925    2    3    3    0    0  0.90697060881E+02  0.99368340895E+01  0.99170669191E+02  0.29550220458E+03  0.26298675587E+03 0.  0.
         25    1    3    3    0    0 -0.90697060881E+02 -0.99368340895E+01 -0.13138998387E+02  0.15538609623E+03  0.12509000000E+03 0.  0.
         25    1    4    4    0    0  0.26832420652E+02 -0.31632483755E+02  0.50998387707E+02  0.14131148741E+03  0.12509000000E+03 0.  0.
         25    1    4    4    0    0  0.63864640229E+02  0.41569317844E+02  0.48172281484E+02  0.15419071717E+03  0.12509000000E+03 0.  0.
<mgrwt>
<rscale>  2 0.44260458E+03</rscale>
<asrwt>0</asrwt>
<pdfrwt beam="1">  1       21 0.39479410E-01 0.44260458E+03</pdfrwt>
<pdfrwt beam="2">  1       21 0.26827693E-01 0.44260458E+03</pdfrwt>
<totfact> 0.76095398E+04</totfact>
</mgrwt>
</event>
<event>
 7    0  0.4712189E-002  0.4489710E+03  0.7546771E-02  0.1028029E+00
         21   -1    0    0  502  501  0.00000000000E+00  0.00000000000E+00  0.42551158413E+03  0.42551158413E+03  0.00000000000E+00 0.  1.
         21   -1    0    0  501  502 -0.00000000000E+00 -0.00000000000E+00 -0.11843095999E+03  0.11843095999E+03  0.00000000000E+00 0.  1.
      99926    2    1    2    0    0 -0.14210854715E-13 -0.14210854715E-13  0.30708062414E+03  0.54394254412E+03  0.44897102532E+03 0.  0.
      99925    2    3    3    0    0 -0.78117140402E+02 -0.66243319550E+02  0.15499162462E+03  0.32197624739E+03  0.26297497061E+03 0.  0.
         25    1    4    4    0    0 -0.19777738838E+02 -0.68873111131E+02  0.80235277105E+02  0.16498446043E+03  0.12509000000E+03 0.  0.
         25    1    3    3    0    0  0.78117140402E+02  0.66243319550E+02  0.15208899952E+03  0.22196629673E+03  0.12509000000E+03 0.  0.
         25    1    4    4    0    0 -0.58339401564E+02  0.26297915809E+01  0.74756347518E+02  0.15699178696E+03  0.12509000000E+03 0.  0.
<mgrwt>
<rscale>  2 0.44897103E+03</rscale>
<asrwt>0</asrwt>
<pdfrwt beam="1">  1       21 0.62575232E-01 0.44897103E+03</pdfrwt>
<pdfrwt beam="2">  1       21 0.17416318E-01 0.44897103E+03</pdfrwt>
<totfact> 0.65329967E+04</totfact>
</mgrwt>
</event>
<event>
 7    0  0.4712189E-002  0.4403679E+03  0.7546771E-02  0.1030634E+00
         21   -1    0    0  502  501  0.00000000000E+00  0.00000000000E+00  0.37000099022E+03  0.37000099022E+03  0.00000000000E+00 0.  1.
         21   -1    0    0  501  502 -0.00000000000E+00 -0.00000000000E+00 -0.13102932299E+03  0.13102932299E+03  0.00000000000E+00 0.  1.
      99926    2    1    2    0    0  0.00000000000E+00  0.00000000000E+00  0.23897166723E+03  0.50103031321E+03  0.44036793368E+03 0.  0.
      99925    2    3    3    0    0  0.59766165290E+02 -0.19338960198E+02  0.23929631567E+03  0.36105316010E+03  0.26296514566E+03 0.  0.
         25    1    4    4    0    0 -0.85356537556E+01 -0.24272450632E+02  0.11643131152E+03  0.17281715090E+03  0.12509000000E+03 0.  0.
         25    1    4    4    0    0  0.68301819045E+02  0.49334904338E+01  0.12286500415E+03  0.18823600920E+03  0.12509000000E+03 0.  0.
         25    1    3    3    0    0 -0.59766165290E+02  0.19338960198E+02 -0.32464843742E+00  0.13997715311E+03  0.12509000000E+03 0.  0.
<mgrwt>
<rscale>  2 0.44036793E+03</rscale>
<asrwt>0</asrwt>
<pdfrwt beam="1">  1       21 0.54411910E-01 0.44036793E+03</pdfrwt>
<pdfrwt beam="2">  1       21 0.19269018E-01 0.44036793E+03</pdfrwt>
<totfact> 0.73353514E+04</totfact>
</mgrwt>
</event>
<event>
 7    0  0.4712189E-002  0.4669897E+03  0.7546771E-02  0.1022773E+00
         21   -1    0    0  502  501  0.00000000000E+00  0.00000000000E+00  0.94142447414E+02  0.94142447414E+02  0.00000000000E+00 0.  1.
         21   -1    0    0  501  502 -0.00000000000E+00 -0.00000000000E+00 -0.57912075017E+03  0.57912075017E+03  0.00000000000E+00 0.  1.
      99926    2    1    2    0    0  0.00000000000E+00 -0.35527136788E-14 -0.48497830275E+03  0.67326319758E+03  0.46698969911E+03 0.  0.
      99925    2    3    3    0    0  0.80783173575E+02  0.31895654761E+02 -0.17423160465E+03  0.32720789506E+03  0.26299258659E+03 0.  0.
         25    1    4    4    0    0  0.48625992766E+02 -0.21536827557E+02 -0.10151871966E+03  0.16965223445E+03  0.12509000000E+03 0.  0.
         25    1    4    4    0    0  0.32157180809E+02  0.53432482318E+02 -0.72712884994E+02  0.15755566060E+03  0.12509000000E+03 0.  0.
         25    1    3    3    0    0 -0.80783173575E+02 -0.31895654761E+02 -0.31074669810E+03  0.34605530253E+03  0.12509000000E+03 0.  0.
<mgrwt>
<rscale>  2 0.46698970E+03</rscale>
<asrwt>0</asrwt>
<pdfrwt beam="1">  1       21 0.13844478E-01 0.46698970E+03</pdfrwt>
<pdfrwt beam="2">  1       21 0.85164815E-01 0.46698970E+03</pdfrwt>
<totfact> 0.49529136E+04</totfact>
</mgrwt>
</event>
<event>
 7    0  0.4712189E-002  0.4631847E+03  0.7546771E-02  0.1023862E+00
         21   -1    0    0  502  501  0.00000000000E+00  0.00000000000E+00  0.51985164968E+02  0.51985164968E+02  0.00000000000E+00 0. -1.
         21   -1    0    0  501  502 -0.00000000000E+00 -0.00000000000E+00 -0.10317369128E+04  0.10317369128E+04  0.00000000000E+00 0. -1.
      99926    2    1    2    0    0  0.00000000000E+00  0.00000000000E+00 -0.97975174788E+03  0.10837220778E+04  0.46318468722E+03 0.  0.
      99925    2    3    3    0    0 -0.93461083868E+02 -0.76117392064E+02 -0.59685192818E+03  0.66325969947E+03  0.26296838822E+03 0.  0.
         25    1    4    4    0    0 -0.60959854055E+02 -0.29711811342E+02 -0.21838433336E+03  0.26064942106E+03  0.12509000000E+03 0.  0.
         25    1    3    3    0    0  0.93461083868E+02  0.76117392064E+02 -0.38289981970E+03  0.42046237834E+03  0.12509000000E+03 0.  0.
         25    1    4    4    0    0 -0.32501229813E+02 -0.46405580722E+02 -0.37846759482E+03  0.40261027842E+03  0.12509000000E+03 0.  0.
<mgrwt>
<rscale>  2 0.46318469E+03</rscale>
<asrwt>0</asrwt>
<pdfrwt beam="1">  1       21 0.76448771E-02 0.46318469E+03</pdfrwt>
<pdfrwt beam="2">  1       21 0.15172602E+00 0.46318469E+03</pdfrwt>
<totfact> 0.33849886E+04</totfact>
</mgrwt>
</event>
<event>
 7    0  0.4712189E-002  0.4538824E+03  0.7546771E-02  0.1026571E+00
         21   -1    0    0  502  501  0.00000000000E+00  0.00000000000E+00  0.10259604995E+03  0.10259604995E+03  0.00000000000E+00 0. -1.
         21   -1    0    0  501  502 -0.00000000000E+00 -0.00000000000E+00 -0.50199114541E+03  0.50199114541E+03  0.00000000000E+00 0. -1.
      99926    2    1    2    0    0  0.14210854715E-13 -0.71054273576E-14 -0.39939509546E+03  0.60458719536E+03  0.45388240164E+03 0.  0.
      99925    2    3    3    0    0 -0.92819701693E+02  0.59882072483E+02 -0.27730090269E+03  0.39781229448E+03  0.26297808156E+03 0.  0.
         25    1    4    4    0    0 -0.45874074390E+02 -0.97021488903E+01 -0.14702046470E+03  0.19864815009E+03  0.12509000000E+03 0.  0.
         25    1    4    4    0    0 -0.46945627303E+02  0.69584221373E+02 -0.13028043800E+03  0.19916414439E+03  0.12509000000E+03 0.  0.
         25    1    3    3    0    0  0.92819701693E+02 -0.59882072483E+02 -0.12209419277E+03  0.20677490088E+03  0.12509000000E+03 0.  0.
<mgrwt>
<rscale>  2 0.45388240E+03</rscale>
<asrwt>0</asrwt>
<pdfrwt beam="1">  1       21 0.15087655E-01 0.45388240E+03</pdfrwt>
<pdfrwt beam="2">  1       21 0.73822226E-01 0.45388240E+03</pdfrwt>
<totfact> 0.58915254E+04</totfact>
</mgrwt>
</event>
<event>
 7    0  0.4712189E-002  0.4302142E+03  0.7546771E-02  0.1033792E+00
         21   -1    0    0  502  501  0.00000000000E+00  0.00000000000E+00  0.28206236646E+04  0.28206236646E+04  0.00000000000E+00 0.  1.
         21   -1    0    0  501  502 -0.00000000000E+00 -0.00000000000E+00 -0.16404547729E+02  0.16404547729E+02  0.00000000000E+00 0.  1.
      99926    2    1    2    0    0 -0.53290705182E-14 -0.88817841970E-15  0.28042191169E+04  0.28370282124E+04  0.43021415844E+03 0.  0.
      99925    2    3    3    0    0 -0.14323561019E+02 -0.55493742469E+01  0.23787242765E+04  0.23932610130E+04  0.26293180215E+03 0.  0.
         25    1    3    3    0    0  0.14323561019E+02  0.55493742469E+01  0.42549484040E+03  0.44376719940E+03  0.12509000000E+03 0.  0.
         25    1    4    4    0    0  0.27954696418E+02  0.16748756841E+02  0.12154667244E+04  0.12223210921E+04  0.12509000000E+03 0.  0.
         25    1    4    4    0    0 -0.42278257437E+02 -0.22298131088E+02  0.11632575521E+04  0.11709399208E+04  0.12509000000E+03 0.  0.
<mgrwt>
<rscale>  2 0.43021416E+03</rscale>
<asrwt>0</asrwt>
<pdfrwt beam="1">  1       21 0.41479726E+00 0.43021416E+03</pdfrwt>
<pdfrwt beam="2">  1       21 0.24124354E-02 0.43021416E+03</pdfrwt>
<totfact> 0.51929320E+03</totfact>
</mgrwt>
</event>
<event>
 7    0  0.4712189E-002  0.4561086E+03  0.7546771E-02  0.1025916E+00
         21   -1    0    0  502  501  0.00000000000E+00  0.00000000000E+00  0.80574369657E+02  0.80574369657E+02  0.00000000000E+00 0.  1.
         21   -1    0    0  501  502 -0.00000000000E+00 -0.00000000000E+00 -0.64547530100E+03  0.64547530100E+03  0.00000000000E+00 0.  1.
      99926    2    1    2    0    0  0.00000000000E+00  0.00000000000E+00 -0.56490093134E+03  0.72604967066E+03  0.45610860771E+03 0.  0.
      99925    2    3    3    0    0  0.12350311872E+02 -0.95546544058E+02 -0.25754536214E+03  0.38051150156E+03  0.26301657167E+03 0.  0.
         25    1    4    4    0    0  0.26813960277E+02 -0.75256729990E+02 -0.10575671241E+03  0.18224860547E+03  0.12509000000E+03 0.  0.
         25    1    4    4    0    0 -0.14463648405E+02 -0.20289814067E+02 -0.15178864973E+03  0.19826289609E+03  0.12509000000E+03 0.  0.
         25    1    3    3    0    0 -0.12350311872E+02  0.95546544058E+02 -0.30735556920E+03  0.34553816910E+03  0.12509000000E+03 0.  0.
<mgrwt>
<rscale>  2 0.45610861E+03</rscale>
<asrwt>0</asrwt>
<pdfrwt beam="1">  1       21 0.11849172E-01 0.45610861E+03</pdfrwt>
<pdfrwt beam="2">  1       21 0.94922840E-01 0.45610861E+03</pdfrwt>
<totfact> 0.51064722E+04</totfact>
</mgrwt>
</event>
<event>
 7    0  0.4712189E-002  0.4513902E+03  0.7546771E-02  0.1027308E+00
         21   -1    0    0  502  501  0.00000000000E+00  0.00000000000E+00  0.90022127519E+02  0.90022127519E+02  0.00000000000E+00 0. -1.
         21   -1    0    0  501  502 -0.00000000000E+00 -0.00000000000E+00 -0.56584171301E+03  0.56584171301E+03  0.00000000000E+00 0. -1.
      99926    2    1    2    0    0  0.00000000000E+00  0.00000000000E+00 -0.47581958549E+03  0.65586384053E+03  0.45139018529E+03 0.  0.
      99925    2    3    3    0    0 -0.12779277519E+02  0.36602546155E+02 -0.15128034801E+03  0.30589772633E+03  0.26302969217E+03 0.  0.
         25    1    4    4    0    0  0.25526013150E+02  0.21217821556E+02 -0.10370910529E+03  0.16584589208E+03  0.12509000000E+03 0.  0.
         25    1    4    4    0    0 -0.38305290670E+02  0.15384724600E+02 -0.47571242715E+02  0.14005183425E+03  0.12509000000E+03 0.  0.
         25    1    3    3    0    0  0.12779277519E+02 -0.36602546155E+02 -0.32453923748E+03  0.34996611419E+03  0.12509000000E+03 0.  0.
<mgrwt>
<rscale>  2 0.45139019E+03</rscale>
<asrwt>0</asrwt>
<pdfrwt beam="1">  1       21 0.13238548E-01 0.45139019E+03</pdfrwt>
<pdfrwt beam="2">  1       21 0.83212017E-01 0.45139019E+03</pdfrwt>
<totfact> 0.56969562E+04</totfact>
</mgrwt>
</event>
<event>
 7    0  0.4712189E-002  0.4577445E+03  0.7546771E-02  0.1025437E+00
         21   -1    0    0  502  501  0.00000000000E+00  0.00000000000E+00  0.16881883925E+03  0.16881883925E+03  0.00000000000E+00 0.  1.
         21   -1    0    0  501  502 -0.00000000000E+00 -0.00000000000E+00 -0.31028833976E+03  0.31028833976E+03  0.00000000000E+00 0.  1.
      99926    2    1    2    0    0  0.17763568394E-14  0.00000000000E+00 -0.14146950051E+03  0.47910717902E+03  0.45774454602E+03 0.  0.
      99925    2    3    3    0    0  0.69308550176E+01 -0.11429725805E+03 -0.10610179204E+03  0.30587241676E+03  0.26303696530E+03 0.  0.
         25    1    4    4    0    0 -0.28151721974E+02 -0.71908907894E+02 -0.77767927561E+02  0.16630925753E+03  0.12509000000E+03 0.  0.
         25    1    3    3    0    0 -0.69308550176E+01  0.11429725805E+03 -0.35367708469E+02  0.17323476225E+03  0.12509000000E+03 0.  0.
         25    1    4    4    0    0  0.35082576992E+02 -0.42388350161E+02 -0.28333864481E+02  0.13956315923E+03  0.12509000000E+03 0.  0.
<mgrwt>
<rscale>  2 0.45774455E+03</rscale>
<asrwt>0</asrwt>
<pdfrwt beam="1">  1       21 0.24826300E-01 0.45774455E+03</pdfrwt>
<pdfrwt beam="2">  1       21 0.45630638E-01 0.45774455E+03</pdfrwt>
<totfact> 0.65330430E+04</totfact>
</mgrwt>
</event>
<event>
 7    0  0.4712189E-002  0.4579258E+03  0.7546771E-02  0.1025385E+00
         21   -1    0    0  502  501  0.00000000000E+00  0.00000000000E+00  0.28926718606E+03  0.28926718606E+03  0.00000000000E+00 0. -1.
         21   -1    0    0  501  502 -0.00000000000E+00 -0.00000000000E+00 -0.18123041940E+03  0.18123041940E+03  0.00000000000E+00 0. -1.
      99926    2    1    2    0    0  0.00000000000E+00  0.00000000000E+00  0.10803676666E+03  0.47049760546E+03  0.45792581691E+03 0.  0.
      99925    2    3    3    0    0 -0.85349595935E+01  0.68858423059E+02 -0.27530649545E+02  0.27341802662E+03  0.26303070668E+03 0.  0.
         25    1    4    4    0    0 -0.39286536078E+02  0.13567392917E+02 -0.11158547922E+02  0.13228577913E+03  0.12509000000E+03 0.  0.
         25    1    4    4    0    0  0.30751576484E+02  0.55291030142E+02 -0.16372101623E+02  0.14113224749E+03  0.12509000000E+03 0.  0.
         25    1    3    3    0    0  0.85349595935E+01 -0.68858423059E+02  0.13556741621E+03  0.19707957885E+03  0.12509000000E+03 0.  0.
<mgrwt>
<rscale>  2 0.45792582E+03</rscale>
<asrwt>0</asrwt>
<pdfrwt beam="1">  1       21 0.42539292E-01 0.45792582E+03</pdfrwt>
<pdfrwt beam="2">  1       21 0.26651532E-01 0.45792582E+03</pdfrwt>
<totfact> 0.65857041E+04</totfact>
</mgrwt>
</event>
<event>
 7    0  0.4712189E-002  0.4686868E+03  0.7546771E-02  0.1022292E+00
         21   -1    0    0  502  501  0.00000000000E+00  0.00000000000E+00  0.19412665816E+03  0.19412665816E+03  0.00000000000E+00 0.  1.
         21   -1    0    0  501  502 -0.00000000000E+00 -0.00000000000E+00 -0.28289173154E+03  0.28289173154E+03  0.00000000000E+00 0.  1.
      99926    2    1    2    0    0  0.71054273576E-14  0.28421709430E-13 -0.88765073379E+02  0.47701838970E+03  0.46868678866E+03 0.  0.
      99925    2    3    3    0    0  0.44021679530E+02  0.11628199527E+03 -0.72894292991E+02  0.29993422761E+03  0.26303526807E+03 0.  0.
         25    1    3    3    0    0 -0.44021679530E+02 -0.11628199527E+03 -0.15870780388E+02  0.17708416209E+03  0.12509000000E+03 0.  0.
         25    1    4    4    0    0  0.13860516936E+01  0.18429168538E+02 -0.28830961095E+02  0.12969305228E+03  0.12509000000E+03 0.  0.
         25    1    4    4    0    0  0.42635627837E+02  0.97852826731E+02 -0.44063331896E+02  0.17024117533E+03  0.12509000000E+03 0.  0.
<mgrwt>
<rscale>  2 0.46868679E+03</rscale>
<asrwt>0</asrwt>
<pdfrwt beam="1">  1       21 0.28548038E-01 0.46868679E+03</pdfrwt>
<pdfrwt beam="2">  1       21 0.41601725E-01 0.46868679E+03</pdfrwt>
<totfact> 0.60115595E+04</totfact>
</mgrwt>
</event>
<event>
 7    0  0.4712189E-002  0.4544870E+03  0.7546771E-02  0.1026392E+00
         21   -1    0    0  502  501  0.00000000000E+00  0.00000000000E+00  0.86626610225E+03  0.86626610225E+03  0.00000000000E+00 0.  1.
         21   -1    0    0  501  502 -0.00000000000E+00 -0.00000000000E+00 -0.59611706466E+02  0.59611706466E+02  0.00000000000E+00 0.  1.
      99926    2    1    2    0    0  0.00000000000E+00  0.71054273576E-14  0.80665439578E+03  0.92587780872E+03  0.45448696619E+03 0.  0.
      99925    2    3    3    0    0 -0.48209422184E+02  0.63167688068E+02  0.35001831685E+03  0.44579623035E+03  0.26439960601E+03 0.  0.
         25    1    3    3    0    0  0.48209422184E+02 -0.63167688068E+02  0.45663607893E+03  0.48008157836E+03  0.12509000000E+03 0.  0.
         25    1    4    4    0    0 -0.10390527177E+02  0.42864943161E+00  0.20748698540E+03  0.24250052372E+03  0.12509000000E+03 0.  0.
         25    1    4    4    0    0 -0.37818895006E+02  0.62739038636E+02  0.14253133146E+03  0.20329570663E+03  0.12509000000E+03 0.  0.
<mgrwt>
<rscale>  2 0.45448697E+03</rscale>
<asrwt>0</asrwt>
<pdfrwt beam="1">  1       21 0.12739207E+00 0.45448697E+03</pdfrwt>
<pdfrwt beam="2">  1       21 0.87664280E-02 0.45448697E+03</pdfrwt>
<totfact> 0.42302887E+04</totfact>
</mgrwt>
</event>
<event>
 7    0  0.4712189E-002  0.4543146E+03  0.7546771E-02  0.1026443E+00
         21   -1    0    0  502  501  0.00000000000E+00  0.00000000000E+00  0.94640973342E+02  0.94640973342E+02  0.00000000000E+00 0.  1.
         21   -1    0    0  501  502 -0.00000000000E+00 -0.00000000000E+00 -0.54522313278E+03  0.54522313278E+03  0.00000000000E+00 0.  1.
      99926    2    1    2    0    0  0.00000000000E+00  0.71054273576E-14 -0.45058215944E+03  0.63986410613E+03  0.45431463976E+03 0.  0.
      99925    2    3    3    0    0  0.54029821672E+02  0.48258230703E+02 -0.16218102414E+03  0.31726404195E+03  0.26287964787E+03 0.  0.
         25    1    4    4    0    0  0.15588913775E+01  0.55192301558E+02 -0.86042488652E+02  0.16155320562E+03  0.12509000000E+03 0.  0.
         25    1    3    3    0    0 -0.54029821672E+02 -0.48258230703E+02 -0.28840113530E+03  0.32260006417E+03  0.12509000000E+03 0.  0.
         25    1    4    4    0    0  0.52470930294E+02 -0.69340708557E+01 -0.76138535489E+02  0.15571083633E+03  0.12509000000E+03 0.  0.
<mgrwt>
<rscale>  2 0.45431464E+03</rscale>
<asrwt>0</asrwt>
<pdfrwt beam="1">  1       21 0.13917791E-01 0.45431464E+03</pdfrwt>
<pdfrwt beam="2">  1       21 0.80179870E-01 0.45431464E+03</pdfrwt>
<totfact> 0.56594701E+04</totfact>
</mgrwt>
</event>
<event>
 7    0  0.4712189E-002  0.4541425E+03  0.7546771E-02  0.1026494E+00
         21   -1    0    0  502  501  0.00000000000E+00  0.00000000000E+00  0.40435468759E+02  0.40435468759E+02  0.00000000000E+00 0.  1.
         21   -1    0    0  501  502 -0.00000000000E+00 -0.00000000000E+00 -0.12751517316E+04  0.12751517316E+04  0.00000000000E+00 0.  1.
      99926    2    1    2    0    0  0.00000000000E+00  0.00000000000E+00 -0.12347162628E+04  0.13155872003E+04  0.45414252391E+03 0.  0.
      99925    2    3    3    0    0 -0.69805281440E+02 -0.79359242457E+01 -0.10311905771E+04  0.10665772225E+04  0.26324363064E+03 0.  0.
         25    1    3    3    0    0  0.69805281440E+02  0.79359242457E+01 -0.20352568573E+03  0.24900997784E+03  0.12509000000E+03 0.  0.
         25    1    4    4    0    0 -0.21182469765E+02  0.34818364599E+02 -0.48863039563E+03  0.50603180450E+03  0.12509000000E+03 0.  0.
         25    1    4    4    0    0 -0.48622811675E+02 -0.42754288845E+02 -0.54256018146E+03  0.56054541799E+03  0.12509000000E+03 0.  0.
<mgrwt>
<rscale>  2 0.45414252E+03</rscale>
<asrwt>0</asrwt>
<pdfrwt beam="1">  1       21 0.59463933E-02 0.45414252E+03</pdfrwt>
<pdfrwt beam="2">  1       21 0.18752229E+00 0.45414252E+03</pdfrwt>
<totfact> 0.28857294E+04</totfact>
</mgrwt>
</event>
<event>
 7    0  0.4712189E-002  0.4581555E+03  0.7546771E-02  0.1025318E+00
         21   -1    0    0  502  501  0.00000000000E+00  0.00000000000E+00  0.35822977958E+03  0.35822977958E+03  0.00000000000E+00 0. -1.
         21   -1    0    0  501  502 -0.00000000000E+00 -0.00000000000E+00 -0.14648868328E+03  0.14648868328E+03  0.00000000000E+00 0. -1.
      99926    2    1    2    0    0  0.00000000000E+00  0.00000000000E+00  0.21174109629E+03  0.50471846286E+03  0.45815547022E+03 0.  0.
      99925    2    3    3    0    0  0.45085441055E+02 -0.89383649569E+02  0.19771133128E+03  0.34388788053E+03  0.26295811464E+03 0.  0.
         25    1    4    4    0    0  0.24479557679E+02 -0.50704901223E+02  0.51463360792E+02  0.14651355349E+03  0.12509000000E+03 0.  0.
         25    1    3    3    0    0 -0.45085441055E+02  0.89383649569E+02  0.14029765013E+02  0.16083058233E+03  0.12509000000E+03 0.  0.
         25    1    4    4    0    0  0.20605883376E+02 -0.38678748347E+02  0.14624797049E+03  0.19737432704E+03  0.12509000000E+03 0.  0.
<mgrwt>
<rscale>  2 0.45815547E+03</rscale>
<asrwt>0</asrwt>
<pdfrwt beam="1">  1       21 0.52680850E-01 0.45815547E+03</pdfrwt>
<pdfrwt beam="2">  1       21 0.21542454E-01 0.45815547E+03</pdfrwt>
<totfact> 0.63339051E+04</totfact>
</mgrwt>
</event>
<event>
 7    0  0.4712189E-002  0.4592027E+03  0.7546771E-02  0.1025013E+00
         21   -1    0    0  502  501  0.00000000000E+00  0.00000000000E+00  0.15389424503E+04  0.15389424503E+04  0.00000000000E+00 0. -1.
         21   -1    0    0  501  502 -0.00000000000E+00 -0.00000000000E+00 -0.34255194313E+02  0.34255194313E+02  0.00000000000E+00 0. -1.
      99926    2    1    2    0    0  0.00000000000E+00  0.00000000000E+00  0.15046872560E+04  0.15731976447E+04  0.45920266843E+03 0.  0.
      99925    2    3    3    0    0 -0.70208170660E+02 -0.57447826797E+02  0.68917113694E+03  0.74317144710E+03  0.26290208018E+03 0.  0.
         25    1    3    3    0    0  0.70208170660E+02  0.57447826797E+02  0.81551611910E+03  0.83002619756E+03  0.12509000000E+03 0.  0.
         25    1    4    4    0    0 -0.12417967005E+02 -0.22215592136E+02  0.41668473273E+03  0.43579973960E+03  0.12509000000E+03 0.  0.
         25    1    4    4    0    0 -0.57790203655E+02 -0.35232234661E+02  0.27248640420E+03  0.30737170750E+03  0.12509000000E+03 0.  0.
<mgrwt>
<rscale>  2 0.45920267E+03</rscale>
<asrwt>0</asrwt>
<pdfrwt beam="1">  1       21 0.22631502E+00 0.45920267E+03</pdfrwt>
<pdfrwt beam="2">  1       21 0.50375296E-02 0.45920267E+03</pdfrwt>
<totfact> 0.21335945E+04</totfact>
</mgrwt>
</event>
<event>
 7    0  0.4712189E-002  0.4523789E+03  0.7546771E-02  0.1027015E+00
         21   -1    0    0  502  501  0.00000000000E+00  0.00000000000E+00  0.97003212341E+02  0.97003212341E+02  0.00000000000E+00 0.  1.
         21   -1    0    0  501  502 -0.00000000000E+00 -0.00000000000E+00 -0.52742235355E+03  0.52742235355E+03  0.00000000000E+00 0.  1.
      99926    2    1    2    0    0  0.00000000000E+00  0.00000000000E+00 -0.43041914121E+03  0.62442556590E+03  0.45237887906E+03 0.  0.
      99925    2    3    3    0    0 -0.29880757811E+02 -0.57920935238E+02 -0.14802505389E+03  0.30876495214E+03  0.26301460922E+03 0.  0.
         25    1    3    3    0    0  0.29880757811E+02  0.57920935238E+02 -0.28239408732E+03  0.31566061376E+03  0.12509000000E+03 0.  0.
         25    1    4    4    0    0 -0.18060011135E+02 -0.58123735044E+02 -0.11042814005E+03  0.17761310423E+03  0.12509000000E+03 0.  0.
         25    1    4    4    0    0 -0.11820746676E+02  0.20279980652E+00 -0.37596913843E+02  0.13115184791E+03  0.12509000000E+03 0.  0.
<mgrwt>
<rscale>  2 0.45237888E+03</rscale>
<asrwt>0</asrwt>
<pdfrwt beam="1">  1       21 0.14265178E-01 0.45237888E+03</pdfrwt>
<pdfrwt beam="2">  1       21 0.77562110E-01 0.45237888E+03</pdfrwt>
<totfact> 0.58398628E+04</totfact>
</mgrwt>
</event>
<event>
 7    0  0.4712189E-002  0.4553273E+03  0.7546771E-02  0.1026145E+00
         21   -1    0    0  502  501  0.00000000000E+00  0.00000000000E+00  0.56200306067E+03  0.56200306067E+03  0.00000000000E+00 0. -1.
         21   -1    0    0  501  502 -0.00000000000E+00 -0.00000000000E+00 -0.92225023551E+02  0.92225023551E+02  0.00000000000E+00 0. -1.
      99926    2    1    2    0    0  0.17763568394E-14  0.00000000000E+00  0.46977803712E+03  0.65422808422E+03  0.45532733503E+03 0.  0.
      99925    2    3    3    0    0 -0.13053793835E+02 -0.52213395595E+02  0.43912121807E+03  0.51464302461E+03  0.26293223159E+03 0.  0.
         25    1    4    4    0    0  0.22708791483E+02 -0.36325580075E+02  0.17059329977E+03  0.21583516629E+03  0.12509000000E+03 0.  0.
         25    1    3    3    0    0  0.13053793835E+02  0.52213395595E+02  0.30656819051E+02  0.13958505961E+03  0.12509000000E+03 0.  0.
         25    1    4    4    0    0 -0.35762585318E+02 -0.15887815520E+02  0.26852791829E+03  0.29880785832E+03  0.12509000000E+03 0.  0.
<mgrwt>
<rscale>  2 0.45532734E+03</rscale>
<asrwt>0</asrwt>
<pdfrwt beam="1">  1       21 0.82647507E-01 0.45532734E+03</pdfrwt>
<pdfrwt beam="2">  1       21 0.13562504E-01 0.45532734E+03</pdfrwt>
<totfact> 0.55315608E+04</totfact>
</mgrwt>
</event>
<event>
 7    0  0.4712189E-002  0.4581820E+03  0.7546771E-02  0.1025310E+00
         21   -1    0    0  502  501  0.00000000000E+00  0.00000000000E+00  0.12073407136E+04  0.12073407136E+04  0.00000000000E+00 0.  1.
         21   -1    0    0  501  502 -0.00000000000E+00 -0.00000000000E+00 -0.43469650798E+02  0.43469650798E+02  0.00000000000E+00 0.  1.
      99926    2    1    2    0    0  0.00000000000E+00 -0.14210854715E-13  0.11638710628E+04  0.12508103644E+04  0.45818196916E+03 0.  0.
      99925    2    3    3    0    0 -0.51190462759E+02  0.77750832443E+02  0.91538831416E+03  0.95745590322E+03  0.26480254055E+03 0.  0.
         25    1    4    4    0    0 -0.31363274055E+01  0.64363892514E+02  0.37473853662E+03  0.40028618029E+03  0.12509000000E+03 0.  0.
         25    1    4    4    0    0 -0.48054135353E+02  0.13386939929E+02  0.54064977754E+03  0.55716972292E+03  0.12509000000E+03 0.  0.
         25    1    3    3    0    0  0.51190462759E+02 -0.77750832443E+02  0.24848274866E+03  0.29335446120E+03  0.12509000000E+03 0.  0.
<mgrwt>
<rscale>  2 0.45818197E+03</rscale>
<asrwt>0</asrwt>
<pdfrwt beam="1">  1       21 0.17755008E+00 0.45818197E+03</pdfrwt>
<pdfrwt beam="2">  1       21 0.63925965E-02 0.45818197E+03</pdfrwt>
<totfact> 0.29831592E+04</totfact>
</mgrwt>
</event>
<event>
 7    0  0.4712189E-002  0.4579296E+03  0.7546771E-02  0.1025383E+00
         21   -1    0    0  502  501  0.00000000000E+00  0.00000000000E+00  0.92769950603E+03  0.92769950603E+03  0.00000000000E+00 0. -1.
         21   -1    0    0  501  502 -0.00000000000E+00 -0.00000000000E+00 -0.56510626738E+02  0.56510626738E+02  0.00000000000E+00 0. -1.
      99926    2    1    2    0    0 -0.71054273576E-14 -0.31086244690E-14  0.87118887930E+03  0.98421013277E+03  0.45792960381E+03 0.  0.
      99925    2    3    3    0    0 -0.40564134576E+02 -0.56139396802E+00  0.31349290611E+03  0.41121966969E+03  0.26301720548E+03 0.  0.
         25    1    3    3    0    0  0.40564134576E+02  0.56139396802E+00  0.55769597318E+03  0.57299046308E+03  0.12509000000E+03 0.  0.
         25    1    4    4    0    0 -0.31252237738E+02  0.38758439562E+02  0.16211998637E+03  0.21073518235E+03  0.12509000000E+03 0.  0.
         25    1    4    4    0    0 -0.93118968374E+01 -0.39319833530E+02  0.15137291975E+03  0.20048448734E+03  0.12509000000E+03 0.  0.
<mgrwt>
<rscale>  2 0.45792960E+03</rscale>
<asrwt>0</asrwt>
<pdfrwt beam="1">  1       21 0.13642639E+00 0.45792960E+03</pdfrwt>
<pdfrwt beam="2">  1       21 0.83103869E-02 0.45792960E+03</pdfrwt>
<totfact> 0.38887289E+04</totfact>
</mgrwt>
</event>
<event>
 7    0  0.4712189E-002  0.4655442E+03  0.7546771E-02  0.1023185E+00
         21   -1    0    0  502  501  0.00000000000E+00  0.00000000000E+00  0.63766514319E+03  0.63766514319E+03  0.00000000000E+00 0. -1.
         21   -1    0    0  501  502 -0.00000000000E+00 -0.00000000000E+00 -0.84970689938E+02  0.84970689938E+02  0.00000000000E+00 0. -1.
      99926    2    1    2    0    0  0.14210854715E-13 -0.35527136788E-14  0.55269445326E+03  0.72263583313E+03  0.46554418551E+03 0.  0.
      99925    2    3    3    0    0  0.11897294605E+03  0.10563863337E+02  0.38920687697E+03  0.48464034410E+03  0.26292225647E+03 0.  0.
         25    1    3    3    0    0 -0.11897294605E+03 -0.10563863337E+02  0.16348757629E+03  0.23799548903E+03  0.12509000000E+03 0.  0.
         25    1    4    4    0    0  0.64104325215E+02 -0.33415585613E+02  0.21332965662E+03  0.25764901779E+03  0.12509000000E+03 0.  0.
         25    1    4    4    0    0  0.54868620834E+02  0.43979448950E+02  0.17587722035E+03  0.22699132631E+03  0.12509000000E+03 0.  0.
<mgrwt>
<rscale>  2 0.46554419E+03</rscale>
<asrwt>0</asrwt>
<pdfrwt beam="1">  1       21 0.93774283E-01 0.46554419E+03</pdfrwt>
<pdfrwt beam="2">  1       21 0.12495690E-01 0.46554419E+03</pdfrwt>
<totfact> 0.47617540E+04</totfact>
</mgrwt>
</event>
<event>
 7    0  0.4712189E-002  0.4611349E+03  0.7546771E-02  0.1024453E+00
         21   -1    0    0  502  501  0.00000000000E+00  0.00000000000E+00  0.22632539915E+03  0.22632539915E+03  0.00000000000E+00 0. -1.
         21   -1    0    0  501  502 -0.00000000000E+00 -0.00000000000E+00 -0.23488902747E+03  0.23488902747E+03  0.00000000000E+00 0. -1.
      99926    2    1    2    0    0 -0.17763568394E-14 -0.14210854715E-13 -0.85636283223E+01  0.46121442662E+03  0.46113491691E+03 0.  0.
      99925    2    3    3    0    0 -0.80275106670E+01 -0.10530456252E+03  0.49871436522E+02  0.28738791334E+03  0.26258553033E+03 0.  0.
         25    1    4    4    0    0 -0.27953384850E+02 -0.18665640220E+02  0.25159307919E+02  0.13194808344E+03  0.12509000000E+03 0.  0.
         25    1    4    4    0    0  0.19925874183E+02 -0.86638922299E+02  0.24712128603E+02  0.15543982990E+03  0.12509000000E+03 0.  0.
         25    1    3    3    0    0  0.80275106670E+01  0.10530456252E+03 -0.58435064845E+02  0.17382651328E+03  0.12509000000E+03 0.  0.
<mgrwt>
<rscale>  2 0.46113492E+03</rscale>
<asrwt>0</asrwt>
<pdfrwt beam="1">  1       21 0.33283147E-01 0.46113492E+03</pdfrwt>
<pdfrwt beam="2">  1       21 0.34542504E-01 0.46113492E+03</pdfrwt>
<totfact> 0.64859409E+04</totfact>
</mgrwt>
</event>
<event>
 7    0  0.4712189E-002  0.4490853E+03  0.7546771E-02  0.1027995E+00
         21   -1    0    0  502  501  0.00000000000E+00  0.00000000000E+00  0.46892959367E+03  0.46892959367E+03  0.00000000000E+00 0.  1.
         21   -1    0    0  501  502 -0.00000000000E+00 -0.00000000000E+00 -0.10752021000E+03  0.10752021000E+03  0.00000000000E+00 0.  1.
      99926    2    1    2    0    0  0.14210854715E-13  0.00000000000E+00  0.36140938367E+03  0.57644980367E+03  0.44908532991E+03 0.  0.
      99925    2    3    3    0    0  0.10353561000E+03 -0.17253982013E+02  0.25848385239E+03  0.38342520543E+03  0.26302787643E+03 0.  0.
         25    1    4    4    0    0  0.32816279185E+02  0.26062564493E+02  0.13851890857E+03  0.19128816372E+03  0.12509000000E+03 0.  0.
         25    1    3    3    0    0 -0.10353561000E+03  0.17253982013E+02  0.10292553128E+03  0.19302459823E+03  0.12509000000E+03 0.  0.
         25    1    4    4    0    0  0.70719330816E+02 -0.43316546506E+02  0.11996494382E+03  0.19213704171E+03  0.12509000000E+03 0.  0.
<mgrwt>
<rscale>  2 0.44908533E+03</rscale>
<asrwt>0</asrwt>
<pdfrwt beam="1">  1       21 0.68960234E-01 0.44908533E+03</pdfrwt>
<pdfrwt beam="2">  1       21 0.15811796E-01 0.44908533E+03</pdfrwt>
<totfact> 0.63048824E+04</totfact>
</mgrwt>
</event>
<event>
 7    0  0.4712189E-002  0.4313399E+03  0.7546771E-02  0.1033438E+00
         21   -1    0    0  502  501  0.00000000000E+00  0.00000000000E+00  0.10403068526E+03  0.10403068526E+03  0.00000000000E+00 0.  1.
         21   -1    0    0  501  502 -0.00000000000E+00 -0.00000000000E+00 -0.44711351065E+03  0.44711351065E+03  0.00000000000E+00 0.  1.
      99926    2    1    2    0    0  0.00000000000E+00  0.00000000000E+00 -0.34308282540E+03  0.55114419591E+03  0.43133988872E+03 0.  0.
      99925    2    3    3    0    0  0.14712336976E+02 -0.66935582450E+02 -0.14817449758E+03  0.30962072001E+03  0.26308265521E+03 0.  0.
         25    1    4    4    0    0 -0.11100260787E+02 -0.14335456975E+02 -0.10665592992E+03  0.16538354393E+03  0.12509000000E+03 0.  0.
         25    1    3    3    0    0 -0.14712336976E+02  0.66935582450E+02 -0.19490832782E+03  0.24152347590E+03  0.12509000000E+03 0.  0.
         25    1    4    4    0    0  0.25812597763E+02 -0.52600125475E+02 -0.41518567657E+02  0.14423717608E+03  0.12509000000E+03 0.  0.
<mgrwt>
<rscale>  2 0.43133989E+03</rscale>
<asrwt>0</asrwt>
<pdfrwt beam="1">  1       21 0.15298630E-01 0.43133989E+03</pdfrwt>
<pdfrwt beam="2">  1       21 0.65751986E-01 0.43133989E+03</pdfrwt>
<totfact> 0.74848109E+04</totfact>
</mgrwt>
</event>
<event>
 7    0  0.4712189E-002  0.4605850E+03  0.7546771E-02  0.1024612E+00
         21   -1    0    0  502  501  0.00000000000E+00  0.00000000000E+00  0.95271566907E+02  0.95271566907E+02  0.00000000000E+00 0. -1.
         21   -1    0    0  501  502 -0.00000000000E+00 -0.00000000000E+00 -0.55666795836E+03  0.55666795836E+03  0.00000000000E+00 0. -1.
      99926    2    1    2    0    0  0.00000000000E+00  0.00000000000E+00 -0.46139639146E+03  0.65193952527E+03  0.46058496997E+03 0.  0.
      99925    2    3    3    0    0  0.52651887698E+02  0.10531334605E+03 -0.27264821905E+03  0.39672098593E+03  0.26303491630E+03 0.  0.
         25    1    3    3    0    0 -0.52651887698E+02 -0.10531334605E+03 -0.18874817241E+03  0.25521853934E+03  0.12509000000E+03 0.  0.
         25    1    4    4    0    0  0.92273315158E+01  0.81945513024E+02 -0.11101761098E+03  0.18647420411E+03  0.12509000000E+03 0.  0.
         25    1    4    4    0    0  0.43424556182E+02  0.23367833029E+02 -0.16163060807E+03  0.21024678182E+03  0.12509000000E+03 0.  0.
<mgrwt>
<rscale>  2 0.46058497E+03</rscale>
<asrwt>0</asrwt>
<pdfrwt beam="1">  1       21 0.14010525E-01 0.46058497E+03</pdfrwt>
<pdfrwt beam="2">  1       21 0.81862933E-01 0.46058497E+03</pdfrwt>
<totfact> 0.53206630E+04</totfact>
</mgrwt>
</event>
<event>
 7    0  0.4712189E-002  0.4567640E+03  0.7546771E-02  0.1025724E+00
         21   -1    0    0  502  501  0.00000000000E+00  0.00000000000E+00  0.13950665250E+03  0.13950665250E+03  0.00000000000E+00 0.  1.
         21   -1    0    0  501  502 -0.00000000000E+00 -0.00000000000E+00 -0.37387700531E+03  0.37387700531E+03  0.00000000000E+00 0.  1.
      99926    2    1    2    0    0  0.00000000000E+00 -0.14210854715E-13 -0.23437035280E+03  0.51338365781E+03  0.45676396293E+03 0.  0.
      99925    2    3    3    0    0 -0.12721646291E+02 -0.75297325987E+02 -0.24351433166E+03  0.36654140219E+03  0.26310044130E+03 0.  0.
         25    1    3    3    0    0  0.12721646291E+02  0.75297325987E+02  0.91439788608E+01  0.14684225562E+03  0.12509000000E+03 0.  0.
         25    1    4    4    0    0  0.24987347020E+01 -0.77513546494E+02 -0.11765409721E+03  0.18842661239E+03  0.12509000000E+03 0.  0.
         25    1    4    4    0    0 -0.15220380993E+02  0.22162205073E+01 -0.12586023445E+03  0.17811478980E+03  0.12509000000E+03 0.  0.
<mgrwt>
<rscale>  2 0.45676396E+03</rscale>
<asrwt>0</asrwt>
<pdfrwt beam="1">  1       21 0.20515685E-01 0.45676396E+03</pdfrwt>
<pdfrwt beam="2">  1       21 0.54981911E-01 0.45676396E+03</pdfrwt>
<totfact> 0.63447458E+04</totfact>
</mgrwt>
</event>
<event>
 7    0  0.4712189E-002  0.4527542E+03  0.7546771E-02  0.1026904E+00
         21   -1    0    0  502  501  0.00000000000E+00  0.00000000000E+00  0.74238512727E+03  0.74238512727E+03  0.00000000000E+00 0.  1.
         21   -1    0    0  501  502 -0.00000000000E+00 -0.00000000000E+00 -0.69029663307E+02  0.69029663307E+02  0.00000000000E+00 0.  1.
      99926    2    1    2    0    0  0.17763568394E-14  0.00000000000E+00  0.67335546396E+03  0.81141479058E+03  0.45275421756E+03 0.  0.
      99925    2    3    3    0    0 -0.10332550304E+02 -0.11744649996E+02  0.22822199598E+03  0.34877452988E+03  0.26327494154E+03 0.  0.
         25    1    3    3    0    0  0.10332550304E+02  0.11744649996E+02  0.44513346799E+03  0.46264026070E+03  0.12509000000E+03 0.  0.
         25    1    4    4    0    0 -0.31935012975E+02  0.56409599271E+01  0.76428481334E+02  0.15013489382E+03  0.12509000000E+03 0.  0.
         25    1    4    4    0    0  0.21602462672E+02 -0.17385609923E+02  0.15179351464E+03  0.19863963606E+03  0.12509000000E+03 0.  0.
<mgrwt>
<rscale>  2 0.45275422E+03</rscale>
<asrwt>0</asrwt>
<pdfrwt beam="1">  1       21 0.10917428E+00 0.45275422E+03</pdfrwt>
<pdfrwt beam="2">  1       21 0.10151422E-01 0.45275422E+03</pdfrwt>
<totfact> 0.48059006E+04</totfact>
</mgrwt>
</event>
<event>
 7    0  0.4712189E-002  0.4503159E+03  0.7546771E-02  0.1027628E+00
         21   -1    0    0  502  501  0.00000000000E+00  0.00000000000E+00  0.33185886776E+03  0.33185886776E+03  0.00000000000E+00 0.  1.
         21   -1    0    0  501  502 -0.00000000000E+00 -0.00000000000E+00 -0.15276405722E+03  0.15276405722E+03  0.00000000000E+00 0.  1.
      99926    2    1    2    0    0  0.00000000000E+00  0.00000000000E+00  0.17909481054E+03  0.48462292498E+03  0.45031592049E+03 0.  0.
      99925    2    3    3    0    0  0.89464441403E+02  0.18357347803E+02  0.17659520549E+03  0.32972090879E+03  0.26303827211E+03 0.  0.
         25    1    4    4    0    0  0.50357255248E+02  0.43497199228E+02  0.11619162926E+03  0.18323717501E+03  0.12509000000E+03 0.  0.
         25    1    4    4    0    0  0.39107186154E+02 -0.25139851425E+02  0.60403576235E+02  0.14648373377E+03  0.12509000000E+03 0.  0.
         25    1    3    3    0    0 -0.89464441403E+02 -0.18357347803E+02  0.24996050423E+01  0.15490201619E+03  0.12509000000E+03 0.  0.
<mgrwt>
<rscale>  2 0.45031592E+03</rscale>
<asrwt>0</asrwt>
<pdfrwt beam="1">  1       21 0.48802775E-01 0.45031592E+03</pdfrwt>
<pdfrwt beam="2">  1       21 0.22465302E-01 0.45031592E+03</pdfrwt>
<totfact> 0.68891396E+04</totfact>
</mgrwt>
</event>
<event>
 7    0  0.4712189E-002  0.4592842E+03  0.7546771E-02  0.1024989E+00
         21   -1    0    0  502  501  0.00000000000E+00  0.00000000000E+00  0.29714338978E+03  0.29714338978E+03  0.00000000000E+00 0.  1.
         21   -1    0    0  501  502 -0.00000000000E+00 -0.00000000000E+00 -0.17747492513E+03  0.17747492513E+03  0.00000000000E+00 0.  1.
      99926    2    1    2    0    0  0.00000000000E+00 -0.71054273576E-14  0.11966846465E+03  0.47461831492E+03  0.45928422945E+03 0.  0.
      99925    2    3    3    0    0  0.45487922409E+02 -0.45079656464E+02 -0.26191311269E+02  0.27207471753E+03  0.26312989306E+03 0.  0.
         25    1    3    3    0    0 -0.45487922409E+02  0.45079656464E+02  0.14585977592E+03  0.20254359739E+03  0.12509000000E+03 0.  0.
         25    1    4    4    0    0 -0.18141512861E+02 -0.25118089381E+02 -0.17497269514E+02  0.13005266412E+03  0.12509000000E+03 0.  0.
         25    1    4    4    0    0  0.63629435270E+02 -0.19961567083E+02 -0.86940417553E+01  0.14202205341E+03  0.12509000000E+03 0.  0.
<mgrwt>
<rscale>  2 0.45928423E+03</rscale>
<asrwt>0</asrwt>
<pdfrwt beam="1">  1       21 0.43697557E-01 0.45928423E+03</pdfrwt>
<pdfrwt beam="2">  1       21 0.26099254E-01 0.45928423E+03</pdfrwt>
<totfact> 0.64861026E+04</totfact>
</mgrwt>
</event>
<event>
 7    0  0.4712189E-002  0.4567938E+03  0.7546771E-02  0.1025715E+00
         21   -1    0    0  502  501  0.00000000000E+00  0.00000000000E+00  0.17527803005E+03  0.17527803005E+03  0.00000000000E+00 0. -1.
         21   -1    0    0  501  502 -0.00000000000E+00 -0.00000000000E+00 -0.29761367079E+03  0.29761367079E+03  0.00000000000E+00 0. -1.
      99926    2    1    2    0    0 -0.44408920985E-15 -0.17763568394E-14 -0.12233564074E+03  0.47289170085E+03  0.45679377375E+03 0.  0.
      99925    2    3    3    0    0 -0.25952233114E+01 -0.90320304906E+01  0.41618180643E+02  0.26645363167E+03  0.26301549785E+03 0.  0.
         25    1    4    4    0    0 -0.27729239299E+02  0.24887526522E+02  0.29977551482E+02  0.13391960790E+03  0.12509000000E+03 0.  0.
         25    1    4    4    0    0  0.25134015987E+02 -0.33919557012E+02  0.11640629162E+02  0.13253402376E+03  0.12509000000E+03 0.  0.
         25    1    3    3    0    0  0.25952233114E+01  0.90320304906E+01 -0.16395382139E+03  0.20643806918E+03  0.12509000000E+03 0.  0.
<mgrwt>
<rscale>  2 0.45679377E+03</rscale>
<asrwt>0</asrwt>
<pdfrwt beam="1">  1       21 0.25776181E-01 0.45679377E+03</pdfrwt>
<pdfrwt beam="2">  1       21 0.43766716E-01 0.45679377E+03</pdfrwt>
<totfact> 0.66273098E+04</totfact>
</mgrwt>
</event>
<event>
 7    0  0.4712189E-002  0.4541606E+03  0.7546771E-02  0.1026489E+00
         21   -1    0    0  502  501  0.00000000000E+00  0.00000000000E+00  0.57384605673E+02  0.57384605673E+02  0.00000000000E+00 0.  1.
         21   -1    0    0  501  502 -0.00000000000E+00 -0.00000000000E+00 -0.89859399838E+03  0.89859399838E+03  0.00000000000E+00 0.  1.
      99926    2    1    2    0    0 -0.71054273576E-14  0.00000000000E+00 -0.84120939271E+03  0.95597860405E+03  0.45416059828E+03 0.  0.
      99925    2    3    3    0    0 -0.60083993832E+02  0.64722828768E+02 -0.67562664442E+03  0.73044748534E+03  0.26321670788E+03 0.  0.
         25    1    4    4    0    0 -0.70809030076E+02  0.39075923039E+02 -0.38574263546E+03  0.41350421450E+03  0.12509000000E+03 0.  0.
         25    1    3    3    0    0  0.60083993832E+02 -0.64722828768E+02 -0.16558274829E+03  0.22553111871E+03  0.12509000000E+03 0.  0.
         25    1    4    4    0    0  0.10725036244E+02  0.25646905729E+02 -0.28988400897E+03  0.31694327084E+03  0.12509000000E+03 0.  0.
<mgrwt>
<rscale>  2 0.45416060E+03</rscale>
<asrwt>0</asrwt>
<pdfrwt beam="1">  1       21 0.84389120E-02 0.45416060E+03</pdfrwt>
<pdfrwt beam="2">  1       21 0.13214619E+00 0.45416060E+03</pdfrwt>
<totfact> 0.41169223E+04</totfact>
</mgrwt>
</event>
<event>
 7    0  0.4712189E-002  0.4547154E+03  0.7546771E-02  0.1026325E+00
         21   -1    0    0  502  501  0.00000000000E+00  0.00000000000E+00  0.94050437191E+03  0.94050437191E+03  0.00000000000E+00 0. -1.
         21   -1    0    0  501  502 -0.00000000000E+00 -0.00000000000E+00 -0.54961482101E+02  0.54961482101E+02  0.00000000000E+00 0. -1.
      99926    2    1    2    0    0  0.14210854715E-13 -0.71054273576E-14  0.88554288981E+03  0.99546585401E+03  0.45471535801E+03 0.  0.
      99925    2    3    3    0    0  0.82933579858E+02 -0.63337323411E+02  0.46457830592E+03  0.54408100248E+03  0.26325185606E+03 0.  0.
         25    1    4    4    0    0  0.43661809351E+02 -0.48123306066E+02  0.16695530306E+03  0.21850351829E+03  0.12509000000E+03 0.  0.
         25    1    4    4    0    0  0.39271770508E+02 -0.15214017344E+02  0.29762300286E+03  0.32557748419E+03  0.12509000000E+03 0.  0.
         25    1    3    3    0    0 -0.82933579858E+02  0.63337323411E+02  0.42096458389E+03  0.45138485153E+03  0.12509000000E+03 0.  0.
<mgrwt>
<rscale>  2 0.45471536E+03</rscale>
<asrwt>0</asrwt>
<pdfrwt beam="1">  1       21 0.13830946E+00 0.45471536E+03</pdfrwt>
<pdfrwt beam="2">  1       21 0.80825715E-02 0.45471536E+03</pdfrwt>
<totfact> 0.39431198E+04</totfact>
</mgrwt>
</event>
<event>
 7    0  0.4712189E-002  0.4572847E+03  0.7546771E-02  0.1025572E+00
         21   -1    0    0  502  501  0.00000000000E+00  0.00000000000E+00  0.26610052219E+03  0.26610052219E+03  0.00000000000E+00 0.  1.
         21   -1    0    0  501  502 -0.00000000000E+00 -0.00000000000E+00 -0.19645702366E+03  0.19645702366E+03  0.00000000000E+00 0.  1.
      99926    2    1    2    0    0  0.14210854715E-13  0.35527136788E-14  0.69643498530E+02  0.46255754585E+03  0.45728466663E+03 0.  0.
      99925    2    3    3    0    0 -0.10660206379E+03 -0.30112085866E+02  0.11291303161E+02  0.28557386150E+03  0.26297185995E+03 0.  0.
         25    1    4    4    0    0 -0.37177623882E+02  0.56962892394E+01  0.37249806205E+02  0.13582959762E+03  0.12509000000E+03 0.  0.
         25    1    4    4    0    0 -0.69424439912E+02 -0.35808375105E+02 -0.25958503044E+02  0.14974426388E+03  0.12509000000E+03 0.  0.
         25    1    3    3    0    0  0.10660206379E+03  0.30112085866E+02  0.58352195370E+02  0.17698368435E+03  0.12509000000E+03 0.  0.
<mgrwt>
<rscale>  2 0.45728467E+03</rscale>
<asrwt>0</asrwt>
<pdfrwt beam="1">  1       21 0.39132430E-01 0.45728467E+03</pdfrwt>
<pdfrwt beam="2">  1       21 0.28890739E-01 0.45728467E+03</pdfrwt>
<totfact> 0.66769754E+04</totfact>
</mgrwt>
</event>
<event>
 7    0  0.4712189E-002  0.4535432E+03  0.7546771E-02  0.1026671E+00
         21   -1    0    0  502  501  0.00000000000E+00  0.00000000000E+00  0.47700919014E+03  0.47700919014E+03  0.00000000000E+00 0.  1.
         21   -1    0    0  501  502 -0.00000000000E+00 -0.00000000000E+00 -0.10780787572E+03  0.10780787572E+03  0.00000000000E+00 0.  1.
      99926    2    1    2    0    0  0.00000000000E+00  0.00000000000E+00  0.36920131442E+03  0.58481706585E+03  0.45354315114E+03 0.  0.
      99925    2    3    3    0    0  0.45333036899E+02 -0.10203066623E+03  0.23162331342E+03  0.36792871775E+03  0.26316694500E+03 0.  0.
         25    1    3    3    0    0 -0.45333036899E+02  0.10203066623E+03  0.13757800099E+03  0.21688834810E+03  0.12509000000E+03 0.  0.
         25    1    4    4    0    0 -0.14562502729E+02 -0.67721755766E+02  0.11748797634E+03  0.18506548942E+03  0.12509000000E+03 0.  0.
         25    1    4    4    0    0  0.59895539628E+02 -0.34308910461E+02  0.11413533709E+03  0.18286322833E+03  0.12509000000E+03 0.  0.
<mgrwt>
<rscale>  2 0.45354315E+03</rscale>
<asrwt>0</asrwt>
<pdfrwt beam="1">  1       21 0.70148409E-01 0.45354315E+03</pdfrwt>
<pdfrwt beam="2">  1       21 0.15854100E-01 0.45354315E+03</pdfrwt>
<totfact> 0.60314258E+04</totfact>
</mgrwt>
</event>
<event>
 7    0  0.4712189E-002  0.4350728E+03  0.7546771E-02  0.1032269E+00
         21   -1    0    0  502  501  0.00000000000E+00  0.00000000000E+00  0.25743808732E+03  0.25743808732E+03  0.00000000000E+00 0.  1.
         21   -1    0    0  501  502 -0.00000000000E+00 -0.00000000000E+00 -0.18381927149E+03  0.18381927149E+03  0.00000000000E+00 0.  1.
      99926    2    1    2    0    0 -0.35527136788E-14  0.00000000000E+00  0.73618815838E+02  0.44125735881E+03  0.43507278317E+03 0.  0.
      99925    2    3    3    0    0 -0.24795202078E+02  0.78265246568E+02  0.30055474912E+01  0.27580648201E+03  0.26328678535E+03 0.  0.
         25    1    3    3    0    0  0.24795202078E+02 -0.78265246568E+02  0.70613268347E+02  0.16545087680E+03  0.12509000000E+03 0.  0.
         25    1    4    4    0    0  0.28359741181E+02  0.32770378827E+02 -0.18364885161E+01  0.13239733169E+03  0.12509000000E+03 0.  0.
         25    1    4    4    0    0 -0.53154943259E+02  0.45494867741E+02  0.48420360073E+01  0.14340915032E+03  0.12509000000E+03 0.  0.
<mgrwt>
<rscale>  2 0.43507278E+03</rscale>
<asrwt>0</asrwt>
<pdfrwt beam="1">  1       21 0.37858543E-01 0.43507278E+03</pdfrwt>
<pdfrwt beam="2">  1       21 0.27032246E-01 0.43507278E+03</pdfrwt>
<totfact> 0.81816358E+04</totfact>
</mgrwt>
</event>
<event>
 7    0  0.4712189E-002  0.4541275E+03  0.7546771E-02  0.1026498E+00
         21   -1    0    0  502  501  0.00000000000E+00  0.00000000000E+00  0.17441940381E+03  0.17441940381E+03  0.00000000000E+00 0. -1.
         21   -1    0    0  501  502 -0.00000000000E+00 -0.00000000000E+00 -0.29559756721E+03  0.29559756721E+03  0.00000000000E+00 0. -1.
      99926    2    1    2    0    0  0.00000000000E+00 -0.14210854715E-13 -0.12117816340E+03  0.47001697102E+03  0.45412752148E+03 0.  0.
      99925    2    3    3    0    0  0.21982320640E+02 -0.98660370675E+02 -0.25568229443E+02  0.28291844421E+03  0.26300574244E+03 0.  0.
         25    1    4    4    0    0  0.18187586541E+01 -0.76343073091E+01 -0.19000936691E+02  0.12676803314E+03  0.12509000000E+03 0.  0.
         25    1    4    4    0    0  0.20163561986E+02 -0.91026063366E+02 -0.65672927520E+01  0.15615041107E+03  0.12509000000E+03 0.  0.
         25    1    3    3    0    0 -0.21982320640E+02  0.98660370675E+02 -0.95609933955E+02  0.18709852681E+03  0.12509000000E+03 0.  0.
<mgrwt>
<rscale>  2 0.45412752E+03</rscale>
<asrwt>0</asrwt>
<pdfrwt beam="1">  1       21 0.25649913E-01 0.45412752E+03</pdfrwt>
<pdfrwt beam="2">  1       21 0.43470230E-01 0.45412752E+03</pdfrwt>
<totfact> 0.67903229E+04</totfact>
</mgrwt>
</event>
<event>
 7    0  0.4712189E-002  0.4469251E+03  0.7546771E-02  0.1028643E+00
         21   -1    0    0  502  501  0.00000000000E+00  0.00000000000E+00  0.54560832850E+02  0.54560832850E+02  0.00000000000E+00 0.  1.
         21   -1    0    0  501  502 -0.00000000000E+00 -0.00000000000E+00 -0.91522640340E+03  0.91522640340E+03  0.00000000000E+00 0.  1.
      99926    2    1    2    0    0  0.00000000000E+00  0.00000000000E+00 -0.86066557054E+03  0.96978723625E+03  0.44692511595E+03 0.  0.
      99925    2    3    3    0    0 -0.43652308277E+02  0.95440870944E+02 -0.52313896938E+03  0.59483897520E+03  0.26295349641E+03 0.  0.
         25    1    4    4    0    0 -0.32166336144E+02  0.25916345218E+02 -0.32028000453E+03  0.34631361442E+03  0.12509000000E+03 0.  0.
         25    1    4    4    0    0 -0.11485972133E+02  0.69524525726E+02 -0.20285896485E+03  0.24852536079E+03  0.12509000000E+03 0.  0.
         25    1    3    3    0    0  0.43652308277E+02 -0.95440870944E+02 -0.33752660117E+03  0.37494826104E+03  0.12509000000E+03 0.  0.
<mgrwt>
<rscale>  2 0.44692512E+03</rscale>
<asrwt>0</asrwt>
<pdfrwt beam="1">  1       21 0.80236525E-02 0.44692512E+03</pdfrwt>
<pdfrwt beam="2">  1       21 0.13459211E+00 0.44692512E+03</pdfrwt>
<totfact> 0.43000869E+04</totfact>
</mgrwt>
</event>
<event>
 7    0  0.4712189E-002  0.4415013E+03  0.7546771E-02  0.1030287E+00
         21   -1    0    0  502  501  0.00000000000E+00  0.00000000000E+00  0.30207179348E+03  0.30207179348E+03  0.00000000000E+00 0.  1.
         21   -1    0    0  501  502 -0.00000000000E+00 -0.00000000000E+00 -0.16132205486E+03  0.16132205486E+03  0.00000000000E+00 0.  1.
      99926    2    1    2    0    0  0.00000000000E+00 -0.71054273576E-14  0.14074973862E+03  0.46339384834E+03  0.44150126813E+03 0.  0.
      99925    2    3    3    0    0  0.27160088178E+02 -0.32393131786E+02 -0.52998578364E+01  0.26650561075E+03  0.26307825203E+03 0.  0.
         25    1    4    4    0    0  0.33942095899E+02 -0.50907306095E+02  0.58993338420E+01  0.13937693470E+03  0.12509000000E+03 0.  0.
         25    1    3    3    0    0 -0.27160088178E+02  0.32393131786E+02  0.14604959645E+03  0.19688823759E+03  0.12509000000E+03 0.  0.
         25    1    4    4    0    0 -0.67820077212E+01  0.18514174310E+02 -0.11199191678E+02  0.12712867605E+03  0.12509000000E+03 0.  0.
<mgrwt>
<rscale>  2 0.44150127E+03</rscale>
<asrwt>0</asrwt>
<pdfrwt beam="1">  1       21 0.44422323E-01 0.44150127E+03</pdfrwt>
<pdfrwt beam="2">  1       21 0.23723832E-01 0.44150127E+03</pdfrwt>
<totfact> 0.75720858E+04</totfact>
</mgrwt>
</event>
<event>
 7    0  0.4712189E-002  0.4521828E+03  0.7546771E-02  0.1027073E+00
         21   -1    0    0  502  501  0.00000000000E+00  0.00000000000E+00  0.28856660524E+03  0.28856660524E+03  0.00000000000E+00 0. -1.
         21   -1    0    0  501  502 -0.00000000000E+00 -0.00000000000E+00 -0.17714220854E+03  0.17714220854E+03  0.00000000000E+00 0. -1.
      99926    2    1    2    0    0  0.00000000000E+00  0.00000000000E+00  0.11142439670E+03  0.46570881379E+03  0.45218282040E+03 0.  0.
      99925    2    3    3    0    0  0.74729886222E+02  0.72621629089E+02  0.32435144730E+02  0.28475228052E+03  0.26300829976E+03 0.  0.
         25    1    3    3    0    0 -0.74729886222E+02 -0.72621629089E+02  0.78989251971E+02  0.18095653327E+03  0.12509000000E+03 0.  0.
         25    1    4    4    0    0  0.54848048100E+02  0.22804410747E+00  0.79028145228E+01  0.13681492229E+03  0.12509000000E+03 0.  0.
         25    1    4    4    0    0  0.19881838122E+02  0.72393584981E+02  0.24532330207E+02  0.14793735823E+03  0.12509000000E+03 0.  0.
<mgrwt>
<rscale>  2 0.45218282E+03</rscale>
<asrwt>0</asrwt>
<pdfrwt beam="1">  1       21 0.42436266E-01 0.45218282E+03</pdfrwt>
<pdfrwt beam="2">  1       21 0.26050325E-01 0.45218282E+03</pdfrwt>
<totfact> 0.69291881E+04</totfact>
</mgrwt>
</event>
<event>
 7    0  0.4712189E-002  0.4491630E+03  0.7546771E-02  0.1027972E+00
         21   -1    0    0  502  501  0.00000000000E+00  0.00000000000E+00  0.75748142005E+02  0.75748142005E+02  0.00000000000E+00 0.  1.
         21   -1    0    0  501  502 -0.00000000000E+00 -0.00000000000E+00 -0.66584924022E+03  0.66584924022E+03  0.00000000000E+00 0.  1.
      99926    2    1    2    0    0  0.00000000000E+00  0.00000000000E+00 -0.59010109821E+03  0.74159738222E+03  0.44916296732E+03 0.  0.
      99925    2    3    3    0    0  0.10425355754E+03  0.20609035757E+02 -0.39885137506E+03  0.48957059531E+03  0.26325541170E+03 0.  0.
         25    1    4    4    0    0  0.54860363930E+02 -0.10316923290E+02 -0.25960136983E+03  0.29352423708E+03  0.12509000000E+03 0.  0.
         25    1    4    4    0    0  0.49393193614E+02  0.30925959047E+02 -0.13925000523E+03  0.19604635823E+03  0.12509000000E+03 0.  0.
         25    1    3    3    0    0 -0.10425355754E+03 -0.20609035757E+02 -0.19124972316E+03  0.25202678691E+03  0.12509000000E+03 0.  0.
<mgrwt>
<rscale>  2 0.44916297E+03</rscale>
<asrwt>0</asrwt>
<pdfrwt beam="1">  1       21 0.11139432E-01 0.44916297E+03</pdfrwt>
<pdfrwt beam="2">  1       21 0.97919010E-01 0.44916297E+03</pdfrwt>
<totfact> 0.53096744E+04</totfact>
</mgrwt>
</event>
<event>
 7    0  0.4712189E-002  0.4562340E+03  0.7546771E-02  0.1025879E+00
         21   -1    0    0  502  501  0.00000000000E+00  0.00000000000E+00  0.66418759444E+02  0.66418759444E+02  0.00000000000E+00 0.  1.
         21   -1    0    0  501  502 -0.00000000000E+00 -0.00000000000E+00 -0.78347374690E+03  0.78347374690E+03  0.00000000000E+00 0.  1.
      99926    2    1    2    0    0  0.00000000000E+00  0.00000000000E+00 -0.71705498746E+03  0.84989250634E+03  0.45623395019E+03 0.  0.
      99925    2    3    3    0    0  0.69540709043E+02  0.77199695169E+02 -0.53986413604E+03  0.60939342303E+03  0.26289038686E+03 0.  0.
         25    1    4    4    0    0  0.35835767071E+02 -0.16658545057E+00 -0.21730890757E+03  0.25328817454E+03  0.12509000000E+03 0.  0.
         25    1    3    3    0    0 -0.69540709043E+02 -0.77199695169E+02 -0.17719085141E+03  0.24049908331E+03  0.12509000000E+03 0.  0.
         25    1    4    4    0    0  0.33704941972E+02  0.77366280620E+02 -0.32255522847E+03  0.35610524849E+03  0.12509000000E+03 0.  0.
<mgrwt>
<rscale>  2 0.45623395E+03</rscale>
<asrwt>0</asrwt>
<pdfrwt beam="1">  1       21 0.97674648E-02 0.45623395E+03</pdfrwt>
<pdfrwt beam="2">  1       21 0.11521673E+00 0.45623395E+03</pdfrwt>
<totfact> 0.45006943E+04</totfact>
</mgrwt>
</event>
<event>
 7    0  0.4712189E-002  0.4538144E+03  0.7546771E-02  0.1026591E+00
         21   -1    0    0  502  501  0.00000000000E+00  0.00000000000E+00  0.23778663587E+03  0.23778663587E+03  0.00000000000E+00 0.  1.
         21   -1    0    0  501  502 -0.00000000000E+00 -0.00000000000E+00 -0.21652555525E+03  0.21652555525E+03  0.00000000000E+00 0.  1.
      99926    2    1    2    0    0 -0.88817841970E-15  0.00000000000E+00  0.21261080623E+02  0.45431219113E+03  0.45381442623E+03 0.  0.
      99925    2    3    3    0    0  0.22627903682E+01  0.11079353202E+03 -0.32998972158E+01  0.28540074483E+03  0.26298739299E+03 0.  0.
         25    1    4    4    0    0  0.29865436230E+02  0.85370284607E+02  0.59459015369E+01  0.15447618464E+03  0.12509000000E+03 0.  0.
         25    1    3    3    0    0 -0.22627903682E+01 -0.11079353202E+03  0.24560977839E+02  0.16891144629E+03  0.12509000000E+03 0.  0.
         25    1    4    4    0    0 -0.27602645861E+02  0.25423247410E+02 -0.92457987527E+01  0.13092456019E+03  0.12509000000E+03 0.  0.
<mgrwt>
<rscale>  2 0.45381443E+03</rscale>
<asrwt>0</asrwt>
<pdfrwt beam="1">  1       21 0.34968623E-01 0.45381443E+03</pdfrwt>
<pdfrwt beam="2">  1       21 0.31841993E-01 0.45381443E+03</pdfrwt>
<totfact> 0.69248984E+04</totfact>
</mgrwt>
</event>
<event>
 7    0  0.4712189E-002  0.4255876E+03  0.7546771E-02  0.1035263E+00
         21   -1    0    0  502  501  0.00000000000E+00  0.00000000000E+00  0.30974397007E+04  0.30974397007E+04  0.00000000000E+00 0. -1.
         21   -1    0    0  501  502 -0.00000000000E+00 -0.00000000000E+00 -0.14618915826E+02  0.14618915826E+02  0.00000000000E+00 0. -1.
      99926    2    1    2    0    0  0.71054273576E-14  0.00000000000E+00  0.30828207849E+04  0.31120586166E+04  0.42558764203E+03 0.  0.
      99925    2    3    3    0    0 -0.41207124164E+02 -0.45217597371E+02  0.15912038210E+04  0.16139560389E+04  0.26302440422E+03 0.  0.
         25    1    4    4    0    0 -0.21209086925E+02 -0.15042257583E+02  0.55023645844E+03  0.56487499784E+03  0.12509000000E+03 0.  0.
         25    1    3    3    0    0  0.41207124164E+02  0.45217597371E+02  0.14916169639E+04  0.14981025777E+04  0.12509000000E+03 0.  0.
         25    1    4    4    0    0 -0.19998037239E+02 -0.30175339788E+02  0.10409673626E+04  0.10490810410E+04  0.12509000000E+03 0.  0.
<mgrwt>
<rscale>  2 0.42558764E+03</rscale>
<asrwt>0</asrwt>
<pdfrwt beam="1">  1       21 0.45550538E+00 0.42558764E+03</pdfrwt>
<pdfrwt beam="2">  1       21 0.21498427E-02 0.42558764E+03</pdfrwt>
<totfact> 0.33801052E+03</totfact>
</mgrwt>
</event>
<event>
 7    0  0.4712189E-002  0.4546596E+03  0.7546771E-02  0.1026342E+00
         21   -1    0    0  502  501  0.00000000000E+00  0.00000000000E+00  0.67884788710E+03  0.67884788710E+03  0.00000000000E+00 0.  1.
         21   -1    0    0  501  502 -0.00000000000E+00 -0.00000000000E+00 -0.76127287937E+02  0.76127287937E+02  0.00000000000E+00 0.  1.
      99926    2    1    2    0    0  0.35527136788E-14 -0.17763568394E-14  0.60272059917E+03  0.75497517504E+03  0.45465964662E+03 0.  0.
      99925    2    3    3    0    0 -0.26051837408E+02 -0.91950558096E+01  0.56054981604E+03  0.62010809109E+03  0.26373225265E+03 0.  0.
         25    1    4    4    0    0  0.10627156655E+02 -0.20106034567E+02  0.20463629306E+03  0.24091639551E+03  0.12509000000E+03 0.  0.
         25    1    4    4    0    0 -0.36678994063E+02  0.10910978757E+02  0.35591352298E+03  0.37919169558E+03  0.12509000000E+03 0.  0.
         25    1    3    3    0    0  0.26051837408E+02  0.91950558096E+01  0.42170783125E+02  0.13486708395E+03  0.12509000000E+03 0.  0.
<mgrwt>
<rscale>  2 0.45465965E+03</rscale>
<asrwt>0</asrwt>
<pdfrwt beam="1">  1       21 0.99830568E-01 0.45465965E+03</pdfrwt>
<pdfrwt beam="2">  1       21 0.11195190E-01 0.45465965E+03</pdfrwt>
<totfact> 0.50151763E+04</totfact>
</mgrwt>
</event>
<event>
 7    0  0.4712189E-002  0.4605129E+03  0.7546771E-02  0.1024633E+00
         21   -1    0    0  502  501  0.00000000000E+00  0.00000000000E+00  0.72641373090E+03  0.72641373090E+03  0.00000000000E+00 0.  1.
         21   -1    0    0  501  502 -0.00000000000E+00 -0.00000000000E+00 -0.72986013019E+02  0.72986013019E+02  0.00000000000E+00 0.  1.
      99926    2    1    2    0    0  0.00000000000E+00  0.00000000000E+00  0.65342771788E+03  0.79939974392E+03  0.46051294019E+03 0.  0.
      99925    2    3    3    0    0  0.69518133847E+02  0.75864394671E+02  0.30805974533E+03  0.41793582442E+03  0.26302351479E+03 0.  0.
         25    1    3    3    0    0 -0.69518133847E+02 -0.75864394671E+02  0.34536797255E+03  0.38146391950E+03  0.12509000000E+03 0.  0.
         25    1    4    4    0    0  0.42024669910E+02  0.36201067633E+02  0.21454885402E+03  0.25447064475E+03  0.12509000000E+03 0.  0.
         25    1    4    4    0    0  0.27493463937E+02  0.39663327038E+02  0.93510891302E+02  0.16346517967E+03  0.12509000000E+03 0.  0.
<mgrwt>
<rscale>  2 0.46051294E+03</rscale>
<asrwt>0</asrwt>
<pdfrwt beam="1">  1       21 0.10682554E+00 0.46051294E+03</pdfrwt>
<pdfrwt beam="2">  1       21 0.10733238E-01 0.46051294E+03</pdfrwt>
<totfact> 0.45780805E+04</totfact>
</mgrwt>
</event>
<event>
 7    0  0.4712189E-002  0.4582382E+03  0.7546771E-02  0.1025293E+00
         21   -1    0    0  502  501  0.00000000000E+00  0.00000000000E+00  0.13576242458E+03  0.13576242458E+03  0.00000000000E+00 0.  1.
         21   -1    0    0  501  502 -0.00000000000E+00 -0.00000000000E+00 -0.38667230337E+03  0.38667230337E+03  0.00000000000E+00 0.  1.
      99926    2    1    2    0    0  0.71054273576E-14  0.00000000000E+00 -0.25090987879E+03  0.52243472795E+03  0.45823823246E+03 0.  0.
      99925    2    3    3    0    0 -0.37112155822E+02  0.81627751649E+02 -0.73278749409E+02  0.28740126613E+03  0.26303861068E+03 0.  0.
         25    1    4    4    0    0 -0.58428992697E+02  0.44508750844E+02 -0.28660873654E+02  0.14786456596E+03  0.12509000000E+03 0.  0.
         25    1    4    4    0    0  0.21316836875E+02  0.37119000806E+02 -0.44617875755E+02  0.13953670016E+03  0.12509000000E+03 0.  0.
         25    1    3    3    0    0  0.37112155822E+02 -0.81627751649E+02 -0.17763112939E+03  0.23503346182E+03  0.12509000000E+03 0.  0.
<mgrwt>
<rscale>  2 0.45823823E+03</rscale>
<asrwt>0</asrwt>
<pdfrwt beam="1">  1       21 0.19965063E-01 0.45823823E+03</pdfrwt>
<pdfrwt beam="2">  1       21 0.56863573E-01 0.45823823E+03</pdfrwt>
<totfact> 0.62110587E+04</totfact>
</mgrwt>
</event>
<event>
 7    0  0.4712189E-002  0.4526839E+03  0.7546771E-02  0.1026925E+00
         21   -1    0    0  502  501  0.00000000000E+00  0.00000000000E+00  0.43940192560E+02  0.43940192560E+02  0.00000000000E+00 0. -1.
         21   -1    0    0  501  502 -0.00000000000E+00 -0.00000000000E+00 -0.11659182204E+04  0.11659182204E+04  0.00000000000E+00 0. -1.
      99926    2    1    2    0    0 -0.35527136788E-14  0.00000000000E+00 -0.11219780279E+04  0.12098584130E+04  0.45268386812E+03 0.  0.
      99925    2    3    3    0    0 -0.27532870908E+02  0.26359695382E+02 -0.98611476316E+03  0.10212868687E+04  0.26296701222E+03 0.  0.
         25    1    3    3    0    0  0.27532870908E+02 -0.26359695382E+02 -0.13586326470E+03  0.18857154429E+03  0.12509000000E+03 0.  0.
         25    1    4    4    0    0  0.10312817801E+02 -0.13406077740E+02 -0.54894665328E+03  0.56327259242E+03  0.12509000000E+03 0.  0.
         25    1    4    4    0    0 -0.37845688709E+02  0.39765773122E+02 -0.43716810988E+03  0.45801427627E+03  0.12509000000E+03 0.  0.
<mgrwt>
<rscale>  2 0.45268387E+03</rscale>
<asrwt>0</asrwt>
<pdfrwt beam="1">  1       21 0.64617937E-02 0.45268387E+03</pdfrwt>
<pdfrwt beam="2">  1       21 0.17145854E+00 0.45268387E+03</pdfrwt>
<totfact> 0.32426105E+04</totfact>
</mgrwt>
</event>
<event>
 7    0  0.4712189E-002  0.4520868E+03  0.7546771E-02  0.1027102E+00
         21   -1    0    0  502  501  0.00000000000E+00  0.00000000000E+00  0.94500213251E+02  0.94500213251E+02  0.00000000000E+00 0. -1.
         21   -1    0    0  501  502 -0.00000000000E+00 -0.00000000000E+00 -0.54069324232E+03  0.54069324232E+03  0.00000000000E+00 0. -1.
      99926    2    1    2    0    0  0.00000000000E+00  0.00000000000E+00 -0.44619302907E+03  0.63519345557E+03  0.45208683548E+03 0.  0.
      99925    2    3    3    0    0 -0.37816472898E+02 -0.43906946186E+02 -0.41331348472E+03  0.49346668294E+03  0.26329341991E+03 0.  0.
         25    1    4    4    0    0 -0.39316057372E+02 -0.54962994555E+02 -0.24794445949E+03  0.28581575574E+03  0.12509000000E+03 0.  0.
         25    1    3    3    0    0  0.37816472898E+02  0.43906946186E+02 -0.32879544351E+02  0.14172677264E+03  0.12509000000E+03 0.  0.
         25    1    4    4    0    0  0.14995844745E+01  0.11056048370E+02 -0.16536902523E+03  0.20765092719E+03  0.12509000000E+03 0.  0.
<mgrwt>
<rscale>  2 0.45208684E+03</rscale>
<asrwt>0</asrwt>
<pdfrwt beam="1">  1       21 0.13897091E-01 0.45208684E+03</pdfrwt>
<pdfrwt beam="2">  1       21 0.79513710E-01 0.45208684E+03</pdfrwt>
<totfact> 0.57882071E+04</totfact>
</mgrwt>
</event>
<event>
 7    0  0.4712189E-002  0.4807879E+03  0.7546771E-02  0.1018919E+00
         21   -1    0    0  502  501  0.00000000000E+00  0.00000000000E+00  0.25384366003E+03  0.25384366003E+03  0.00000000000E+00 0. -1.
         21   -1    0    0  501  502 -0.00000000000E+00 -0.00000000000E+00 -0.22765689385E+03  0.22765689385E+03  0.00000000000E+00 0. -1.
      99926    2    1    2    0    0  0.00000000000E+00 -0.88817841970E-15  0.26186766180E+02  0.48150055387E+03  0.48078793314E+03 0.  0.
      99925    2    3    3    0    0  0.57464889478E+02 -0.79997626339E+01  0.13921879541E+03  0.30320316898E+03  0.26302866566E+03 0.  0.
         25    1    4    4    0    0  0.37336036743E+02  0.23934352926E+02  0.38386381617E+02  0.13815880458E+03  0.12509000000E+03 0.  0.
         25    1    3    3    0    0 -0.57464889478E+02  0.79997626339E+01 -0.11303202923E+03  0.17829738489E+03  0.12509000000E+03 0.  0.
         25    1    4    4    0    0  0.20128852734E+02 -0.31934115560E+02  0.10083241380E+03  0.16504436440E+03  0.12509000000E+03 0.  0.
<mgrwt>
<rscale>  2 0.48078793E+03</rscale>
<asrwt>0</asrwt>
<pdfrwt beam="1">  1       21 0.37329950E-01 0.48078793E+03</pdfrwt>
<pdfrwt beam="2">  1       21 0.33478955E-01 0.48078793E+03</pdfrwt>
<totfact> 0.54532212E+04</totfact>
</mgrwt>
</event>
<event>
 7    0  0.4712189E-002  0.4556381E+03  0.7546771E-02  0.1026054E+00
         21   -1    0    0  502  501  0.00000000000E+00  0.00000000000E+00  0.13127293241E+03  0.13127293241E+03  0.00000000000E+00 0.  1.
         21   -1    0    0  501  502 -0.00000000000E+00 -0.00000000000E+00 -0.39537102924E+03  0.39537102924E+03  0.00000000000E+00 0.  1.
      99926    2    1    2    0    0  0.00000000000E+00  0.35527136788E-14 -0.26409809683E+03  0.52664396164E+03  0.45563807741E+03 0.  0.
      99925    2    3    3    0    0  0.89372897115E+02 -0.18653161198E+02 -0.24460541911E+03  0.37055767863E+03  0.26295575097E+03 0.  0.
         25    1    4    4    0    0  0.77460841775E+02  0.15589376209E+02 -0.12379045796E+03  0.19291136887E+03  0.12509000000E+03 0.  0.
         25    1    4    4    0    0  0.11912055340E+02 -0.34242537407E+02 -0.12081496115E+03  0.17764630975E+03  0.12509000000E+03 0.  0.
         25    1    3    3    0    0 -0.89372897115E+02  0.18653161198E+02 -0.19492677719E+02  0.15608628302E+03  0.12509000000E+03 0.  0.
<mgrwt>
<rscale>  2 0.45563808E+03</rscale>
<asrwt>0</asrwt>
<pdfrwt beam="1">  1       21 0.19304843E-01 0.45563808E+03</pdfrwt>
<pdfrwt beam="2">  1       21 0.58142799E-01 0.45563808E+03</pdfrwt>
<totfact> 0.63114450E+04</totfact>
</mgrwt>
</event>
<event>
 7    0  0.4712189E-002  0.4543343E+03  0.7546771E-02  0.1026437E+00
         21   -1    0    0  502  501  0.00000000000E+00  0.00000000000E+00  0.17870913109E+04  0.17870913109E+04  0.00000000000E+00 0.  1.
         21   -1    0    0  501  502 -0.00000000000E+00 -0.00000000000E+00 -0.28876487483E+02  0.28876487483E+02  0.00000000000E+00 0.  1.
      99926    2    1    2    0    0 -0.35527136788E-14  0.14210854715E-13  0.17582148234E+04  0.18159677984E+04  0.45433432567E+03 0.  0.
      99925    2    3    3    0    0  0.20889583079E+02  0.11010348629E+03  0.11469292777E+04  0.11820303575E+04  0.26303962776E+03 0.  0.
         25    1    3    3    0    0 -0.20889583079E+02 -0.11010348629E+03  0.61128554571E+03  0.63393744081E+03  0.12509000000E+03 0.  0.
         25    1    4    4    0    0 -0.17326551181E+02  0.42094788548E+02  0.65928756963E+03  0.67259184367E+03  0.12509000000E+03 0.  0.
         25    1    4    4    0    0  0.38216134260E+02  0.68008697745E+02  0.48764170805E+03  0.50943851388E+03  0.12509000000E+03 0.  0.
<mgrwt>
<rscale>  2 0.45433433E+03</rscale>
<asrwt>0</asrwt>
<pdfrwt beam="1">  1       21 0.26280747E+00 0.45433433E+03</pdfrwt>
<pdfrwt beam="2">  1       21 0.42465435E-02 0.45433433E+03</pdfrwt>
<totfact> 0.17042584E+04</totfact>
</mgrwt>
</event>
<event>
 7    0  0.4712189E-002  0.4547416E+03  0.7546771E-02  0.1026317E+00
         21   -1    0    0  502  501  0.00000000000E+00  0.00000000000E+00  0.10852111219E+03  0.10852111219E+03  0.00000000000E+00 0.  1.
         21   -1    0    0  501  502 -0.00000000000E+00 -0.00000000000E+00 -0.47638182082E+03  0.47638182082E+03  0.00000000000E+00 0.  1.
      99926    2    1    2    0    0 -0.71054273576E-14  0.00000000000E+00 -0.36786070862E+03  0.58490293301E+03  0.45474161905E+03 0.  0.
      99925    2    3    3    0    0  0.52693680383E+02  0.10010521357E+03 -0.21875301006E+03  0.35978453837E+03  0.26228678370E+03 0.  0.
         25    1    4    4    0    0  0.64982791624E+02  0.41599267585E+02 -0.10997517857E+03  0.18356282378E+03  0.12509000000E+03 0.  0.
         25    1    4    4    0    0 -0.12289111241E+02  0.58505945982E+02 -0.10877783149E+03  0.17622171459E+03  0.12509000000E+03 0.  0.
         25    1    3    3    0    0 -0.52693680383E+02 -0.10010521357E+03 -0.14910769857E+03  0.22511839464E+03  0.12509000000E+03 0.  0.
<mgrwt>
<rscale>  2 0.45474162E+03</rscale>
<asrwt>0</asrwt>
<pdfrwt beam="1">  1       21 0.15958987E-01 0.45474162E+03</pdfrwt>
<pdfrwt beam="2">  1       21 0.70056150E-01 0.45474162E+03</pdfrwt>
<totfact> 0.59739205E+04</totfact>
</mgrwt>
</event>
<event>
 7    0  0.4712189E-002  0.4560693E+03  0.7546771E-02  0.1025927E+00
         21   -1    0    0  502  501  0.00000000000E+00  0.00000000000E+00  0.24962994043E+02  0.24962994043E+02  0.00000000000E+00 0. -1.
         21   -1    0    0  501  502 -0.00000000000E+00 -0.00000000000E+00 -0.20830757652E+04  0.20830757652E+04  0.00000000000E+00 0. -1.
      99926    2    1    2    0    0  0.00000000000E+00  0.00000000000E+00 -0.20581127712E+04  0.21080387593E+04  0.45606932771E+03 0.  0.
      99925    2    3    3    0    0 -0.96481596995E+02 -0.18048338229E+02 -0.10226255688E+04  0.10604149263E+04  0.26283515902E+03 0.  0.
         25    1    4    4    0    0 -0.95972320102E+01  0.77999807755E+01 -0.48650563425E+03  0.50248202636E+03  0.12509000000E+03 0.  0.
         25    1    4    4    0    0 -0.86884364985E+02 -0.25848319005E+02 -0.53611993457E+03  0.55793289993E+03  0.12509000000E+03 0.  0.
         25    1    3    3    0    0  0.96481596995E+02  0.18048338229E+02 -0.10354872024E+04  0.10476238330E+04  0.12509000000E+03 0.  0.
<mgrwt>
<rscale>  2 0.45606933E+03</rscale>
<asrwt>0</asrwt>
<pdfrwt beam="1">  1       21 0.36710278E-02 0.45606933E+03</pdfrwt>
<pdfrwt beam="2">  1       21 0.30633473E+00 0.45606933E+03</pdfrwt>
<totfact> 0.11925520E+04</totfact>
</mgrwt>
</event>
<event>
 7    0  0.4712189E-002  0.4593060E+03  0.7546771E-02  0.1024983E+00
         21   -1    0    0  502  501  0.00000000000E+00  0.00000000000E+00  0.31067004612E+03  0.31067004612E+03  0.00000000000E+00 0. -1.
         21   -1    0    0  501  502 -0.00000000000E+00 -0.00000000000E+00 -0.16976371482E+03  0.16976371482E+03  0.00000000000E+00 0. -1.
      99926    2    1    2    0    0  0.35527136788E-14 -0.35527136788E-14  0.14090633129E+03  0.48043376094E+03  0.45930600307E+03 0.  0.
      99925    2    3    3    0    0 -0.27893608150E+02  0.28396322726E+02  0.20412619802E+03  0.33473316324E+03  0.26228683028E+03 0.  0.
         25    1    3    3    0    0  0.27893608150E+02 -0.28396322726E+02 -0.63219866728E+02  0.14570059770E+03  0.12509000000E+03 0.  0.
         25    1    4    4    0    0 -0.19634014961E+02  0.17345066951E+02  0.15180824215E+03  0.19844292977E+03  0.12509000000E+03 0.  0.
         25    1    4    4    0    0 -0.82595931897E+01  0.11051255775E+02  0.52317955872E+02  0.13629023347E+03  0.12509000000E+03 0.  0.
<mgrwt>
<rscale>  2 0.45930600E+03</rscale>
<asrwt>0</asrwt>
<pdfrwt beam="1">  1       21 0.45686772E-01 0.45930600E+03</pdfrwt>
<pdfrwt beam="2">  1       21 0.24965252E-01 0.45930600E+03</pdfrwt>
<totfact> 0.64437976E+04</totfact>
</mgrwt>
</event>
<event>
 7    0  0.4712189E-002  0.4531572E+03  0.7546771E-02  0.1026785E+00
         21   -1    0    0  502  501  0.00000000000E+00  0.00000000000E+00  0.17868464334E+04  0.17868464334E+04  0.00000000000E+00 0.  1.
         21   -1    0    0  501  502 -0.00000000000E+00 -0.00000000000E+00 -0.28730982686E+02  0.28730982686E+02  0.00000000000E+00 0.  1.
      99926    2    1    2    0    0  0.00000000000E+00  0.00000000000E+00  0.17581154507E+04  0.18155774161E+04  0.45315716453E+03 0.  0.
      99925    2    3    3    0    0 -0.33030463728E+02 -0.56489857492E+02  0.14695410820E+04  0.14943223929E+04  0.26299487972E+03 0.  0.
         25    1    4    4    0    0 -0.40804983132E+02 -0.26810903895E+02  0.92864329021E+03  0.93830151858E+03  0.12509000000E+03 0.  0.
         25    1    4    4    0    0  0.77745194046E+01 -0.29678953596E+02  0.54089779177E+03  0.55602087432E+03  0.12509000000E+03 0.  0.
         25    1    3    3    0    0  0.33030463728E+02  0.56489857492E+02  0.28857436876E+03  0.32125502321E+03  0.12509000000E+03 0.  0.
<mgrwt>
<rscale>  2 0.45315716E+03</rscale>
<asrwt>0</asrwt>
<pdfrwt beam="1">  1       21 0.26277146E+00 0.45315716E+03</pdfrwt>
<pdfrwt beam="2">  1       21 0.42251457E-02 0.45315716E+03</pdfrwt>
<totfact> 0.17206935E+04</totfact>
</mgrwt>
</event>
<event>
 7    0  0.4712189E-002  0.4504524E+03  0.7546771E-02  0.1027587E+00
         21   -1    0    0  502  501  0.00000000000E+00  0.00000000000E+00  0.32240171047E+03  0.32240171047E+03  0.00000000000E+00 0. -1.
         21   -1    0    0  501  502 -0.00000000000E+00 -0.00000000000E+00 -0.15734050361E+03  0.15734050361E+03  0.00000000000E+00 0. -1.
      99926    2    1    2    0    0 -0.35527136788E-14  0.00000000000E+00  0.16506120686E+03  0.47974221408E+03  0.45045242808E+03 0.  0.
      99925    2    3    3    0    0  0.31439404865E+02 -0.99389076915E+02  0.72168671953E+02  0.29227713486E+03  0.26334574529E+03 0.  0.
         25    1    4    4    0    0  0.29637396833E+02 -0.74998568867E+02  0.70796185777E+02  0.16481131224E+03  0.12509000000E+03 0.  0.
         25    1    4    4    0    0  0.18020080316E+01 -0.24390508048E+02  0.13724861759E+01  0.12746582261E+03  0.12509000000E+03 0.  0.
         25    1    3    3    0    0 -0.31439404865E+02  0.99389076915E+02  0.92892534908E+02  0.18746507923E+03  0.12509000000E+03 0.  0.
<mgrwt>
<rscale>  2 0.45045243E+03</rscale>
<asrwt>0</asrwt>
<pdfrwt beam="1">  1       21 0.47412016E-01 0.45045243E+03</pdfrwt>
<pdfrwt beam="2">  1       21 0.23138309E-01 0.45045243E+03</pdfrwt>
<totfact> 0.69182727E+04</totfact>
</mgrwt>
</event>
<event>
 7    0  0.4712189E-002  0.4333214E+03  0.7546771E-02  0.1032816E+00
         21   -1    0    0  502  501  0.00000000000E+00  0.00000000000E+00  0.30876227963E+03  0.30876227963E+03  0.00000000000E+00 0.  1.
         21   -1    0    0  501  502 -0.00000000000E+00 -0.00000000000E+00 -0.15203234039E+03  0.15203234039E+03  0.00000000000E+00 0.  1.
      99926    2    1    2    0    0  0.00000000000E+00 -0.17763568394E-14  0.15672993925E+03  0.46079462002E+03  0.43332136803E+03 0.  0.
      99925    2    3    3    0    0  0.85278539905E+02  0.85961190180E+01  0.67069487451E+02  0.28463325267E+03  0.26300465728E+03 0.  0.
         25    1    4    4    0    0  0.51942152782E+02  0.25332589719E+02  0.68959097263E+02  0.15408631520E+03  0.12509000000E+03 0.  0.
         25    1    3    3    0    0 -0.85278539905E+02 -0.85961190180E+01  0.89660451795E+02  0.17616136735E+03  0.12509000000E+03 0.  0.
         25    1    4    4    0    0  0.33336387123E+02 -0.16736470701E+02 -0.18896098123E+01  0.13054693747E+03  0.12509000000E+03 0.  0.
<mgrwt>
<rscale>  2 0.43332137E+03</rscale>
<asrwt>0</asrwt>
<pdfrwt beam="1">  1       21 0.45406217E-01 0.43332137E+03</pdfrwt>
<pdfrwt beam="2">  1       21 0.22357697E-01 0.43332137E+03</pdfrwt>
<totfact> 0.81225516E+04</totfact>
</mgrwt>
</event>
<event>
 7    0  0.4712189E-002  0.4542917E+03  0.7546771E-02  0.1026450E+00
         21   -1    0    0  502  501  0.00000000000E+00  0.00000000000E+00  0.13645004918E+03  0.13645004918E+03  0.00000000000E+00 0. -1.
         21   -1    0    0  501  502 -0.00000000000E+00 -0.00000000000E+00 -0.37812540926E+03  0.37812540926E+03  0.00000000000E+00 0. -1.
      99926    2    1    2    0    0  0.00000000000E+00  0.00000000000E+00 -0.24167536008E+03  0.51457545844E+03  0.45429167147E+03 0.  0.
      99925    2    3    3    0    0 -0.92392009384E+02 -0.36888701483E+02 -0.92883278547E+02  0.29620959270E+03  0.26308888171E+03 0.  0.
         25    1    3    3    0    0  0.92392009384E+02  0.36888701483E+02 -0.14879208153E+03  0.21836586574E+03  0.12509000000E+03 0.  0.
         25    1    4    4    0    0 -0.56825060498E+02 -0.90972910608E+01 -0.87446067174E+02  0.16311398153E+03  0.12509000000E+03 0.  0.
         25    1    4    4    0    0 -0.35566948886E+02 -0.27791410422E+02 -0.54372113722E+01  0.13309561117E+03  0.12509000000E+03 0.  0.
<mgrwt>
<rscale>  2 0.45429167E+03</rscale>
<asrwt>0</asrwt>
<pdfrwt beam="1">  1       21 0.20066184E-01 0.45429167E+03</pdfrwt>
<pdfrwt beam="2">  1       21 0.55606678E-01 0.45429167E+03</pdfrwt>
<totfact> 0.64620800E+04</totfact>
</mgrwt>
</event>
<event>
 7    0  0.4712189E-002  0.4509428E+03  0.7546771E-02  0.1027441E+00
         21   -1    0    0  502  501  0.00000000000E+00  0.00000000000E+00  0.25854345999E+02  0.25854345999E+02  0.00000000000E+00 0. -1.
         21   -1    0    0  501  502 -0.00000000000E+00 -0.00000000000E+00 -0.19662981238E+04  0.19662981238E+04  0.00000000000E+00 0. -1.
      99926    2    1    2    0    0  0.00000000000E+00  0.00000000000E+00 -0.19404437778E+04  0.19921524698E+04  0.45094279917E+03 0.  0.
      99925    2    3    3    0    0  0.10315018654E+03 -0.15668452381E+01 -0.13857881258E+04  0.14142832662E+04  0.26295629232E+03 0.  0.
         25    1    3    3    0    0 -0.10315018654E+03  0.15668452381E+01 -0.55465565208E+03  0.57786920360E+03  0.12509000000E+03 0.  0.
         25    1    4    4    0    0  0.11743396947E+02 -0.18032406233E+01 -0.70272828961E+03  0.71387373965E+03  0.12509000000E+03 0.  0.
         25    1    4    4    0    0  0.91406789590E+02  0.23639538519E+00 -0.68305983614E+03  0.70040952658E+03  0.12509000000E+03 0.  0.
<mgrwt>
<rscale>  2 0.45094280E+03</rscale>
<asrwt>0</asrwt>
<pdfrwt beam="1">  1       21 0.38021097E-02 0.45094280E+03</pdfrwt>
<pdfrwt beam="2">  1       21 0.28916149E+00 0.45094280E+03</pdfrwt>
<totfact> 0.14282765E+04</totfact>
</mgrwt>
</event>
<event>
 7    0  0.4712189E-002  0.4532365E+03  0.7546771E-02  0.1026761E+00
         21   -1    0    0  502  501  0.00000000000E+00  0.00000000000E+00  0.32188673429E+03  0.32188673429E+03  0.00000000000E+00 0.  1.
         21   -1    0    0  501  502 -0.00000000000E+00 -0.00000000000E+00 -0.15954628516E+03  0.15954628516E+03  0.00000000000E+00 0.  1.
      99926    2    1    2    0    0 -0.88817841970E-15 -0.17763568394E-14  0.16234044913E+03  0.48143301945E+03  0.45323650647E+03 0.  0.
      99925    2    3    3    0    0  0.30343911857E+01  0.14173930447E+02 -0.15090960791E+02  0.26385654747E+03  0.26302553623E+03 0.  0.
         25    1    4    4    0    0 -0.13784755131E+02  0.44593537207E+02 -0.43899262681E+01  0.13358661081E+03  0.12509000000E+03 0.  0.
         25    1    4    4    0    0  0.16819146317E+02 -0.30419606760E+02 -0.10701034523E+02  0.13026993666E+03  0.12509000000E+03 0.  0.
         25    1    3    3    0    0 -0.30343911857E+01 -0.14173930447E+02  0.17743140992E+03  0.21757647198E+03  0.12509000000E+03 0.  0.
<mgrwt>
<rscale>  2 0.45323651E+03</rscale>
<asrwt>0</asrwt>
<pdfrwt beam="1">  1       21 0.47336285E-01 0.45323651E+03</pdfrwt>
<pdfrwt beam="2">  1       21 0.23462689E-01 0.45323651E+03</pdfrwt>
<totfact> 0.67536408E+04</totfact>
</mgrwt>
</event>
<event>
 7    0  0.4712189E-002  0.4547576E+03  0.7546771E-02  0.1026313E+00
         21   -1    0    0  502  501  0.00000000000E+00  0.00000000000E+00  0.20833317394E+03  0.20833317394E+03  0.00000000000E+00 0.  1.
         21   -1    0    0  501  502 -0.00000000000E+00 -0.00000000000E+00 -0.24816559424E+03  0.24816559424E+03  0.00000000000E+00 0.  1.
      99926    2    1    2    0    0  0.14210854715E-13  0.00000000000E+00 -0.39832420298E+02  0.45649876819E+03  0.45475763177E+03 0.  0.
      99925    2    3    3    0    0 -0.91512222868E+02 -0.18796394191E+02 -0.88929453253E+02  0.29283503331E+03  0.26289944410E+03 0.  0.
         25    1    4    4    0    0 -0.82611620264E+02  0.52686076933E+01 -0.33870827590E+02  0.15377639315E+03  0.12509000000E+03 0.  0.
         25    1    3    3    0    0  0.91512222868E+02  0.18796394191E+02  0.49097032954E+02  0.16366373488E+03  0.12509000000E+03 0.  0.
         25    1    4    4    0    0 -0.89006026043E+01 -0.24065001884E+02 -0.55058625662E+02  0.13905864016E+03  0.12509000000E+03 0.  0.
<mgrwt>
<rscale>  2 0.45475763E+03</rscale>
<asrwt>0</asrwt>
<pdfrwt beam="1">  1       21 0.30637232E-01 0.45475763E+03</pdfrwt>
<pdfrwt beam="2">  1       21 0.36494940E-01 0.45475763E+03</pdfrwt>
<totfact> 0.68568656E+04</totfact>
</mgrwt>
</event>
<event>
 7    0  0.4712189E-002  0.4544180E+03  0.7546771E-02  0.1026413E+00
         21   -1    0    0  502  501  0.00000000000E+00  0.00000000000E+00  0.13373887415E+02  0.13373887415E+02  0.00000000000E+00 0.  1.
         21   -1    0    0  501  502 -0.00000000000E+00 -0.00000000000E+00 -0.38600533473E+04  0.38600533473E+04  0.00000000000E+00 0.  1.
      99926    2    1    2    0    0  0.71054273576E-14  0.00000000000E+00 -0.38466794599E+04  0.38734272347E+04  0.45441795248E+03 0.  0.
      99925    2    3    3    0    0 -0.62623835260E+02 -0.51529825697E+02 -0.30880300502E+04  0.31002690991E+04  0.26298636565E+03 0.  0.
         25    1    4    4    0    0 -0.53692368223E+02  0.58784483152E+01 -0.16686597813E+04  0.16742133676E+04  0.12509000000E+03 0.  0.
         25    1    4    4    0    0 -0.89314670370E+01 -0.57408274012E+02 -0.14193702689E+04  0.14260557315E+04  0.12509000000E+03 0.  0.
         25    1    3    3    0    0  0.62623835260E+02  0.51529825697E+02 -0.75864940973E+03  0.77315813561E+03  0.12509000000E+03 0.  0.
<mgrwt>
<rscale>  2 0.45441795E+03</rscale>
<asrwt>0</asrwt>
<pdfrwt beam="1">  1       21 0.19667480E-02 0.45441795E+03</pdfrwt>
<pdfrwt beam="2">  1       21 0.56765496E+00 0.45441795E+03</pdfrwt>
<totfact> 0.59744944E+02</totfact>
</mgrwt>
</event>
<event>
 7    0  0.4712189E-002  0.4527255E+03  0.7546771E-02  0.1026912E+00
         21   -1    0    0  502  501  0.00000000000E+00  0.00000000000E+00  0.18702410758E+03  0.18702410758E+03  0.00000000000E+00 0.  1.
         21   -1    0    0  501  502 -0.00000000000E+00 -0.00000000000E+00 -0.27397592384E+03  0.27397592384E+03  0.00000000000E+00 0.  1.
      99926    2    1    2    0    0  0.35527136788E-14  0.00000000000E+00 -0.86951816259E+02  0.46100003142E+03  0.45272553564E+03 0.  0.
      99925    2    3    3    0    0 -0.25824165073E+02 -0.10574320834E+03 -0.33372621527E+02  0.28673944545E+03  0.26316774897E+03 0.  0.
         25    1    4    4    0    0 -0.29239092686E+02 -0.91848941450E+02 -0.30275669132E+02  0.16079576123E+03  0.12509000000E+03 0.  0.
         25    1    4    4    0    0  0.34149276136E+01 -0.13894266895E+02 -0.30969523954E+01  0.12594368423E+03  0.12509000000E+03 0.  0.
         25    1    3    3    0    0  0.25824165073E+02  0.10574320834E+03 -0.53579194732E+02  0.17426058597E+03  0.12509000000E+03 0.  0.
<mgrwt>
<rscale>  2 0.45272554E+03</rscale>
<asrwt>0</asrwt>
<pdfrwt beam="1">  1       21 0.27503545E-01 0.45272554E+03</pdfrwt>
<pdfrwt beam="2">  1       21 0.40290577E-01 0.45272554E+03</pdfrwt>
<totfact> 0.69353624E+04</totfact>
</mgrwt>
</event>
<event>
 7    0  0.4712189E-002  0.4680771E+03  0.7546771E-02  0.1022464E+00
         21   -1    0    0  502  501  0.00000000000E+00  0.00000000000E+00  0.14642707776E+03  0.14642707776E+03  0.00000000000E+00 0. -1.
         21   -1    0    0  501  502 -0.00000000000E+00 -0.00000000000E+00 -0.37407042778E+03  0.37407042778E+03  0.00000000000E+00 0. -1.
      99926    2    1    2    0    0  0.00000000000E+00  0.00000000000E+00 -0.22764335002E+03  0.52049750554E+03  0.46807708603E+03 0.  0.
      99925    2    3    3    0    0  0.12089636535E+03 -0.23893343383E+02 -0.11777128522E+03  0.31335938318E+03  0.26293954512E+03 0.  0.
         25    1    4    4    0    0  0.48587683631E+02 -0.14762443506E+02 -0.15039263520E+02  0.13583953874E+03  0.12509000000E+03 0.  0.
         25    1    3    3    0    0 -0.12089636535E+03  0.23893343383E+02 -0.10987206480E+03  0.20713812236E+03  0.12509000000E+03 0.  0.
         25    1    4    4    0    0  0.72308681721E+02 -0.91308998774E+01 -0.10273202170E+03  0.17751984444E+03  0.12509000000E+03 0.  0.
<mgrwt>
<rscale>  2 0.46807709E+03</rscale>
<asrwt>0</asrwt>
<pdfrwt beam="1">  1       21 0.21533394E-01 0.46807709E+03</pdfrwt>
<pdfrwt beam="2">  1       21 0.55010357E-01 0.46807709E+03</pdfrwt>
<totfact> 0.57635982E+04</totfact>
</mgrwt>
</event>
<event>
 7    0  0.4712189E-002  0.4508554E+03  0.7546771E-02  0.1027467E+00
         21   -1    0    0  502  501  0.00000000000E+00  0.00000000000E+00  0.11175535670E+03  0.11175535670E+03  0.00000000000E+00 0.  1.
         21   -1    0    0  501  502 -0.00000000000E+00 -0.00000000000E+00 -0.45472230272E+03  0.45472230272E+03  0.00000000000E+00 0.  1.
      99926    2    1    2    0    0  0.00000000000E+00 -0.14210854715E-13 -0.34296694601E+03  0.56647765942E+03  0.45085542313E+03 0.  0.
      99925    2    3    3    0    0  0.36652590685E+02  0.94879474752E+02 -0.26733962657E+03  0.38839754632E+03  0.26274826531E+03 0.  0.
         25    1    3    3    0    0 -0.36652590685E+02 -0.94879474752E+02 -0.75627319444E+02  0.17808011309E+03  0.12509000000E+03 0.  0.
         25    1    4    4    0    0 -0.17593252208E+02  0.47669918459E+02 -0.15482176230E+03  0.20542451127E+03  0.12509000000E+03 0.  0.
         25    1    4    4    0    0  0.54245842893E+02  0.47209556294E+02 -0.11251786427E+03  0.18297303505E+03  0.12509000000E+03 0.  0.
<mgrwt>
<rscale>  2 0.45085542E+03</rscale>
<asrwt>0</asrwt>
<pdfrwt beam="1">  1       21 0.16434611E-01 0.45085542E+03</pdfrwt>
<pdfrwt beam="2">  1       21 0.66870926E-01 0.45085542E+03</pdfrwt>
<totfact> 0.62824647E+04</totfact>
</mgrwt>
</event>
<event>
 7    0  0.4712189E-002  0.4508230E+03  0.7546771E-02  0.1027477E+00
         21   -1    0    0  502  501  0.00000000000E+00  0.00000000000E+00  0.10673787867E+03  0.10673787867E+03  0.00000000000E+00 0. -1.
         21   -1    0    0  501  502 -0.00000000000E+00 -0.00000000000E+00 -0.47602924911E+03  0.47602924911E+03  0.00000000000E+00 0. -1.
      99926    2    1    2    0    0 -0.35527136788E-14  0.00000000000E+00 -0.36929137044E+03  0.58276712779E+03  0.45082303507E+03 0.  0.
      99925    2    3    3    0    0  0.16946059696E+02 -0.91448337265E+02 -0.30738571967E+03  0.41504776389E+03  0.26292336969E+03 0.  0.
         25    1    4    4    0    0  0.38299095083E+02 -0.72799256029E+02 -0.14875074778E+03  0.21104702184E+03  0.12509000000E+03 0.  0.
         25    1    3    3    0    0 -0.16946059696E+02  0.91448337265E+02 -0.61905650766E+02  0.16771936389E+03  0.12509000000E+03 0.  0.
         25    1    4    4    0    0 -0.21353035387E+02 -0.18649081236E+02 -0.15863497189E+03  0.20400074205E+03  0.12509000000E+03 0.  0.
<mgrwt>
<rscale>  2 0.45082304E+03</rscale>
<asrwt>0</asrwt>
<pdfrwt beam="1">  1       21 0.15696747E-01 0.45082304E+03</pdfrwt>
<pdfrwt beam="2">  1       21 0.70004302E-01 0.45082304E+03</pdfrwt>
<totfact> 0.61766054E+04</totfact>
</mgrwt>
</event>
<event>
 7    0  0.4712189E-002  0.4526790E+03  0.7546771E-02  0.1026926E+00
         21   -1    0    0  502  501  0.00000000000E+00  0.00000000000E+00  0.31448365035E+03  0.31448365035E+03  0.00000000000E+00 0.  1.
         21   -1    0    0  501  502 -0.00000000000E+00 -0.00000000000E+00 -0.16290057845E+03  0.16290057845E+03  0.00000000000E+00 0.  1.
      99926    2    1    2    0    0  0.00000000000E+00  0.14210854715E-13  0.15158307191E+03  0.47738422880E+03  0.45267899688E+03 0.  0.
      99925    2    3    3    0    0  0.66737787199E+02  0.80010910920E+02  0.13627789043E+03  0.31386837395E+03  0.26284218581E+03 0.  0.
         25    1    4    4    0    0  0.30129413291E+01  0.90989507476E+01  0.59710250544E+02  0.13894132157E+03  0.12509000000E+03 0.  0.
         25    1    4    4    0    0  0.63724845870E+02  0.70911960173E+02  0.76567639884E+02  0.17492705238E+03  0.12509000000E+03 0.  0.
         25    1    3    3    0    0 -0.66737787199E+02 -0.80010910920E+02  0.15305181479E+02  0.16351585485E+03  0.12509000000E+03 0.  0.
<mgrwt>
<rscale>  2 0.45267900E+03</rscale>
<asrwt>0</asrwt>
<pdfrwt beam="1">  1       21 0.46247596E-01 0.45267900E+03</pdfrwt>
<pdfrwt beam="2">  1       21 0.23955967E-01 0.45267900E+03</pdfrwt>
<totfact> 0.68137610E+04</totfact>
</mgrwt>
</event>
<event>
 7    0  0.4712189E-002  0.4295780E+03  0.7546771E-02  0.1033993E+00
         21   -1    0    0  502  501  0.00000000000E+00  0.00000000000E+00  0.53182490814E+02  0.53182490814E+02  0.00000000000E+00 0.  1.
         21   -1    0    0  501  502 -0.00000000000E+00 -0.00000000000E+00 -0.86747169024E+03  0.86747169024E+03  0.00000000000E+00 0.  1.
      99926    2    1    2    0    0  0.00000000000E+00  0.00000000000E+00 -0.81428919943E+03  0.92065418105E+03  0.42957795659E+03 0.  0.
      99925    2    3    3    0    0  0.22072327087E+02  0.65655465280E+02 -0.40907257173E+03  0.49094980452E+03  0.26247573960E+03 0.  0.
         25    1    4    4    0    0  0.15403000366E+02  0.12004133781E+02 -0.25868159402E+03  0.28800178269E+03  0.12509000000E+03 0.  0.
         25    1    4    4    0    0  0.66693267207E+01  0.53651331498E+02 -0.15039097770E+03  0.20294802183E+03  0.12509000000E+03 0.  0.
         25    1    3    3    0    0 -0.22072327087E+02 -0.65655465280E+02 -0.40521662770E+03  0.42970437653E+03  0.12509000000E+03 0.  0.
<mgrwt>
<rscale>  2 0.42957796E+03</rscale>
<asrwt>0</asrwt>
<pdfrwt beam="1">  1       21 0.78209544E-02 0.42957796E+03</pdfrwt>
<pdfrwt beam="2">  1       21 0.12756937E+00 0.42957796E+03</pdfrwt>
<totfact> 0.51936652E+04</totfact>
</mgrwt>
</event>
<event>
 7    0  0.4712189E-002  0.4524023E+03  0.7546771E-02  0.1027008E+00
         21   -1    0    0  502  501  0.00000000000E+00  0.00000000000E+00  0.52213358949E+03  0.52213358949E+03  0.00000000000E+00 0. -1.
         21   -1    0    0  501  502 -0.00000000000E+00 -0.00000000000E+00 -0.97995908282E+02  0.97995908282E+02  0.00000000000E+00 0. -1.
      99926    2    1    2    0    0  0.00000000000E+00  0.00000000000E+00  0.42413768121E+03  0.62012949777E+03  0.45240227827E+03 0.  0.
      99925    2    3    3    0    0  0.77174322338E+02  0.43103384042E+02  0.17620835542E+03  0.32870157112E+03  0.26302387838E+03 0.  0.
         25    1    3    3    0    0 -0.77174322338E+02 -0.43103384042E+02  0.24792932579E+03  0.29142792665E+03  0.12509000000E+03 0.  0.
         25    1    4    4    0    0  0.68002539207E+02  0.51574522199E+02  0.88206004330E+02  0.17524863474E+03  0.12509000000E+03 0.  0.
         25    1    4    4    0    0  0.91717831310E+01 -0.84711381569E+01  0.88002351091E+02  0.15345293638E+03  0.12509000000E+03 0.  0.
<mgrwt>
<rscale>  2 0.45240228E+03</rscale>
<asrwt>0</asrwt>
<pdfrwt beam="1">  1       21 0.76784350E-01 0.45240228E+03</pdfrwt>
<pdfrwt beam="2">  1       21 0.14411163E-01 0.45240228E+03</pdfrwt>
<totfact> 0.58649875E+04</totfact>
</mgrwt>
</event>
<event>
 7    0  0.4712189E-002  0.4521352E+03  0.7546771E-02  0.1027087E+00
         21   -1    0    0  502  501  0.00000000000E+00  0.00000000000E+00  0.83193520179E+03  0.83193520179E+03  0.00000000000E+00 0.  1.
         21   -1    0    0  501  502 -0.00000000000E+00 -0.00000000000E+00 -0.61430946530E+02  0.61430946530E+02  0.00000000000E+00 0.  1.
      99926    2    1    2    0    0  0.88817841970E-15  0.00000000000E+00  0.77050425526E+03  0.89336614832E+03  0.45213523153E+03 0.  0.
      99925    2    3    3    0    0 -0.40350554274E+01  0.37163604813E+02  0.28076531126E+03  0.38652380936E+03  0.26300965762E+03 0.  0.
         25    1    4    4    0    0 -0.23658104582E+02  0.12097889227E+02  0.18881122059E+03  0.22804221091E+03  0.12509000000E+03 0.  0.
         25    1    3    3    0    0  0.40350554274E+01 -0.37163604813E+02  0.48973894399E+03  0.50684233896E+03  0.12509000000E+03 0.  0.
         25    1    4    4    0    0  0.19623049155E+02  0.25065715586E+02  0.91954090675E+02  0.15848159845E+03  0.12509000000E+03 0.  0.
<mgrwt>
<rscale>  2 0.45213523E+03</rscale>
<asrwt>0</asrwt>
<pdfrwt beam="1">  1       21 0.12234341E+00 0.45213523E+03</pdfrwt>
<pdfrwt beam="2">  1       21 0.90339632E-02 0.45213523E+03</pdfrwt>
<totfact> 0.44511863E+04</totfact>
</mgrwt>
</event>
<event>
 7    0  0.4712189E-002  0.4519350E+03  0.7546771E-02  0.1027147E+00
         21   -1    0    0  502  501  0.00000000000E+00  0.00000000000E+00  0.73160417520E+03  0.73160417520E+03  0.00000000000E+00 0.  1.
         21   -1    0    0  501  502 -0.00000000000E+00 -0.00000000000E+00 -0.69793619476E+02  0.69793619476E+02  0.00000000000E+00 0.  1.
      99926    2    1    2    0    0  0.00000000000E+00  0.00000000000E+00  0.66181055572E+03  0.80139779467E+03  0.45193496616E+03 0.  0.
      99925    2    3    3    0    0  0.78303881260E+02 -0.71348410500E+02  0.35913726779E+03  0.45718750891E+03  0.26233327597E+03 0.  0.
         25    1    3    3    0    0 -0.78303881260E+02  0.71348410500E+02  0.30267328793E+03  0.34421028577E+03  0.12509000000E+03 0.  0.
         25    1    4    4    0    0  0.64136919966E+02 -0.45978737115E+02  0.14270341523E+03  0.20552216812E+03  0.12509000000E+03 0.  0.
         25    1    4    4    0    0  0.14166961294E+02 -0.25369673386E+02  0.21643385256E+03  0.25166534079E+03  0.12509000000E+03 0.  0.
<mgrwt>
<rscale>  2 0.45193497E+03</rscale>
<asrwt>0</asrwt>
<pdfrwt beam="1">  1       21 0.10758884E+00 0.45193497E+03</pdfrwt>
<pdfrwt beam="2">  1       21 0.10263768E-01 0.45193497E+03</pdfrwt>
<totfact> 0.48862020E+04</totfact>
</mgrwt>
</event>
<event>
 7    0  0.4712189E-002  0.4416504E+03  0.7546771E-02  0.1030242E+00
         21   -1    0    0  502  501  0.00000000000E+00  0.00000000000E+00  0.18637246580E+04  0.18637246580E+04  0.00000000000E+00 0.  1.
         21   -1    0    0  501  502 -0.00000000000E+00 -0.00000000000E+00 -0.26164689776E+02  0.26164689776E+02  0.00000000000E+00 0.  1.
      99926    2    1    2    0    0  0.14210854715E-13  0.00000000000E+00  0.18375599682E+04  0.18898893477E+04  0.44165043871E+03 0.  0.
      99925    2    3    3    0    0 -0.64676766054E+02 -0.72570385968E+02  0.12743553557E+04  0.13048282496E+04  0.26295559176E+03 0.  0.
         25    1    4    4    0    0 -0.71814520696E+02 -0.40176558004E+02  0.74342684871E+03  0.75835510724E+03  0.12509000000E+03 0.  0.
         25    1    3    3    0    0  0.64676766054E+02  0.72570385968E+02  0.56320461246E+03  0.58506109817E+03  0.12509000000E+03 0.  0.
         25    1    4    4    0    0  0.71377546422E+01 -0.32393827964E+02  0.53092850702E+03  0.54647314234E+03  0.12509000000E+03 0.  0.
<mgrwt>
<rscale>  2 0.44165044E+03</rscale>
<asrwt>0</asrwt>
<pdfrwt beam="1">  1       21 0.27407707E+00 0.44165044E+03</pdfrwt>
<pdfrwt beam="2">  1       21 0.38477498E-02 0.44165044E+03</pdfrwt>
<totfact> 0.17317861E+04</totfact>
</mgrwt>
</event>
<event>
 7    0  0.4712189E-002  0.4537210E+03  0.7546771E-02  0.1026618E+00
         21   -1    0    0  502  501  0.00000000000E+00  0.00000000000E+00  0.83554676253E+03  0.83554676253E+03  0.00000000000E+00 0. -1.
         21   -1    0    0  501  502 -0.00000000000E+00 -0.00000000000E+00 -0.61595223220E+02  0.61595223220E+02  0.00000000000E+00 0. -1.
      99926    2    1    2    0    0  0.00000000000E+00 -0.71054273576E-14  0.77395153931E+03  0.89714198575E+03  0.45372101273E+03 0.  0.
      99925    2    3    3    0    0 -0.93908918732E+02  0.37913532253E+02  0.39349936571E+03  0.48404673591E+03  0.26306495545E+03 0.  0.
         25    1    4    4    0    0 -0.40721636119E+02  0.34835120678E+02  0.26021252314E+03  0.29364911473E+03  0.12509000000E+03 0.  0.
         25    1    3    3    0    0  0.93908918732E+02 -0.37913532253E+02  0.38045217360E+03  0.41309524984E+03  0.12509000000E+03 0.  0.
         25    1    4    4    0    0 -0.53187282613E+02  0.30784115751E+01  0.13328684257E+03  0.19039762118E+03  0.12509000000E+03 0.  0.
<mgrwt>
<rscale>  2 0.45372101E+03</rscale>
<asrwt>0</asrwt>
<pdfrwt beam="1">  1       21 0.12287452E+00 0.45372101E+03</pdfrwt>
<pdfrwt beam="2">  1       21 0.90581216E-02 0.45372101E+03</pdfrwt>
<totfact> 0.43794407E+04</totfact>
</mgrwt>
</event>
<event>
 7    0  0.4712189E-002  0.4533379E+03  0.7546771E-02  0.1026731E+00
         21   -1    0    0  502  501  0.00000000000E+00  0.00000000000E+00  0.19120997886E+03  0.19120997886E+03  0.00000000000E+00 0.  1.
         21   -1    0    0  501  502 -0.00000000000E+00 -0.00000000000E+00 -0.26870361183E+03  0.26870361183E+03  0.00000000000E+00 0.  1.
      99926    2    1    2    0    0  0.00000000000E+00  0.35527136788E-14 -0.77493632969E+02  0.45991359069E+03  0.45333789578E+03 0.  0.
      99925    2    3    3    0    0 -0.92173900870E+02 -0.28941664825E+02  0.78583365866E+01  0.28028587910E+03  0.26299196301E+03 0.  0.
         25    1    3    3    0    0  0.92173900870E+02  0.28941664825E+02 -0.85351969555E+02  0.17962771159E+03  0.12509000000E+03 0.  0.
         25    1    4    4    0    0 -0.61016946716E+02 -0.35247819601E+01  0.40316002951E+02  0.14494267856E+03  0.12509000000E+03 0.  0.
         25    1    4    4    0    0 -0.31156954154E+02 -0.25416882865E+02 -0.32457666365E+02  0.13534320054E+03  0.12509000000E+03 0.  0.
<mgrwt>
<rscale>  2 0.45333790E+03</rscale>
<asrwt>0</asrwt>
<pdfrwt beam="1">  1       21 0.28119115E-01 0.45333790E+03</pdfrwt>
<pdfrwt beam="2">  1       21 0.39515237E-01 0.45333790E+03</pdfrwt>
<totfact> 0.69097796E+04</totfact>
</mgrwt>
</event>
<event>
 7    0  0.4712189E-002  0.4546299E+03  0.7546771E-02  0.1026350E+00
         21   -1    0    0  502  501  0.00000000000E+00  0.00000000000E+00  0.48586804612E+03  0.48586804612E+03  0.00000000000E+00 0.  1.
         21   -1    0    0  501  502 -0.00000000000E+00 -0.00000000000E+00 -0.10635003905E+03  0.10635003905E+03  0.00000000000E+00 0.  1.
      99926    2    1    2    0    0 -0.14210854715E-13  0.00000000000E+00  0.37951800707E+03  0.59221808517E+03  0.45462989640E+03 0.  0.
      99925    2    3    3    0    0  0.79319559941E+02  0.79130627835E+02  0.25611495870E+03  0.38382166173E+03  0.26300370168E+03 0.  0.
         25    1    4    4    0    0  0.52739923758E+02  0.69925022015E+02  0.17428952804E+03  0.23172258402E+03  0.12509000000E+03 0.  0.
         25    1    4    4    0    0  0.26579636183E+02  0.92056058198E+01  0.81825430660E+02  0.15209907771E+03  0.12509000000E+03 0.  0.
         25    1    3    3    0    0 -0.79319559941E+02 -0.79130627835E+02  0.12340304838E+03  0.20839642343E+03  0.12509000000E+03 0.  0.
<mgrwt>
<rscale>  2 0.45462990E+03</rscale>
<asrwt>0</asrwt>
<pdfrwt beam="1">  1       21 0.71451182E-01 0.45462990E+03</pdfrwt>
<pdfrwt beam="2">  1       21 0.15639712E-01 0.45462990E+03</pdfrwt>
<totfact> 0.59333193E+04</totfact>
</mgrwt>
</event>
<event>
 7    0  0.4712189E-002  0.4396267E+03  0.7546771E-02  0.1030861E+00
         21   -1    0    0  502  501  0.00000000000E+00  0.00000000000E+00  0.15384670014E+03  0.15384670014E+03  0.00000000000E+00 0. -1.
         21   -1    0    0  501  502 -0.00000000000E+00 -0.00000000000E+00 -0.31406535379E+03  0.31406535379E+03  0.00000000000E+00 0. -1.
      99926    2    1    2    0    0 -0.14210854715E-13  0.35527136788E-14 -0.16021865365E+03  0.46791205393E+03  0.43962674308E+03 0.  0.
      99925    2    3    3    0    0 -0.87560400243E+02  0.27536624904E+02 -0.13909541619E+03  0.31132728882E+03  0.26296778616E+03 0.  0.
         25    1    4    4    0    0 -0.17785464509E+02  0.38814183739E+02 -0.45204763593E+02  0.13969195524E+03  0.12509000000E+03 0.  0.
         25    1    4    4    0    0 -0.69774935734E+02 -0.11277558836E+02 -0.93890652592E+02  0.17163533358E+03  0.12509000000E+03 0.  0.
         25    1    3    3    0    0  0.87560400243E+02 -0.27536624904E+02 -0.21123237467E+02  0.15658476510E+03  0.12509000000E+03 0.  0.
<mgrwt>
<rscale>  2 0.43962674E+03</rscale>
<asrwt>0</asrwt>
<pdfrwt beam="1">  1       21 0.22624515E-01 0.43962674E+03</pdfrwt>
<pdfrwt beam="2">  1       21 0.46186081E-01 0.43962674E+03</pdfrwt>
<totfact> 0.76508171E+04</totfact>
</mgrwt>
</event>
<event>
 7    0  0.4712189E-002  0.4531969E+03  0.7546771E-02  0.1026773E+00
         21   -1    0    0  502  501  0.00000000000E+00  0.00000000000E+00  0.30600531664E+03  0.30600531664E+03  0.00000000000E+00 0. -1.
         21   -1    0    0  501  502 -0.00000000000E+00 -0.00000000000E+00 -0.16779725824E+03  0.16779725824E+03  0.00000000000E+00 0. -1.
      99926    2    1    2    0    0  0.00000000000E+00  0.00000000000E+00  0.13820805839E+03  0.47380257488E+03  0.45319688057E+03 0.  0.
      99925    2    3    3    0    0 -0.57066035813E+02 -0.92026969750E+02  0.11255681707E+03  0.30637799519E+03  0.26357720550E+03 0.  0.
         25    1    4    4    0    0 -0.15362058301E+01 -0.11867463721E+02  0.39250692887E+02  0.13164847745E+03  0.12509000000E+03 0.  0.
         25    1    4    4    0    0 -0.55529829983E+02 -0.80159506029E+02  0.73306124183E+02  0.17472951773E+03  0.12509000000E+03 0.  0.
         25    1    3    3    0    0  0.57066035813E+02  0.92026969750E+02  0.25651241322E+02  0.16742457970E+03  0.12509000000E+03 0.  0.
<mgrwt>
<rscale>  2 0.45319688E+03</rscale>
<asrwt>0</asrwt>
<pdfrwt beam="1">  1       21 0.45000782E-01 0.45319688E+03</pdfrwt>
<pdfrwt beam="2">  1       21 0.24676067E-01 0.45319688E+03</pdfrwt>
<totfact> 0.68123661E+04</totfact>
</mgrwt>
</event>
<event>
 7    0  0.4712189E-002  0.4518390E+03  0.7546771E-02  0.1027175E+00
         21   -1    0    0  502  501  0.00000000000E+00  0.00000000000E+00  0.44286666112E+03  0.44286666112E+03  0.00000000000E+00 0. -1.
         21   -1    0    0  501  502 -0.00000000000E+00 -0.00000000000E+00 -0.11524830397E+03  0.11524830397E+03  0.00000000000E+00 0. -1.
      99926    2    1    2    0    0  0.35527136788E-14  0.71054273576E-14  0.32761835714E+03  0.55811496509E+03  0.45183904913E+03 0.  0.
      99925    2    3    3    0    0  0.30161258010E+02  0.46202848884E+02  0.88761366016E+02  0.28289764180E+03  0.26288417774E+03 0.  0.
         25    1    3    3    0    0 -0.30161258010E+02 -0.46202848884E+02  0.23885699113E+03  0.27521732329E+03  0.12509000000E+03 0.  0.
         25    1    4    4    0    0 -0.17572699245E+02  0.22922157290E+02  0.17862517766E+02  0.12961791039E+03  0.12509000000E+03 0.  0.
         25    1    4    4    0    0  0.47733957256E+02  0.23280691594E+02  0.70898848251E+02  0.15327973141E+03  0.12509000000E+03 0.  0.
<mgrwt>
<rscale>  2 0.45183905E+03</rscale>
<asrwt>0</asrwt>
<pdfrwt beam="1">  1       21 0.65127450E-01 0.45183905E+03</pdfrwt>
<pdfrwt beam="2">  1       21 0.16948280E-01 0.45183905E+03</pdfrwt>
<totfact> 0.62891264E+04</totfact>
</mgrwt>
</event>
<event>
 7    0  0.4712189E-002  0.4573464E+03  0.7546771E-02  0.1025554E+00
         21   -1    0    0  502  501  0.00000000000E+00  0.00000000000E+00  0.26089580336E+03  0.26089580336E+03  0.00000000000E+00 0.  1.
         21   -1    0    0  501  502 -0.00000000000E+00 -0.00000000000E+00 -0.20043036906E+03  0.20043036906E+03  0.00000000000E+00 0.  1.
      99926    2    1    2    0    0  0.35527136788E-14  0.00000000000E+00  0.60465434294E+02  0.46132617242E+03  0.45734644266E+03 0.  0.
      99925    2    3    3    0    0 -0.28021385026E+02  0.10271221552E+03 -0.68666856189E+01  0.28379837260E+03  0.26298168697E+03 0.  0.
         25    1    3    3    0    0  0.28021385026E+02 -0.10271221552E+03  0.67332119913E+02  0.17752779982E+03  0.12509000000E+03 0.  0.
         25    1    4    4    0    0  0.67467228723E+01  0.47997706134E+02 -0.38161773888E+02  0.13947446774E+03  0.12509000000E+03 0.  0.
         25    1    4    4    0    0 -0.34768107898E+02  0.54714509391E+02  0.31295088269E+02  0.14432390486E+03  0.12509000000E+03 0.  0.
<mgrwt>
<rscale>  2 0.45734644E+03</rscale>
<asrwt>0</asrwt>
<pdfrwt beam="1">  1       21 0.38367030E-01 0.45734644E+03</pdfrwt>
<pdfrwt beam="2">  1       21 0.29475054E-01 0.45734644E+03</pdfrwt>
<totfact> 0.66824781E+04</totfact>
</mgrwt>
</event>
<event>
 7    0  0.4712189E-002  0.4353853E+03  0.7546771E-02  0.1032172E+00
         21   -1    0    0  502  501  0.00000000000E+00  0.00000000000E+00  0.28879140031E+03  0.28879140031E+03  0.00000000000E+00 0. -1.
         21   -1    0    0  501  502 -0.00000000000E+00 -0.00000000000E+00 -0.16409800746E+03  0.16409800746E+03  0.00000000000E+00 0. -1.
      99926    2    1    2    0    0 -0.17763568394E-14  0.00000000000E+00  0.12469339285E+03  0.45288940778E+03  0.43538531608E+03 0.  0.
      99925    2    3    3    0    0 -0.19293788835E+01 -0.75846999829E+02  0.22912326899E+02  0.27466656027E+03  0.26298337347E+03 0.  0.
         25    1    3    3    0    0  0.19293788835E+01  0.75846999829E+02  0.10178106595E+03  0.17822284750E+03  0.12509000000E+03 0.  0.
         25    1    4    4    0    0  0.18273503851E+02 -0.43723191322E+02 -0.23771361993E+02  0.13586104723E+03  0.12509000000E+03 0.  0.
         25    1    4    4    0    0 -0.20202882735E+02 -0.32123808506E+02  0.46683688891E+02  0.13880551305E+03  0.12509000000E+03 0.  0.
<mgrwt>
<rscale>  2 0.43538532E+03</rscale>
<asrwt>0</asrwt>
<pdfrwt beam="1">  1       21 0.42469324E-01 0.43538532E+03</pdfrwt>
<pdfrwt beam="2">  1       21 0.24132060E-01 0.43538532E+03</pdfrwt>
<totfact> 0.80552548E+04</totfact>
</mgrwt>
</event>
<event>
 7    0  0.4712189E-002  0.4592381E+03  0.7546771E-02  0.1025002E+00
         21   -1    0    0  502  501  0.00000000000E+00  0.00000000000E+00  0.15767250754E+03  0.15767250754E+03  0.00000000000E+00 0. -1.
         21   -1    0    0  501  502 -0.00000000000E+00 -0.00000000000E+00 -0.33439508438E+03  0.33439508438E+03  0.00000000000E+00 0. -1.
      99926    2    1    2    0    0  0.00000000000E+00  0.00000000000E+00 -0.17672257684E+03  0.49206759193E+03  0.45923811456E+03 0.  0.
      99925    2    3    3    0    0 -0.59571640139E+02 -0.18865969906E+02 -0.21690368585E+03  0.34657967233E+03  0.26299345088E+03 0.  0.
         25    1    3    3    0    0  0.59571640139E+02  0.18865969906E+02  0.40181109007E+02  0.14548791960E+03  0.12509000000E+03 0.  0.
         25    1    4    4    0    0 -0.63834439145E+02  0.12200356727E+02 -0.12255082792E+03  0.18678837718E+03  0.12509000000E+03 0.  0.
         25    1    4    4    0    0  0.42627990059E+01 -0.31066326633E+02 -0.94352857925E+02  0.15979129515E+03  0.12509000000E+03 0.  0.
<mgrwt>
<rscale>  2 0.45923811E+03</rscale>
<asrwt>0</asrwt>
<pdfrwt beam="1">  1       21 0.23187134E-01 0.45923811E+03</pdfrwt>
<pdfrwt beam="2">  1       21 0.49175748E-01 0.45923811E+03</pdfrwt>
<totfact> 0.63662571E+04</totfact>
</mgrwt>
</event>
<event>
 7    0  0.4712189E-002  0.4544235E+03  0.7546771E-02  0.1026411E+00
         21   -1    0    0  502  501  0.00000000000E+00  0.00000000000E+00  0.31276477685E+02  0.31276477685E+02  0.00000000000E+00 0. -1.
         21   -1    0    0  501  502 -0.00000000000E+00 -0.00000000000E+00 -0.16506070980E+04  0.16506070980E+04  0.00000000000E+00 0. -1.
      99926    2    1    2    0    0  0.00000000000E+00 -0.14210854715E-13 -0.16193306203E+04  0.16818835757E+04  0.45442348560E+03 0.  0.
      99925    2    3    3    0    0  0.11994855876E+02 -0.67924412331E+02 -0.68999207974E+03  0.74163082591E+03  0.26300115870E+03 0.  0.
         25    1    4    4    0    0 -0.27863677851E+02 -0.19452275148E+02 -0.28367402260E+03  0.31188657354E+03  0.12509000000E+03 0.  0.
         25    1    3    3    0    0 -0.11994855876E+02  0.67924412331E+02 -0.92933854055E+03  0.94025274975E+03  0.12509000000E+03 0.  0.
         25    1    4    4    0    0  0.39858533727E+02 -0.48472137183E+02 -0.40631805713E+03  0.42974425237E+03  0.12509000000E+03 0.  0.
<mgrwt>
<rscale>  2 0.45442349E+03</rscale>
<asrwt>0</asrwt>
<pdfrwt beam="1">  1       21 0.45994804E-02 0.45442349E+03</pdfrwt>
<pdfrwt beam="2">  1       21 0.24273643E+00 0.45442349E+03</pdfrwt>
<totfact> 0.19729324E+04</totfact>
</mgrwt>
</event>
<event>
 7    0  0.4712189E-002  0.4592548E+03  0.7546771E-02  0.1024998E+00
         21   -1    0    0  502  501  0.00000000000E+00  0.00000000000E+00  0.86875542655E+03  0.86875542655E+03  0.00000000000E+00 0.  1.
         21   -1    0    0  501  502 -0.00000000000E+00 -0.00000000000E+00 -0.60694576182E+02  0.60694576182E+02  0.00000000000E+00 0.  1.
      99926    2    1    2    0    0  0.71054273576E-14  0.00000000000E+00  0.80806085037E+03  0.92945000273E+03  0.45925479821E+03 0.  0.
      99925    2    3    3    0    0 -0.46431492375E+02 -0.32029424463E+02  0.71429307196E+03  0.76325231357E+03  0.26297858088E+03 0.  0.
         25    1    4    4    0    0 -0.55268369635E+02 -0.35871626057E+02  0.42583020201E+03  0.44868723547E+03  0.12509000000E+03 0.  0.
         25    1    3    3    0    0  0.46431492375E+02  0.32029424463E+02  0.93767778404E+02  0.16619768916E+03  0.12509000000E+03 0.  0.
         25    1    4    4    0    0  0.88368772605E+01  0.38422015943E+01  0.28846286996E+03  0.31456507810E+03  0.12509000000E+03 0.  0.
<mgrwt>
<rscale>  2 0.45925480E+03</rscale>
<asrwt>0</asrwt>
<pdfrwt beam="1">  1       21 0.12775814E+00 0.45925480E+03</pdfrwt>
<pdfrwt beam="2">  1       21 0.89256735E-02 0.45925480E+03</pdfrwt>
<totfact> 0.40615636E+04</totfact>
</mgrwt>
</event>
<event>
 7    0  0.4712189E-002  0.4543809E+03  0.7546771E-02  0.1026424E+00
         21   -1    0    0  502  501  0.00000000000E+00  0.00000000000E+00  0.10944771629E+04  0.10944771629E+04  0.00000000000E+00 0.  1.
         21   -1    0    0  501  502 -0.00000000000E+00 -0.00000000000E+00 -0.47159955928E+02  0.47159955928E+02  0.00000000000E+00 0.  1.
      99926    2    1    2    0    0  0.00000000000E+00  0.00000000000E+00  0.10473172070E+04  0.11416371188E+04  0.45438087445E+03 0.  0.
      99925    2    3    3    0    0  0.80296771763E+02 -0.37270120648E+02  0.83368893144E+03  0.87872804395E+03  0.26322824197E+03 0.  0.
         25    1    4    4    0    0  0.36456531521E+02  0.20625145014E+02  0.43783718327E+03  0.45727823308E+03  0.12509000000E+03 0.  0.
         25    1    4    4    0    0  0.43840240243E+02 -0.57895265662E+02  0.39585174817E+03  0.42144981087E+03  0.12509000000E+03 0.  0.
         25    1    3    3    0    0 -0.80296771763E+02  0.37270120648E+02  0.21362827555E+03  0.26290907490E+03  0.12509000000E+03 0.  0.
<mgrwt>
<rscale>  2 0.45438087E+03</rscale>
<asrwt>0</asrwt>
<pdfrwt beam="1">  1       21 0.16095251E+00 0.45438087E+03</pdfrwt>
<pdfrwt beam="2">  1       21 0.69352883E-02 0.45438087E+03</pdfrwt>
<totfact> 0.34227693E+04</totfact>
</mgrwt>
</event>
<event>
 7    0  0.4712189E-002  0.4625700E+03  0.7546771E-02  0.1024038E+00
         21   -1    0    0  502  501  0.00000000000E+00  0.00000000000E+00  0.58405746996E+02  0.58405746996E+02  0.00000000000E+00 0.  1.
         21   -1    0    0  501  502 -0.00000000000E+00 -0.00000000000E+00 -0.91588154335E+03  0.91588154335E+03  0.00000000000E+00 0.  1.
      99926    2    1    2    0    0  0.00000000000E+00  0.14210854715E-13 -0.85747579635E+03  0.97428729034E+03  0.46256997611E+03 0.  0.
      99925    2    3    3    0    0  0.71649243081E+02  0.95331781200E+02 -0.50492070203E+03  0.58164958816E+03  0.26296304974E+03 0.  0.
         25    1    4    4    0    0  0.37938611604E+01  0.71787459684E+02 -0.24108132365E+03  0.28095470358E+03  0.12509000000E+03 0.  0.
         25    1    4    4    0    0  0.67855381920E+02  0.23544321516E+02 -0.26383937837E+03  0.30069488458E+03  0.12509000000E+03 0.  0.
         25    1    3    3    0    0 -0.71649243081E+02 -0.95331781200E+02 -0.35255509433E+03  0.39263770218E+03  0.12509000000E+03 0.  0.
<mgrwt>
<rscale>  2 0.46256998E+03</rscale>
<asrwt>0</asrwt>
<pdfrwt beam="1">  1       21 0.85890813E-02 0.46256998E+03</pdfrwt>
<pdfrwt beam="2">  1       21 0.13468845E+00 0.46256998E+03</pdfrwt>
<totfact> 0.37880710E+04</totfact>
</mgrwt>
</event>
<event>
 7    0  0.4712189E-002  0.4460931E+03  0.7546771E-02  0.1028894E+00
         21   -1    0    0  502  501  0.00000000000E+00  0.00000000000E+00  0.26329582867E+03  0.26329582867E+03  0.00000000000E+00 0.  1.
         21   -1    0    0  501  502 -0.00000000000E+00 -0.00000000000E+00 -0.18895003037E+03  0.18895003037E+03  0.00000000000E+00 0.  1.
      99926    2    1    2    0    0  0.17763568394E-14  0.00000000000E+00  0.74345798303E+02  0.45224585904E+03  0.44609306125E+03 0.  0.
      99925    2    3    3    0    0 -0.10939795310E+02  0.63319698842E+02  0.13076783772E+03  0.30072022419E+03  0.26306531979E+03 0.  0.
         25    1    4    4    0    0  0.21958419641E+02  0.10234802857E+01  0.67557789213E+02  0.14385681315E+03  0.12509000000E+03 0.  0.
         25    1    3    3    0    0  0.10939795310E+02 -0.63319698842E+02 -0.56422039419E+02  0.15152563484E+03  0.12509000000E+03 0.  0.
         25    1    4    4    0    0 -0.32898214951E+02  0.62296218557E+02  0.63210048509E+02  0.15686341105E+03  0.12509000000E+03 0.  0.
<mgrwt>
<rscale>  2 0.44609306E+03</rscale>
<asrwt>0</asrwt>
<pdfrwt beam="1">  1       21 0.38719975E-01 0.44609306E+03</pdfrwt>
<pdfrwt beam="2">  1       21 0.27786769E-01 0.44609306E+03</pdfrwt>
<totfact> 0.73857495E+04</totfact>
</mgrwt>
</event>
<event>
 7    0  0.4712189E-002  0.4537281E+03  0.7546771E-02  0.1026616E+00
         21   -1    0    0  502  501  0.00000000000E+00  0.00000000000E+00  0.11149118743E+03  0.11149118743E+03  0.00000000000E+00 0. -1.
         21   -1    0    0  501  502 -0.00000000000E+00 -0.00000000000E+00 -0.46162665059E+03  0.46162665059E+03  0.00000000000E+00 0. -1.
      99926    2    1    2    0    0  0.00000000000E+00  0.00000000000E+00 -0.35013546317E+03  0.57311783802E+03  0.45372812750E+03 0.  0.
      99925    2    3    3    0    0  0.33512620980E+02 -0.99224052419E+02 -0.27076738307E+03  0.39169207198E+03  0.26294333073E+03 0.  0.
         25    1    4    4    0    0 -0.60755179321E-01 -0.13019792202E+02 -0.14242600071E+03  0.19000576954E+03  0.12509000000E+03 0.  0.
         25    1    3    3    0    0 -0.33512620980E+02  0.99224052419E+02 -0.79368080099E+02  0.18142576604E+03  0.12509000000E+03 0.  0.
         25    1    4    4    0    0  0.33573376159E+02 -0.86204260217E+02 -0.12834138235E+03  0.20168630244E+03  0.12509000000E+03 0.  0.
<mgrwt>
<rscale>  2 0.45372813E+03</rscale>
<asrwt>0</asrwt>
<pdfrwt beam="1">  1       21 0.16395763E-01 0.45372813E+03</pdfrwt>
<pdfrwt beam="2">  1       21 0.67886271E-01 0.45372813E+03</pdfrwt>
<totfact> 0.60975127E+04</totfact>
</mgrwt>
</event>
<event>
 7    0  0.4712189E-002  0.4511373E+03  0.7546771E-02  0.1027383E+00
         21   -1    0    0  502  501  0.00000000000E+00  0.00000000000E+00  0.24509662016E+03  0.24509662016E+03  0.00000000000E+00 0. -1.
         21   -1    0    0  501  502 -0.00000000000E+00 -0.00000000000E+00 -0.20759653541E+03  0.20759653541E+03  0.00000000000E+00 0. -1.
      99926    2    1    2    0    0  0.00000000000E+00  0.00000000000E+00  0.37500084748E+02  0.45269315557E+03  0.45113727040E+03 0.  0.
      99925    2    3    3    0    0  0.98756946367E+01 -0.34379449592E+02 -0.80121655843E+02  0.27730256900E+03  0.26305466949E+03 0.  0.
         25    1    3    3    0    0 -0.98756946367E+01  0.34379449592E+02  0.11762174059E+03  0.17539058657E+03  0.12509000000E+03 0.  0.
         25    1    4    4    0    0 -0.99140148054E+01 -0.16357260077E+02 -0.79376729422E+02  0.14937878337E+03  0.12509000000E+03 0.  0.
         25    1    4    4    0    0  0.19789709442E+02 -0.18022189515E+02 -0.74492642147E+00  0.12792378563E+03  0.12509000000E+03 0.  0.
<mgrwt>
<rscale>  2 0.45113727E+03</rscale>
<asrwt>0</asrwt>
<pdfrwt beam="1">  1       21 0.36043621E-01 0.45113727E+03</pdfrwt>
<pdfrwt beam="2">  1       21 0.30528902E-01 0.45113727E+03</pdfrwt>
<totfact> 0.70874405E+04</totfact>
</mgrwt>
</event>
<event>
 7    0  0.4712189E-002  0.4641957E+03  0.7546771E-02  0.1023571E+00
         21   -1    0    0  502  501  0.00000000000E+00  0.00000000000E+00  0.95657221861E+02  0.95657221861E+02  0.00000000000E+00 0.  1.
         21   -1    0    0  501  502 -0.00000000000E+00 -0.00000000000E+00 -0.56315038939E+03  0.56315038939E+03  0.00000000000E+00 0.  1.
      99926    2    1    2    0    0  0.00000000000E+00  0.00000000000E+00 -0.46749316753E+03  0.65880761125E+03  0.46419565590E+03 0.  0.
      99925    2    3    3    0    0 -0.82193304778E+02  0.87208753411E+02 -0.32093413249E+03  0.43189757429E+03  0.26301272072E+03 0.  0.
         25    1    4    4    0    0 -0.26231965962E+02  0.26182462511E+02 -0.97916030482E+02  0.16312171685E+03  0.12509000000E+03 0.  0.
         25    1    3    3    0    0  0.82193304778E+02 -0.87208753411E+02 -0.14655903504E+03  0.22691003696E+03  0.12509000000E+03 0.  0.
         25    1    4    4    0    0 -0.55961338816E+02  0.61026290900E+02 -0.22301810201E+03  0.26877585745E+03  0.12509000000E+03 0.  0.
<mgrwt>
<rscale>  2 0.46419566E+03</rscale>
<asrwt>0</asrwt>
<pdfrwt beam="1">  1       21 0.14067238E-01 0.46419566E+03</pdfrwt>
<pdfrwt beam="2">  1       21 0.82816237E-01 0.46419566E+03</pdfrwt>
<totfact> 0.51368588E+04</totfact>
</mgrwt>
</event>
<event>
 7    0  0.4712189E-002  0.4635732E+03  0.7546771E-02  0.1023750E+00
         21   -1    0    0  502  501  0.00000000000E+00  0.00000000000E+00  0.96221849079E+02  0.96221849079E+02  0.00000000000E+00 0.  1.
         21   -1    0    0  501  502 -0.00000000000E+00 -0.00000000000E+00 -0.55834546529E+03  0.55834546529E+03  0.00000000000E+00 0.  1.
      99926    2    1    2    0    0  0.00000000000E+00  0.00000000000E+00 -0.46212361621E+03  0.65456731437E+03  0.46357322224E+03 0.  0.
      99925    2    3    3    0    0  0.55046328138E+02 -0.91699946818E+02 -0.20901053277E+03  0.35265222763E+03  0.26313344972E+03 0.  0.
         25    1    4    4    0    0  0.11336616563E+02 -0.72878798133E+02 -0.75746591473E+02  0.16378306479E+03  0.12509000000E+03 0.  0.
         25    1    4    4    0    0  0.43709711575E+02 -0.18821148685E+02 -0.13326394130E+03  0.18886916284E+03  0.12509000000E+03 0.  0.
         25    1    3    3    0    0 -0.55046328138E+02  0.91699946818E+02 -0.25311308344E+03  0.30191508674E+03  0.12509000000E+03 0.  0.
<mgrwt>
<rscale>  2 0.46357322E+03</rscale>
<asrwt>0</asrwt>
<pdfrwt beam="1">  1       21 0.14150272E-01 0.46357322E+03</pdfrwt>
<pdfrwt beam="2">  1       21 0.82109626E-01 0.46357322E+03</pdfrwt>
<totfact> 0.51843082E+04</totfact>
</mgrwt>
</event>
<event>
 7    0  0.4712189E-002  0.4524464E+03  0.7546771E-02  0.1026995E+00
         21   -1    0    0  502  501  0.00000000000E+00  0.00000000000E+00  0.89511086098E+02  0.89511086098E+02  0.00000000000E+00 0.  1.
         21   -1    0    0  501  502 -0.00000000000E+00 -0.00000000000E+00 -0.57173863750E+03  0.57173863750E+03  0.00000000000E+00 0.  1.
      99926    2    1    2    0    0  0.14210854715E-13  0.00000000000E+00 -0.48222755141E+03  0.66124972360E+03  0.45244644504E+03 0.  0.
      99925    2    3    3    0    0  0.72515929378E+02  0.79803901047E+02 -0.26722526994E+03  0.39013957666E+03  0.26300631504E+03 0.  0.
         25    1    4    4    0    0  0.58955439543E+02  0.91461974877E+01 -0.14998501265E+03  0.20421167670E+03  0.12509000000E+03 0.  0.
         25    1    3    3    0    0 -0.72515929378E+02 -0.79803901047E+02 -0.21500228147E+03  0.27111014694E+03  0.12509000000E+03 0.  0.
         25    1    4    4    0    0  0.13560489835E+02  0.70657703560E+02 -0.11724025729E+03  0.18592789997E+03  0.12509000000E+03 0.  0.
<mgrwt>
<rscale>  2 0.45244645E+03</rscale>
<asrwt>0</asrwt>
<pdfrwt beam="1">  1       21 0.13163394E-01 0.45244645E+03</pdfrwt>
<pdfrwt beam="2">  1       21 0.84079215E-01 0.45244645E+03</pdfrwt>
<totfact> 0.56180108E+04</totfact>
</mgrwt>
</event>
<event>
 7    0  0.4712189E-002  0.4506124E+03  0.7546771E-02  0.1027540E+00
         21   -1    0    0  502  501  0.00000000000E+00  0.00000000000E+00  0.24921540172E+03  0.24921540172E+03  0.00000000000E+00 0. -1.
         21   -1    0    0  501  502 -0.00000000000E+00 -0.00000000000E+00 -0.20369082099E+03  0.20369082099E+03  0.00000000000E+00 0. -1.
      99926    2    1    2    0    0  0.00000000000E+00  0.00000000000E+00  0.45524580729E+02  0.45290622271E+03  0.45061242672E+03 0.  0.
      99925    2    3    3    0    0  0.66640923897E+02 -0.30607997387E+02  0.10979047368E+03  0.29430144555E+03  0.26302382116E+03 0.  0.
         25    1    4    4    0    0  0.32225846050E+02 -0.52380391884E+02  0.38195189651E+02  0.14452885947E+03  0.12509000000E+03 0.  0.
         25    1    3    3    0    0 -0.66640923897E+02  0.30607997387E+02 -0.64265892947E+02  0.15860477716E+03  0.12509000000E+03 0.  0.
         25    1    4    4    0    0  0.34415077848E+02  0.21772394497E+02  0.71595284025E+02  0.14977258608E+03  0.12509000000E+03 0.  0.
<mgrwt>
<rscale>  2 0.45061243E+03</rscale>
<asrwt>0</asrwt>
<pdfrwt beam="1">  1       21 0.36649324E-01 0.45061243E+03</pdfrwt>
<pdfrwt beam="2">  1       21 0.29954532E-01 0.45061243E+03</pdfrwt>
<totfact> 0.71157995E+04</totfact>
</mgrwt>
</event>
<event>
 7    0  0.4712189E-002  0.4478114E+03  0.7546771E-02  0.1028377E+00
         21   -1    0    0  502  501  0.00000000000E+00  0.00000000000E+00  0.84676911091E+02  0.84676911091E+02  0.00000000000E+00 0.  1.
         21   -1    0    0  501  502 -0.00000000000E+00 -0.00000000000E+00 -0.59205931148E+03  0.59205931148E+03  0.00000000000E+00 0.  1.
      99926    2    1    2    0    0  0.71054273576E-14  0.14210854715E-13 -0.50738240039E+03  0.67673622258E+03  0.44781136064E+03 0.  0.
      99925    2    3    3    0    0 -0.60792968397E+02 -0.86518649001E+02 -0.33168144187E+03  0.43652881937E+03  0.26336964446E+03 0.  0.
         25    1    4    4    0    0  0.43469499952E+01 -0.17022569810E+02 -0.15706559504E+03  0.20155836153E+03  0.12509000000E+03 0.  0.
         25    1    3    3    0    0  0.60792968397E+02  0.86518649001E+02 -0.17570095852E+03  0.24020740321E+03  0.12509000000E+03 0.  0.
         25    1    4    4    0    0 -0.65139918392E+02 -0.69496079191E+02 -0.17461584683E+03  0.23497045783E+03  0.12509000000E+03 0.  0.
<mgrwt>
<rscale>  2 0.44781136E+03</rscale>
<asrwt>0</asrwt>
<pdfrwt beam="1">  1       21 0.12452487E-01 0.44781136E+03</pdfrwt>
<pdfrwt beam="2">  1       21 0.87067543E-01 0.44781136E+03</pdfrwt>
<totfact> 0.57363878E+04</totfact>
</mgrwt>
</event>
<event>
 7    0  0.4862423E-002  0.4126694E+03  0.7546771E-02  0.1039479E+00
         21   -1    0    0  502  501  0.00000000000E+00  0.00000000000E+00  0.19984896252E+03  0.19984896252E+03  0.00000000000E+00 0. -1.
         21   -1    0    0  501  502 -0.00000000000E+00 -0.00000000000E+00 -0.21303095271E+03  0.21303095271E+03  0.00000000000E+00 0. -1.
      99926    2    1    2    0    0  0.00000000000E+00  0.00000000000E+00 -0.13181990186E+02  0.41287991523E+03  0.41266943131E+03 0.  0.
      99925    2    3    3    0    0 -0.93893526407E+01 -0.54640183404E+02  0.27557950861E+02  0.27011801386E+03  0.26292696927E+03 0.  0.
         25    1    4    4    0    0 -0.27176465486E+02  0.68345381641E+01  0.14206480052E+02  0.12897520445E+03  0.12509000000E+03 0.  0.
         25    1    3    3    0    0  0.93893526407E+01  0.54640183404E+02 -0.40739941047E+02  0.14276190137E+03  0.12509000000E+03 0.  0.
         25    1    4    4    0    0  0.17787112846E+02 -0.61474721568E+02  0.13351470809E+02  0.14114280941E+03  0.12509000000E+03 0.  0.
<mgrwt>
<rscale>  2 0.41266943E+03</rscale>
<asrwt>0</asrwt>
<pdfrwt beam="1">  1       21 0.29389553E-01 0.41266943E+03</pdfrwt>
<pdfrwt beam="2">  1       21 0.31328081E-01 0.41266943E+03</pdfrwt>
<totfact> 0.10212252E+05</totfact>
</mgrwt>
</event>
<event>
 7    0  0.4712189E-002  0.4582539E+03  0.7546771E-02  0.1025289E+00
         21   -1    0    0  502  501  0.00000000000E+00  0.00000000000E+00  0.16063374397E+04  0.16063374397E+04  0.00000000000E+00 0. -1.
         21   -1    0    0  501  502 -0.00000000000E+00 -0.00000000000E+00 -0.32682527817E+02  0.32682527817E+02  0.00000000000E+00 0. -1.
      99926    2    1    2    0    0 -0.14210854715E-13  0.00000000000E+00  0.15736549119E+04  0.16390199675E+04  0.45825393858E+03 0.  0.
      99925    2    3    3    0    0 -0.99542239229E+02 -0.72232950326E+01  0.77033563272E+03  0.81991667382E+03  0.26246053337E+03 0.  0.
         25    1    3    3    0    0  0.99542239229E+02  0.72232950326E+01  0.80331927915E+03  0.81910329369E+03  0.12509000000E+03 0.  0.
         25    1    4    4    0    0 -0.19075832188E+02 -0.50770289843E+01  0.43523174716E+03  0.45328119907E+03  0.12509000000E+03 0.  0.
         25    1    4    4    0    0 -0.80466407041E+02 -0.21462660483E+01  0.33510388556E+03  0.36663547474E+03  0.12509000000E+03 0.  0.
<mgrwt>
<rscale>  2 0.45825394E+03</rscale>
<asrwt>0</asrwt>
<pdfrwt beam="1">  1       21 0.23622604E+00 0.45825394E+03</pdfrwt>
<pdfrwt beam="2">  1       21 0.48062552E-02 0.45825394E+03</pdfrwt>
<totfact> 0.20050826E+04</totfact>
</mgrwt>
</event>
<event>
 7    0  0.4712189E-002  0.4585336E+03  0.7546771E-02  0.1025207E+00
         21   -1    0    0  502  501  0.00000000000E+00  0.00000000000E+00  0.91138285361E+03  0.91138285361E+03  0.00000000000E+00 0. -1.
         21   -1    0    0  501  502 -0.00000000000E+00 -0.00000000000E+00 -0.57674179628E+02  0.57674179628E+02  0.00000000000E+00 0. -1.
      99926    2    1    2    0    0  0.00000000000E+00  0.71054273576E-14  0.85370867398E+03  0.96905703324E+03  0.45853356871E+03 0.  0.
      99925    2    3    3    0    0 -0.77368764582E+02 -0.46011440263E+02  0.69169654474E+03  0.74545377636E+03  0.26297194585E+03 0.  0.
         25    1    4    4    0    0 -0.79854049742E+02 -0.25312838687E+02  0.39945617675E+03  0.42688423994E+03  0.12509000000E+03 0.  0.
         25    1    4    4    0    0  0.24852851597E+01 -0.20698601576E+02  0.29224036799E+03  0.31856953642E+03  0.12509000000E+03 0.  0.
         25    1    3    3    0    0  0.77368764582E+02  0.46011440263E+02  0.16201212924E+03  0.22360325688E+03  0.12509000000E+03 0.  0.
<mgrwt>
<rscale>  2 0.45853357E+03</rscale>
<asrwt>0</asrwt>
<pdfrwt beam="1">  1       21 0.13402688E+00 0.45853357E+03</pdfrwt>
<pdfrwt beam="2">  1       21 0.84814976E-02 0.45853357E+03</pdfrwt>
<totfact> 0.39282155E+04</totfact>
</mgrwt>
</event>
<event>
 7    0  0.4712189E-002  0.4549557E+03  0.7546771E-02  0.1026254E+00
         21   -1    0    0  502  501  0.00000000000E+00  0.00000000000E+00  0.26628259389E+03  0.26628259389E+03  0.00000000000E+00 0. -1.
         21   -1    0    0  501  502 -0.00000000000E+00 -0.00000000000E+00 -0.19432799834E+03  0.19432799834E+03  0.00000000000E+00 0. -1.
      99926    2    1    2    0    0 -0.71054273576E-14  0.00000000000E+00  0.71954595545E+02  0.46061059223E+03  0.45495566141E+03 0.  0.
      99925    2    3    3    0    0 -0.50402288435E+02 -0.64493775825E+02 -0.33808129498E+02  0.27749014032E+03  0.26297899261E+03 0.  0.
         25    1    4    4    0    0 -0.28706207813E+02 -0.27770274770E+02  0.23569573624E+02  0.13341014740E+03  0.12509000000E+03 0.  0.
         25    1    4    4    0    0 -0.21696080622E+02 -0.36723501055E+02 -0.57377703123E+02  0.14407999292E+03  0.12509000000E+03 0.  0.
         25    1    3    3    0    0  0.50402288435E+02  0.64493775825E+02  0.10576272504E+03  0.18312045191E+03  0.12509000000E+03 0.  0.
<mgrwt>
<rscale>  2 0.45495566E+03</rscale>
<asrwt>0</asrwt>
<pdfrwt beam="1">  1       21 0.39159205E-01 0.45495566E+03</pdfrwt>
<pdfrwt beam="2">  1       21 0.28577647E-01 0.45495566E+03</pdfrwt>
<totfact> 0.68160162E+04</totfact>
</mgrwt>
</event>
<event>
 7    0  0.4712189E-002  0.4614509E+03  0.7546771E-02  0.1024361E+00
         21   -1    0    0  502  501  0.00000000000E+00  0.00000000000E+00  0.98894452849E+03  0.98894452849E+03  0.00000000000E+00 0. -1.
         21   -1    0    0  501  502 -0.00000000000E+00 -0.00000000000E+00 -0.53829339713E+02  0.53829339713E+02  0.00000000000E+00 0. -1.
      99926    2    1    2    0    0  0.00000000000E+00  0.00000000000E+00  0.93511518878E+03  0.10427738682E+04  0.46145089005E+03 0.  0.
      99925    2    3    3    0    0 -0.11424606939E+03  0.23009488711E+02  0.64068873423E+03  0.70230941165E+03  0.26301113014E+03 0.  0.
         25    1    4    4    0    0 -0.32083577997E+02 -0.20850130434E+02  0.26465806547E+03  0.29522107587E+03  0.12509000000E+03 0.  0.
         25    1    3    3    0    0  0.11424606939E+03 -0.23009488711E+02  0.29442645455E+03  0.34046445656E+03  0.12509000000E+03 0.  0.
         25    1    4    4    0    0 -0.82162491388E+02  0.43859619145E+02  0.37603066876E+03  0.40708833578E+03  0.12509000000E+03 0.  0.
<mgrwt>
<rscale>  2 0.46145089E+03</rscale>
<asrwt>0</asrwt>
<pdfrwt beam="1">  1       21 0.14543301E+00 0.46145089E+03</pdfrwt>
<pdfrwt beam="2">  1       21 0.79160800E-02 0.46145089E+03</pdfrwt>
<totfact> 0.35711245E+04</totfact>
</mgrwt>
</event>
<event>
 7    0  0.4712189E-002  0.4420304E+03  0.7546771E-02  0.1030126E+00
         21   -1    0    0  502  501  0.00000000000E+00  0.00000000000E+00  0.10412747557E+04  0.10412747557E+04  0.00000000000E+00 0. -1.
         21   -1    0    0  501  502 -0.00000000000E+00 -0.00000000000E+00 -0.46911469597E+02  0.46911469597E+02  0.00000000000E+00 0. -1.
      99926    2    1    2    0    0  0.71054273576E-14 -0.35527136788E-14  0.99436328612E+03  0.10881862253E+04  0.44203044712E+03 0.  0.
      99925    2    3    3    0    0  0.53849615737E+02 -0.21752283076E+02  0.43148883185E+03  0.50866219449E+03  0.26302409235E+03 0.  0.
         25    1    4    4    0    0 -0.95312962881E+01 -0.16142393397E+01  0.23545168988E+03  0.26679291172E+03  0.12509000000E+03 0.  0.
         25    1    4    4    0    0  0.63380912025E+02 -0.20138043736E+02  0.19603714197E+03  0.24186928277E+03  0.12509000000E+03 0.  0.
         25    1    3    3    0    0 -0.53849615737E+02  0.21752283076E+02  0.56287445427E+03  0.57952403083E+03  0.12509000000E+03 0.  0.
<mgrwt>
<rscale>  2 0.44203045E+03</rscale>
<asrwt>0</asrwt>
<pdfrwt beam="1">  1       21 0.15312863E+00 0.44203045E+03</pdfrwt>
<pdfrwt beam="2">  1       21 0.68987462E-02 0.44203045E+03</pdfrwt>
<totfact> 0.39782185E+04</totfact>
</mgrwt>
</event>
<event>
 7    0  0.4712189E-002  0.4540791E+03  0.7546771E-02  0.1026513E+00
         21   -1    0    0  502  501  0.00000000000E+00  0.00000000000E+00  0.52302830828E+03  0.52302830828E+03  0.00000000000E+00 0.  1.
         21   -1    0    0  501  502 -0.00000000000E+00 -0.00000000000E+00 -0.98554800387E+02  0.98554800387E+02  0.00000000000E+00 0.  1.
      99926    2    1    2    0    0  0.14210854715E-13 -0.35527136788E-14  0.42447350789E+03  0.62158310867E+03  0.45407907029E+03 0.  0.
      99925    2    3    3    0    0  0.10617546785E+03  0.19366534308E+02  0.31047154413E+03  0.42085381717E+03  0.26282515687E+03 0.  0.
         25    1    4    4    0    0  0.35391122239E+02 -0.23467873135E+02  0.12038872469E+03  0.17872947640E+03  0.12509000000E+03 0.  0.
         25    1    4    4    0    0  0.70784345611E+02  0.42834407443E+02  0.19008281944E+03  0.24212434077E+03  0.12509000000E+03 0.  0.
         25    1    3    3    0    0 -0.10617546785E+03 -0.19366534308E+02  0.11400196377E+03  0.20072929150E+03  0.12509000000E+03 0.  0.
<mgrwt>
<rscale>  2 0.45407907E+03</rscale>
<asrwt>0</asrwt>
<pdfrwt beam="1">  1       21 0.76915927E-01 0.45407907E+03</pdfrwt>
<pdfrwt beam="2">  1       21 0.14493353E-01 0.45407907E+03</pdfrwt>
<totfact> 0.57788133E+04</totfact>
</mgrwt>
</event>
<event>
 7    0  0.4712189E-002  0.4425600E+03  0.7546771E-02  0.1029964E+00
         21   -1    0    0  502  501  0.00000000000E+00  0.00000000000E+00  0.19503093518E+03  0.19503093518E+03  0.00000000000E+00 0. -1.
         21   -1    0    0  501  502 -0.00000000000E+00 -0.00000000000E+00 -0.25106186351E+03  0.25106186351E+03  0.00000000000E+00 0. -1.
      99926    2    1    2    0    0  0.71054273576E-14  0.00000000000E+00 -0.56030928327E+02  0.44609279868E+03  0.44255996216E+03 0.  0.
      99925    2    3    3    0    0  0.63182066839E+02 -0.42072487300E+02 -0.10303674215E+03  0.29240765825E+03  0.26291367521E+03 0.  0.
         25    1    4    4    0    0  0.33643860105E+02 -0.21929343892E+02 -0.94872341577E+02  0.16205269125E+03  0.12509000000E+03 0.  0.
         25    1    4    4    0    0  0.29538206734E+02 -0.20143143408E+02 -0.81644005722E+01  0.13035496699E+03  0.12509000000E+03 0.  0.
         25    1    3    3    0    0 -0.63182066839E+02  0.42072487300E+02  0.47005813822E+02  0.15368514044E+03  0.12509000000E+03 0.  0.
<mgrwt>
<rscale>  2 0.44255996E+03</rscale>
<asrwt>0</asrwt>
<pdfrwt beam="1">  1       21 0.28681020E-01 0.44255996E+03</pdfrwt>
<pdfrwt beam="2">  1       21 0.36920862E-01 0.44255996E+03</pdfrwt>
<totfact> 0.76520443E+04</totfact>
</mgrwt>
</event>
<event>
 7    0  0.4712189E-002  0.4548393E+03  0.7546771E-02  0.1026289E+00
         21   -1    0    0  502  501  0.00000000000E+00  0.00000000000E+00  0.60625180749E+03  0.60625180749E+03  0.00000000000E+00 0. -1.
         21   -1    0    0  501  502 -0.00000000000E+00 -0.00000000000E+00 -0.85310579381E+02  0.85310579381E+02  0.00000000000E+00 0. -1.
      99926    2    1    2    0    0  0.14210854715E-13  0.00000000000E+00  0.52094122811E+03  0.69156238687E+03  0.45483928127E+03 0.  0.
      99925    2    3    3    0    0 -0.90730912114E+02 -0.32682995330E+02  0.23794016941E+03  0.36746767244E+03  0.26290053152E+03 0.  0.
         25    1    4    4    0    0 -0.37565404418E+02 -0.53610460950E+02  0.10266205785E+03  0.17456301829E+03  0.12509000000E+03 0.  0.
         25    1    4    4    0    0 -0.53165507697E+02  0.20927465620E+02  0.13527811156E+03  0.19290465415E+03  0.12509000000E+03 0.  0.
         25    1    3    3    0    0  0.90730912114E+02  0.32682995330E+02  0.28300105870E+03  0.32409471443E+03  0.12509000000E+03 0.  0.
<mgrwt>
<rscale>  2 0.45483928E+03</rscale>
<asrwt>0</asrwt>
<pdfrwt beam="1">  1       21 0.89154676E-01 0.45483928E+03</pdfrwt>
<pdfrwt beam="2">  1       21 0.12545674E-01 0.45483928E+03</pdfrwt>
<totfact> 0.53431104E+04</totfact>
</mgrwt>
</event>
<event>
 7    0  0.4712189E-002  0.4502708E+03  0.7546771E-02  0.1027641E+00
         21   -1    0    0  502  501  0.00000000000E+00  0.00000000000E+00  0.27784885957E+03  0.27784885957E+03  0.00000000000E+00 0. -1.
         21   -1    0    0  501  502 -0.00000000000E+00 -0.00000000000E+00 -0.18242274238E+03  0.18242274238E+03  0.00000000000E+00 0. -1.
      99926    2    1    2    0    0  0.35527136788E-14  0.14210854715E-13  0.95426117196E+02  0.46027160195E+03  0.45027081153E+03 0.  0.
      99925    2    3    3    0    0 -0.24427104240E+02 -0.96562210123E+02  0.15312375651E+02  0.28142344420E+03  0.26276175949E+03 0.  0.
         25    1    3    3    0    0  0.24427104240E+02  0.96562210123E+02  0.80113741545E+02  0.17884815775E+03  0.12509000000E+03 0.  0.
         25    1    4    4    0    0 -0.31736492305E+01 -0.49376352483E+02  0.46815768979E+02  0.14243356542E+03  0.12509000000E+03 0.  0.
         25    1    4    4    0    0 -0.21253455010E+02 -0.47185857640E+02 -0.31503393328E+02  0.13898987878E+03  0.12509000000E+03 0.  0.
<mgrwt>
<rscale>  2 0.45027081E+03</rscale>
<asrwt>0</asrwt>
<pdfrwt beam="1">  1       21 0.40860126E-01 0.45027081E+03</pdfrwt>
<pdfrwt beam="2">  1       21 0.26826874E-01 0.45027081E+03</pdfrwt>
<totfact> 0.70785019E+04</totfact>
</mgrwt>
</event>
<event>
 7    0  0.4712189E-002  0.4583975E+03  0.7546771E-02  0.1025247E+00
         21   -1    0    0  502  501  0.00000000000E+00  0.00000000000E+00  0.71814732551E+03  0.71814732551E+03  0.00000000000E+00 0.  1.
         21   -1    0    0  501  502 -0.00000000000E+00 -0.00000000000E+00 -0.73149422640E+02  0.73149422640E+02  0.00000000000E+00 0.  1.
      99926    2    1    2    0    0  0.14210854715E-13  0.00000000000E+00  0.64499790287E+03  0.79129674815E+03  0.45839747919E+03 0.  0.
      99925    2    3    3    0    0 -0.96669852899E+02 -0.64742571101E+02  0.40070714576E+03  0.49319920861E+03  0.26294977037E+03 0.  0.
         25    1    4    4    0    0 -0.56030815530E+02 -0.38357666012E+02  0.13812242926E+03  0.19833324582E+03  0.12509000000E+03 0.  0.
         25    1    4    4    0    0 -0.40639037369E+02 -0.26384905089E+02  0.26258471650E+03  0.29486596279E+03  0.12509000000E+03 0.  0.
         25    1    3    3    0    0  0.96669852899E+02  0.64742571101E+02  0.24429075711E+03  0.29809753954E+03  0.12509000000E+03 0.  0.
<mgrwt>
<rscale>  2 0.45839748E+03</rscale>
<asrwt>0</asrwt>
<pdfrwt beam="1">  1       21 0.10560990E+00 0.45839748E+03</pdfrwt>
<pdfrwt beam="2">  1       21 0.10757268E-01 0.45839748E+03</pdfrwt>
<totfact> 0.46924878E+04</totfact>
</mgrwt>
</event>
<event>
 7    0  0.4712189E-002  0.4401578E+03  0.7546771E-02  0.1030698E+00
         21   -1    0    0  502  501  0.00000000000E+00  0.00000000000E+00  0.27484741019E+03  0.27484741019E+03  0.00000000000E+00 0.  1.
         21   -1    0    0  501  502 -0.00000000000E+00 -0.00000000000E+00 -0.17622406385E+03  0.17622406385E+03  0.00000000000E+00 0.  1.
      99926    2    1    2    0    0  0.71054273576E-14  0.00000000000E+00  0.98623346348E+02  0.45107147404E+03  0.44015782425E+03 0.  0.
      99925    2    3    3    0    0 -0.62008754373E+02  0.68539356070E+02  0.98431813297E+02  0.29553924672E+03  0.26289141396E+03 0.  0.
         25    1    4    4    0    0  0.28355550575E+00  0.53018744617E+02  0.66923357228E+02  0.15145069008E+03  0.12509000000E+03 0.  0.
         25    1    4    4    0    0 -0.62292309879E+02  0.15520611453E+02  0.31508456069E+02  0.14408855664E+03  0.12509000000E+03 0.  0.
         25    1    3    3    0    0  0.62008754373E+02 -0.68539356070E+02  0.19153305055E+00  0.15553222732E+03  0.12509000000E+03 0.  0.
<mgrwt>
<rscale>  2 0.44015782E+03</rscale>
<asrwt>0</asrwt>
<pdfrwt beam="1">  1       21 0.40418737E-01 0.44015782E+03</pdfrwt>
<pdfrwt beam="2">  1       21 0.25915303E-01 0.44015782E+03</pdfrwt>
<totfact> 0.77612215E+04</totfact>
</mgrwt>
</event>
<event>
 7    0  0.4712189E-002  0.4576488E+03  0.7546771E-02  0.1025465E+00
         21   -1    0    0  502  501  0.00000000000E+00  0.00000000000E+00  0.60796329926E+03  0.60796329926E+03  0.00000000000E+00 0.  1.
         21   -1    0    0  501  502 -0.00000000000E+00 -0.00000000000E+00 -0.86124625845E+02  0.86124625845E+02  0.00000000000E+00 0.  1.
      99926    2    1    2    0    0  0.00000000000E+00  0.00000000000E+00  0.52183867341E+03  0.69408792510E+03  0.45764882465E+03 0.  0.
      99925    2    3    3    0    0  0.10961153010E+03  0.31280631754E+02  0.29757262225E+03  0.41313252783E+03  0.26293697835E+03 0.  0.
         25    1    4    4    0    0  0.57940428405E+02 -0.22088476515E+02  0.16672961500E+03  0.21746555280E+03  0.12509000000E+03 0.  0.
         25    1    3    3    0    0 -0.10961153010E+03 -0.31280631754E+02  0.22426605116E+03  0.28095539727E+03  0.12509000000E+03 0.  0.
         25    1    4    4    0    0  0.51671101697E+02  0.53369108270E+02  0.13084300725E+03  0.19566697502E+03  0.12509000000E+03 0.  0.
<mgrwt>
<rscale>  2 0.45764882E+03</rscale>
<asrwt>0</asrwt>
<pdfrwt beam="1">  1       21 0.89406365E-01 0.45764882E+03</pdfrwt>
<pdfrwt beam="2">  1       21 0.12665386E-01 0.45764882E+03</pdfrwt>
<totfact> 0.52129763E+04</totfact>
</mgrwt>
</event>
<event>
 7    0  0.4712189E-002  0.4729332E+03  0.7546771E-02  0.1021096E+00
         21   -1    0    0  502  501  0.00000000000E+00  0.00000000000E+00  0.31151319098E+03  0.31151319098E+03  0.00000000000E+00 0. -1.
         21   -1    0    0  501  502 -0.00000000000E+00 -0.00000000000E+00 -0.17949947216E+03  0.17949947216E+03  0.00000000000E+00 0. -1.
      99926    2    1    2    0    0  0.71054273576E-14 -0.14210854715E-13  0.13201371882E+03  0.49101266315E+03  0.47293320185E+03 0.  0.
      99925    2    3    3    0    0 -0.39361932281E+02  0.11936793773E+03  0.11310922037E+03  0.31267883452E+03  0.26301386190E+03 0.  0.
         25    1    4    4    0    0 -0.25268998909E+01  0.97033915459E+02  0.73617166836E+02  0.17461088547E+03  0.12509000000E+03 0.  0.
         25    1    4    4    0    0 -0.36835032390E+02  0.22334022272E+02  0.39492053530E+02  0.13806794905E+03  0.12509000000E+03 0.  0.
         25    1    3    3    0    0  0.39361932281E+02 -0.11936793773E+03  0.18904498455E+02  0.17833382863E+03  0.12509000000E+03 0.  0.
<mgrwt>
<rscale>  2 0.47293320E+03</rscale>
<asrwt>0</asrwt>
<pdfrwt beam="1">  1       21 0.45810763E-01 0.47293320E+03</pdfrwt>
<pdfrwt beam="2">  1       21 0.26396981E-01 0.47293320E+03</pdfrwt>
<totfact> 0.57305067E+04</totfact>
</mgrwt>
</event>
<event>
 7    0  0.4712189E-002  0.4527014E+03  0.7546771E-02  0.1026920E+00
         21   -1    0    0  502  501  0.00000000000E+00  0.00000000000E+00  0.50766843605E+02  0.50766843605E+02  0.00000000000E+00 0. -1.
         21   -1    0    0  501  502 -0.00000000000E+00 -0.00000000000E+00 -0.10092145465E+04  0.10092145465E+04  0.00000000000E+00 0. -1.
      99926    2    1    2    0    0  0.14210854715E-13 -0.35527136788E-14 -0.95844770294E+03  0.10599813901E+04  0.45270138965E+03 0.  0.
      99925    2    3    3    0    0 -0.81503429733E+02  0.25672781186E+02 -0.43814527605E+03  0.51807362652E+03  0.26292032790E+03 0.  0.
         25    1    3    3    0    0  0.81503429733E+02 -0.25672781186E+02 -0.52030242689E+03  0.54190776362E+03  0.12509000000E+03 0.  0.
         25    1    4    4    0    0 -0.18900423416E+02 -0.22007199670E+02 -0.19243332903E+03  0.23134311545E+03  0.12509000000E+03 0.  0.
         25    1    4    4    0    0 -0.62603006317E+02  0.47679980855E+02 -0.24571194702E+03  0.28673051108E+03  0.12509000000E+03 0.  0.
<mgrwt>
<rscale>  2 0.45270139E+03</rscale>
<asrwt>0</asrwt>
<pdfrwt beam="1">  1       21 0.74657126E-02 0.45270139E+03</pdfrwt>
<pdfrwt beam="2">  1       21 0.14841390E+00 0.45270139E+03</pdfrwt>
<totfact> 0.37582959E+04</totfact>
</mgrwt>
</event>
<event>
 7    0  0.4712189E-002  0.4563161E+03  0.7546771E-02  0.1025855E+00
         21   -1    0    0  502  501  0.00000000000E+00  0.00000000000E+00  0.62857246801E+03  0.62857246801E+03  0.00000000000E+00 0. -1.
         21   -1    0    0  501  502 -0.00000000000E+00 -0.00000000000E+00 -0.82816368028E+02  0.82816368028E+02  0.00000000000E+00 0. -1.
      99926    2    1    2    0    0  0.00000000000E+00  0.00000000000E+00  0.54575609998E+03  0.71138883604E+03  0.45631606960E+03 0.  0.
      99925    2    3    3    0    0  0.84201798765E+02 -0.72864855668E+02  0.38082896207E+03  0.47634054520E+03  0.26357235542E+03 0.  0.
         25    1    4    4    0    0  0.74827159159E+02 -0.10943874597E+02  0.18952409466E+03  0.23934444363E+03  0.12509000000E+03 0.  0.
         25    1    3    3    0    0 -0.84201798765E+02  0.72864855668E+02  0.16492713791E+03  0.23504829084E+03  0.12509000000E+03 0.  0.
         25    1    4    4    0    0  0.93746396056E+01 -0.61920981071E+02  0.19130486741E+03  0.23699610157E+03  0.12509000000E+03 0.  0.
<mgrwt>
<rscale>  2 0.45631607E+03</rscale>
<asrwt>0</asrwt>
<pdfrwt beam="1">  1       21 0.92437125E-01 0.45631607E+03</pdfrwt>
<pdfrwt beam="2">  1       21 0.12178878E-01 0.45631607E+03</pdfrwt>
<totfact> 0.51751074E+04</totfact>
</mgrwt>
</event>
<event>
 7    0  0.4712189E-002  0.4550922E+03  0.7546771E-02  0.1026214E+00
         21   -1    0    0  502  501  0.00000000000E+00  0.00000000000E+00  0.31107715228E+03  0.31107715228E+03  0.00000000000E+00 0. -1.
         21   -1    0    0  501  502 -0.00000000000E+00 -0.00000000000E+00 -0.16644495364E+03  0.16644495364E+03  0.00000000000E+00 0. -1.
      99926    2    1    2    0    0  0.00000000000E+00  0.00000000000E+00  0.14463219864E+03  0.47752210592E+03  0.45509217612E+03 0.  0.
      99925    2    3    3    0    0  0.86317203625E+02  0.49488424700E+02  0.33910381305E+02  0.28308293098E+03  0.26284266782E+03 0.  0.
         25    1    3    3    0    0 -0.86317203625E+02 -0.49488424700E+02  0.11072181733E+03  0.19443917495E+03  0.12509000000E+03 0.  0.
         25    1    4    4    0    0  0.70433461525E+02  0.42641509590E+02  0.44856890481E+02  0.15632920254E+03  0.12509000000E+03 0.  0.
         25    1    4    4    0    0  0.15883742100E+02  0.68469151104E+01 -0.10946509176E+02  0.12675372844E+03  0.12509000000E+03 0.  0.
<mgrwt>
<rscale>  2 0.45509218E+03</rscale>
<asrwt>0</asrwt>
<pdfrwt beam="1">  1       21 0.45746640E-01 0.45509218E+03</pdfrwt>
<pdfrwt beam="2">  1       21 0.24477199E-01 0.45509218E+03</pdfrwt>
<totfact> 0.66832008E+04</totfact>
</mgrwt>
</event>
<event>
 7    0  0.4712189E-002  0.4486523E+03  0.7546771E-02  0.1028125E+00
         21   -1    0    0  502  501  0.00000000000E+00  0.00000000000E+00  0.63946606385E+03  0.63946606385E+03  0.00000000000E+00 0.  1.
         21   -1    0    0  501  502 -0.00000000000E+00 -0.00000000000E+00 -0.78694113967E+02  0.78694113967E+02  0.00000000000E+00 0.  1.
      99926    2    1    2    0    0 -0.35527136788E-14  0.00000000000E+00  0.56077194988E+03  0.71816017782E+03  0.44865227206E+03 0.  0.
      99925    2    3    3    0    0 -0.17031027305E+02  0.44674881172E+02  0.20153235801E+03  0.33477200198E+03  0.26300399443E+03 0.  0.
         25    1    3    3    0    0  0.17031027305E+02 -0.44674881172E+02  0.35923959188E+03  0.38338817584E+03  0.12509000000E+03 0.  0.
         25    1    4    4    0    0  0.17822834322E+02 -0.91656478341E+01  0.98919897288E+02  0.16073057177E+03  0.12509000000E+03 0.  0.
         25    1    4    4    0    0 -0.34853861628E+02  0.53840529006E+02  0.10261246072E+03  0.17404143021E+03  0.12509000000E+03 0.  0.
<mgrwt>
<rscale>  2 0.44865227E+03</rscale>
<asrwt>0</asrwt>
<pdfrwt beam="1">  1       21 0.94039124E-01 0.44865227E+03</pdfrwt>
<pdfrwt beam="2">  1       21 0.11572664E-01 0.44865227E+03</pdfrwt>
<totfact> 0.54603826E+04</totfact>
</mgrwt>
</event>
<event>
 7    0  0.4712189E-002  0.4518679E+03  0.7546771E-02  0.1027166E+00
         21   -1    0    0  502  501  0.00000000000E+00  0.00000000000E+00  0.24628467160E+02  0.24628467160E+02  0.00000000000E+00 0. -1.
         21   -1    0    0  501  502 -0.00000000000E+00 -0.00000000000E+00 -0.20726481929E+04  0.20726481929E+04  0.00000000000E+00 0. -1.
      99926    2    1    2    0    0  0.00000000000E+00  0.00000000000E+00 -0.20480197258E+04  0.20972766601E+04  0.45186789200E+03 0.  0.
      99925    2    3    3    0    0  0.76922695019E+02 -0.74951645025E+01 -0.92740748617E+03  0.96705872617E+03  0.26295371450E+03 0.  0.
         25    1    4    4    0    0  0.66615519020E+02 -0.61795090949E+01 -0.38460350687E+03  0.40993070061E+03  0.12509000000E+03 0.  0.
         25    1    4    4    0    0  0.10307176000E+02 -0.13156554075E+01 -0.54280397930E+03  0.55712802556E+03  0.12509000000E+03 0.  0.
         25    1    3    3    0    0 -0.76922695019E+02  0.74951645025E+01 -0.11206122396E+04  0.11302179339E+04  0.12509000000E+03 0.  0.
<mgrwt>
<rscale>  2 0.45186789E+03</rscale>
<asrwt>0</asrwt>
<pdfrwt beam="1">  1       21 0.36218316E-02 0.45186789E+03</pdfrwt>
<pdfrwt beam="2">  1       21 0.30480135E+00 0.45186789E+03</pdfrwt>
<totfact> 0.12486708E+04</totfact>
</mgrwt>
</event>
<event>
 7    0  0.4712189E-002  0.4512878E+03  0.7546771E-02  0.1027339E+00
         21   -1    0    0  502  501  0.00000000000E+00  0.00000000000E+00  0.14970637949E+03  0.14970637949E+03  0.00000000000E+00 0. -1.
         21   -1    0    0  501  502 -0.00000000000E+00 -0.00000000000E+00 -0.34010025032E+03  0.34010025032E+03  0.00000000000E+00 0. -1.
      99926    2    1    2    0    0  0.00000000000E+00 -0.35527136788E-14 -0.19039387083E+03  0.48980662981E+03  0.45128783338E+03 0.  0.
      99925    2    3    3    0    0  0.10810730883E+03  0.16012014789E+02 -0.13022523014E+03  0.31313929196E+03  0.26297153984E+03 0.  0.
         25    1    4    4    0    0  0.57567112422E+02  0.23784786613E+02 -0.25211735876E+02  0.14199587400E+03  0.12509000000E+03 0.  0.
         25    1    4    4    0    0  0.50540196405E+02 -0.77727718240E+01 -0.10501349427E+03  0.17114341796E+03  0.12509000000E+03 0.  0.
         25    1    3    3    0    0 -0.10810730883E+03 -0.16012014789E+02 -0.60168640692E+02  0.17666733785E+03  0.12509000000E+03 0.  0.
<mgrwt>
<rscale>  2 0.45128783E+03</rscale>
<asrwt>0</asrwt>
<pdfrwt beam="1">  1       21 0.22015644E-01 0.45128783E+03</pdfrwt>
<pdfrwt beam="2">  1       21 0.50014742E-01 0.45128783E+03</pdfrwt>
<totfact> 0.67974074E+04</totfact>
</mgrwt>
</event>
<event>
 7    0  0.4712189E-002  0.4549635E+03  0.7546771E-02  0.1026252E+00
         21   -1    0    0  502  501  0.00000000000E+00  0.00000000000E+00  0.22254400074E+03  0.22254400074E+03  0.00000000000E+00 0. -1.
         21   -1    0    0  501  502 -0.00000000000E+00 -0.00000000000E+00 -0.23252906637E+03  0.23252906637E+03  0.00000000000E+00 0. -1.
      99926    2    1    2    0    0  0.71054273576E-14  0.00000000000E+00 -0.99850656271E+01  0.45507306711E+03  0.45496350939E+03 0.  0.
      99925    2    3    3    0    0  0.42607746375E+02  0.75356245166E+02  0.66215032798E+02  0.28493210544E+03  0.26326391779E+03 0.  0.
         25    1    4    4    0    0  0.12629877731E+02  0.19012678591E+02  0.68602417765E+02  0.14448112535E+03  0.12509000000E+03 0.  0.
         25    1    3    3    0    0 -0.42607746375E+02 -0.75356245166E+02 -0.76200098426E+02  0.17014096167E+03  0.12509000000E+03 0.  0.
         25    1    4    4    0    0  0.29977868644E+02  0.56343566575E+02 -0.23873849668E+01  0.14045098010E+03  0.12509000000E+03 0.  0.
<mgrwt>
<rscale>  2 0.45496351E+03</rscale>
<asrwt>0</asrwt>
<pdfrwt beam="1">  1       21 0.32727059E-01 0.45496351E+03</pdfrwt>
<pdfrwt beam="2">  1       21 0.34195451E-01 0.45496351E+03</pdfrwt>
<totfact> 0.68560404E+04</totfact>
</mgrwt>
</event>
<event>
 7    0  0.4712189E-002  0.4459007E+03  0.7546771E-02  0.1028952E+00
         21   -1    0    0  502  501  0.00000000000E+00  0.00000000000E+00  0.33756984273E+03  0.33756984273E+03  0.00000000000E+00 0. -1.
         21   -1    0    0  501  502 -0.00000000000E+00 -0.00000000000E+00 -0.14724908921E+03  0.14724908921E+03  0.00000000000E+00 0. -1.
      99926    2    1    2    0    0  0.00000000000E+00  0.35527136788E-14  0.19032075353E+03  0.48481893194E+03  0.44590067004E+03 0.  0.
      99925    2    3    3    0    0 -0.66425717904E+02  0.46175469393E+01  0.20820191788E+03  0.34198706617E+03  0.26300839736E+03 0.  0.
         25    1    4    4    0    0 -0.36109515159E+02  0.41238781424E+02  0.11917844380E+03  0.18126098241E+03  0.12509000000E+03 0.  0.
         25    1    4    4    0    0 -0.30316202745E+02 -0.36621234485E+02  0.89023474078E+02  0.16072608376E+03  0.12509000000E+03 0.  0.
         25    1    3    3    0    0  0.66425717904E+02 -0.46175469393E+01 -0.17881164353E+02  0.14283186576E+03  0.12509000000E+03 0.  0.
<mgrwt>
<rscale>  2 0.44590067E+03</rscale>
<asrwt>0</asrwt>
<pdfrwt beam="1">  1       21 0.49642624E-01 0.44590067E+03</pdfrwt>
<pdfrwt beam="2">  1       21 0.21654278E-01 0.44590067E+03</pdfrwt>
<totfact> 0.71368713E+04</totfact>
</mgrwt>
</event>
<event>
 7    0  0.4712189E-002  0.4618605E+03  0.7546771E-02  0.1024243E+00
         21   -1    0    0  502  501  0.00000000000E+00  0.00000000000E+00  0.53445122795E+02  0.53445122795E+02  0.00000000000E+00 0.  1.
         21   -1    0    0  501  502 -0.00000000000E+00 -0.00000000000E+00 -0.99782330157E+03  0.99782330157E+03  0.00000000000E+00 0.  1.
      99926    2    1    2    0    0  0.00000000000E+00  0.00000000000E+00 -0.94437817877E+03  0.10512684244E+04  0.46186053687E+03 0.  0.
      99925    2    3    3    0    0  0.23343469561E+02 -0.11630143252E+03 -0.55703749335E+03  0.62729760525E+03  0.26294595600E+03 0.  0.
         25    1    3    3    0    0 -0.23343469561E+02  0.11630143252E+03 -0.38734068542E+03  0.42397081911E+03  0.12509000000E+03 0.  0.
         25    1    4    4    0    0  0.14917339226E+02 -0.96913905994E+02 -0.26697937239E+03  0.31070939086E+03  0.12509000000E+03 0.  0.
         25    1    4    4    0    0  0.84261303346E+01 -0.19387526523E+02 -0.29005812096E+03  0.31658821439E+03  0.12509000000E+03 0.  0.
<mgrwt>
<rscale>  2 0.46186054E+03</rscale>
<asrwt>0</asrwt>
<pdfrwt beam="1">  1       21 0.78595764E-02 0.46186054E+03</pdfrwt>
<pdfrwt beam="2">  1       21 0.14673873E+00 0.46186054E+03</pdfrwt>
<totfact> 0.35302285E+04</totfact>
</mgrwt>
</event>
<event>
 7    0  0.4712189E-002  0.4583385E+03  0.7546771E-02  0.1025264E+00
         21   -1    0    0  502  501  0.00000000000E+00  0.00000000000E+00  0.39324290334E+02  0.39324290334E+02  0.00000000000E+00 0.  1.
         21   -1    0    0  501  502 -0.00000000000E+00 -0.00000000000E+00 -0.13355244202E+04  0.13355244202E+04  0.00000000000E+00 0.  1.
      99926    2    1    2    0    0  0.00000000000E+00 -0.35527136788E-14 -0.12962001299E+04  0.13748487105E+04  0.45833852139E+03 0.  0.
      99925    2    3    3    0    0  0.69172940845E+02 -0.31665050570E+02 -0.10769146816E+04  0.11111800034E+04  0.26303649453E+03 0.  0.
         25    1    4    4    0    0  0.22152818177E+02 -0.54390144490E+02 -0.55646847325E+03  0.57337047795E+03  0.12509000000E+03 0.  0.
         25    1    3    3    0    0 -0.69172940845E+02  0.31665050570E+02 -0.21928544827E+03  0.26366870708E+03  0.12509000000E+03 0.  0.
         25    1    4    4    0    0  0.47020122668E+02  0.22725093920E+02 -0.52044620835E+03  0.53780952550E+03  0.12509000000E+03 0.  0.
<mgrwt>
<rscale>  2 0.45833852E+03</rscale>
<asrwt>0</asrwt>
<pdfrwt beam="1">  1       21 0.57829846E-02 0.45833852E+03</pdfrwt>
<pdfrwt beam="2">  1       21 0.19640062E+00 0.45833852E+03</pdfrwt>
<totfact> 0.26320427E+04</totfact>
</mgrwt>
</event>
<event>
 7    0  0.4712189E-002  0.4464340E+03  0.7546771E-02  0.1028791E+00
         21   -1    0    0  502  501  0.00000000000E+00  0.00000000000E+00  0.74305178124E+02  0.74305178124E+02  0.00000000000E+00 0. -1.
         21   -1    0    0  501  502 -0.00000000000E+00 -0.00000000000E+00 -0.67055655392E+03  0.67055655392E+03  0.00000000000E+00 0. -1.
      99926    2    1    2    0    0  0.00000000000E+00  0.00000000000E+00 -0.59625137580E+03  0.74486173205E+03  0.44643397801E+03 0.  0.
      99925    2    3    3    0    0 -0.43030809586E+02  0.94129519090E+02 -0.40741131495E+03  0.49582339440E+03  0.26295406813E+03 0.  0.
         25    1    3    3    0    0  0.43030809586E+02 -0.94129519090E+02 -0.18884006084E+03  0.24903833765E+03  0.12509000000E+03 0.  0.
         25    1    4    4    0    0 -0.77845803657E+01  0.82379123970E+02 -0.18743208738E+03  0.24005252599E+03  0.12509000000E+03 0.  0.
         25    1    4    4    0    0 -0.35246229220E+02  0.11750395120E+02 -0.21997922758E+03  0.25577086841E+03  0.12509000000E+03 0.  0.
<mgrwt>
<rscale>  2 0.44643398E+03</rscale>
<asrwt>0</asrwt>
<pdfrwt beam="1">  1       21 0.10927232E-01 0.44643398E+03</pdfrwt>
<pdfrwt beam="2">  1       21 0.98611262E-01 0.44643398E+03</pdfrwt>
<totfact> 0.54084709E+04</totfact>
</mgrwt>
</event>
<event>
 7    0  0.4712189E-002  0.4559073E+03  0.7546771E-02  0.1025975E+00
         21   -1    0    0  502  501  0.00000000000E+00  0.00000000000E+00  0.95718988540E+02  0.95718988540E+02  0.00000000000E+00 0. -1.
         21   -1    0    0  501  502 -0.00000000000E+00 -0.00000000000E+00 -0.54286887532E+03  0.54286887532E+03  0.00000000000E+00 0. -1.
      99926    2    1    2    0    0  0.00000000000E+00  0.00000000000E+00 -0.44714988678E+03  0.63858786386E+03  0.45590726976E+03 0.  0.
      99925    2    3    3    0    0  0.66399011305E+02 -0.45732619365E+02 -0.39420122082E+03  0.48062783568E+03  0.26288440950E+03 0.  0.
         25    1    4    4    0    0  0.39317360846E+02 -0.34853999983E+02 -0.13527805289E+03  0.19159414363E+03  0.12509000000E+03 0.  0.
         25    1    4    4    0    0  0.27081650460E+02 -0.10878619382E+02 -0.25892316792E+03  0.28903369205E+03  0.12509000000E+03 0.  0.
         25    1    3    3    0    0 -0.66399011305E+02  0.45732619365E+02 -0.52948665965E+02  0.15796002818E+03  0.12509000000E+03 0.  0.
<mgrwt>
<rscale>  2 0.45590727E+03</rscale>
<asrwt>0</asrwt>
<pdfrwt beam="1">  1       21 0.14076322E-01 0.45590727E+03</pdfrwt>
<pdfrwt beam="2">  1       21 0.79833656E-01 0.45590727E+03</pdfrwt>
<totfact> 0.55962004E+04</totfact>
</mgrwt>
</event>
<event>
 7    0  0.4712189E-002  0.4453240E+03  0.7546771E-02  0.1029126E+00
         21   -1    0    0  502  501  0.00000000000E+00  0.00000000000E+00  0.17338355450E+03  0.17338355450E+03  0.00000000000E+00 0.  1.
         21   -1    0    0  501  502 -0.00000000000E+00 -0.00000000000E+00 -0.28594617453E+03  0.28594617453E+03  0.00000000000E+00 0.  1.
      99926    2    1    2    0    0  0.00000000000E+00  0.00000000000E+00 -0.11256262003E+03  0.45932972903E+03  0.44532399053E+03 0.  0.
      99925    2    3    3    0    0  0.72562428559E+02 -0.28346027889E+02 -0.14228493109E+03  0.30899767254E+03  0.26299383392E+03 0.  0.
         25    1    4    4    0    0  0.33294996614E+02 -0.29875880933E+02 -0.11356172741E+03  0.17477099042E+03  0.12509000000E+03 0.  0.
         25    1    3    3    0    0 -0.72562428559E+02  0.28346027889E+02  0.29722311059E+02  0.15033205650E+03  0.12509000000E+03 0.  0.
         25    1    4    4    0    0  0.39267431945E+02  0.15298530447E+01 -0.28723203683E+02  0.13422668212E+03  0.12509000000E+03 0.  0.
<mgrwt>
<rscale>  2 0.44532399E+03</rscale>
<asrwt>0</asrwt>
<pdfrwt beam="1">  1       21 0.25497582E-01 0.44532399E+03</pdfrwt>
<pdfrwt beam="2">  1       21 0.42050907E-01 0.44532399E+03</pdfrwt>
<totfact> 0.73736724E+04</totfact>
</mgrwt>
</event>
<event>
 7    0  0.4712189E-002  0.4542538E+03  0.7546771E-02  0.1026461E+00
         21   -1    0    0  502  501  0.00000000000E+00  0.00000000000E+00  0.59012353045E+03  0.59012353045E+03  0.00000000000E+00 0.  1.
         21   -1    0    0  501  502 -0.00000000000E+00 -0.00000000000E+00 -0.87416660496E+02  0.87416660496E+02  0.00000000000E+00 0.  1.
      99926    2    1    2    0    0  0.00000000000E+00 -0.35527136788E-14  0.50270686996E+03  0.67754019095E+03  0.45425379828E+03 0.  0.
      99925    2    3    3    0    0  0.41480768895E+02 -0.25650344157E+02  0.46767244799E+03  0.53878316170E+03  0.26304216845E+03 0.  0.
         25    1    4    4    0    0  0.13248020880E+02  0.82586651859E+01  0.15968591530E+03  0.20344732796E+03  0.12509000000E+03 0.  0.
         25    1    4    4    0    0  0.28232748016E+02 -0.33909009343E+02  0.30798653269E+03  0.33533583374E+03  0.12509000000E+03 0.  0.
         25    1    3    3    0    0 -0.41480768895E+02  0.25650344157E+02  0.35034421972E+02  0.13875702925E+03  0.12509000000E+03 0.  0.
<mgrwt>
<rscale>  2 0.45425380E+03</rscale>
<asrwt>0</asrwt>
<pdfrwt beam="1">  1       21 0.86782870E-01 0.45425380E+03</pdfrwt>
<pdfrwt beam="2">  1       21 0.12855392E-01 0.45425380E+03</pdfrwt>
<totfact> 0.54459276E+04</totfact>
</mgrwt>
</event>
<event>
 7    0  0.4712189E-002  0.4141522E+03  0.7546771E-02  0.1038987E+00
         21   -1    0    0  502  501  0.00000000000E+00  0.00000000000E+00  0.42945918300E+03  0.42945918300E+03  0.00000000000E+00 0. -1.
         21   -1    0    0  501  502 -0.00000000000E+00 -0.00000000000E+00 -0.99847697213E+02  0.99847697213E+02  0.00000000000E+00 0. -1.
      99926    2    1    2    0    0  0.00000000000E+00  0.00000000000E+00  0.32961148578E+03  0.52930688021E+03  0.41415219651E+03 0.  0.
      99925    2    3    3    0    0  0.49749140725E+02  0.27762316829E+02  0.26404861725E+03  0.37701859744E+03  0.26301259914E+03 0.  0.
         25    1    4    4    0    0  0.52127204081E+02 -0.15997098982E+02  0.12855225948E+03  0.18747358240E+03  0.12509000000E+03 0.  0.
         25    1    3    3    0    0 -0.49749140725E+02 -0.27762316829E+02  0.65562868536E+02  0.15228828277E+03  0.12509000000E+03 0.  0.
         25    1    4    4    0    0 -0.23780633555E+01  0.43759415811E+02  0.13549635777E+03  0.18954501504E+03  0.12509000000E+03 0.  0.
<mgrwt>
<rscale>  2 0.41415220E+03</rscale>
<asrwt>0</asrwt>
<pdfrwt beam="1">  1       21 0.63155761E-01 0.41415220E+03</pdfrwt>
<pdfrwt beam="2">  1       21 0.14683485E-01 0.41415220E+03</pdfrwt>
<totfact> 0.88618791E+04</totfact>
</mgrwt>
</event>
<event>
 7    0  0.4712189E-002  0.4543750E+03  0.7546771E-02  0.1026425E+00
         21   -1    0    0  502  501  0.00000000000E+00  0.00000000000E+00  0.99091841342E+02  0.99091841342E+02  0.00000000000E+00 0. -1.
         21   -1    0    0  501  502 -0.00000000000E+00 -0.00000000000E+00 -0.52087191872E+03  0.52087191872E+03  0.00000000000E+00 0. -1.
      99926    2    1    2    0    0  0.00000000000E+00 -0.53290705182E-14 -0.42178007738E+03  0.61996376006E+03  0.45437498844E+03 0.  0.
      99925    2    3    3    0    0  0.80688005895E+02  0.13756553139E+02 -0.37090509675E+03  0.46205375783E+03  0.26310318752E+03 0.  0.
         25    1    3    3    0    0 -0.80688005895E+02 -0.13756553139E+02 -0.50874980628E+02  0.15791000223E+03  0.12509000000E+03 0.  0.
         25    1    4    4    0    0  0.54263512649E+02 -0.30425877295E+02 -0.17363560704E+03  0.22286115621E+03  0.12509000000E+03 0.  0.
         25    1    4    4    0    0  0.26424493246E+02  0.44182430434E+02 -0.19726948971E+03  0.23919260163E+03  0.12509000000E+03 0.  0.
<mgrwt>
<rscale>  2 0.45437499E+03</rscale>
<asrwt>0</asrwt>
<pdfrwt beam="1">  1       21 0.14572329E-01 0.45437499E+03</pdfrwt>
<pdfrwt beam="2">  1       21 0.76598813E-01 0.45437499E+03</pdfrwt>
<totfact> 0.57750466E+04</totfact>
</mgrwt>
</event>
<event>
 7    0  0.4712189E-002  0.4544240E+03  0.7546771E-02  0.1026411E+00
         21   -1    0    0  502  501  0.00000000000E+00  0.00000000000E+00  0.13220439482E+04  0.13220439482E+04  0.00000000000E+00 0.  1.
         21   -1    0    0  501  502 -0.00000000000E+00 -0.00000000000E+00 -0.39049608956E+02  0.39049608956E+02  0.00000000000E+00 0.  1.
      99926    2    1    2    0    0  0.00000000000E+00  0.00000000000E+00  0.12829943393E+04  0.13610935572E+04  0.45442402753E+03 0.  0.
      99925    2    3    3    0    0  0.42238668926E+02  0.69974824290E+02  0.10394218816E+04  0.10753390622E+04  0.26320271555E+03 0.  0.
         25    1    4    4    0    0  0.61016941168E+02  0.31751854620E+02  0.57812980865E+03  0.59549377085E+03  0.12509000000E+03 0.  0.
         25    1    3    3    0    0 -0.42238668926E+02 -0.69974824290E+02  0.24357245764E+03  0.28575449499E+03  0.12509000000E+03 0.  0.
         25    1    4    4    0    0 -0.18778272242E+02  0.38222969670E+02  0.46129207298E+03  0.47984529133E+03  0.12509000000E+03 0.  0.
<mgrwt>
<rscale>  2 0.45442403E+03</rscale>
<asrwt>0</asrwt>
<pdfrwt beam="1">  1       21 0.19441820E+00 0.45442403E+03</pdfrwt>
<pdfrwt beam="2">  1       21 0.57425904E-02 0.45442403E+03</pdfrwt>
<totfact> 0.27510458E+04</totfact>
</mgrwt>
</event>
<event>
 7    0  0.4712189E-002  0.4540229E+03  0.7546771E-02  0.1026529E+00
         21   -1    0    0  502  501  0.00000000000E+00  0.00000000000E+00  0.85026582043E+02  0.85026582043E+02  0.00000000000E+00 0. -1.
         21   -1    0    0  501  502 -0.00000000000E+00 -0.00000000000E+00 -0.60609515852E+03  0.60609515852E+03  0.00000000000E+00 0. -1.
      99926    2    1    2    0    0 -0.88817841970E-15  0.35527136788E-14 -0.52106857648E+03  0.69112174056E+03  0.45402290569E+03 0.  0.
      99925    2    3    3    0    0 -0.49472252689E+01  0.24983768758E+02 -0.49462719861E+03  0.56075564719E+03  0.26294898080E+03 0.  0.
         25    1    4    4    0    0 -0.16077031804E+02 -0.12148337075E+02 -0.30531776746E+03  0.33056391253E+03  0.12509000000E+03 0.  0.
         25    1    4    4    0    0  0.11129806535E+02  0.37132105833E+02 -0.18930943116E+03  0.23019173465E+03  0.12509000000E+03 0.  0.
         25    1    3    3    0    0  0.49472252689E+01 -0.24983768758E+02 -0.26441377865E+02  0.13036609338E+03  0.12509000000E+03 0.  0.
<mgrwt>
<rscale>  2 0.45402291E+03</rscale>
<asrwt>0</asrwt>
<pdfrwt beam="1">  1       21 0.12503910E-01 0.45402291E+03</pdfrwt>
<pdfrwt beam="2">  1       21 0.89131636E-01 0.45402291E+03</pdfrwt>
<totfact> 0.53800336E+04</totfact>
</mgrwt>
</event>
<event>
 7    0  0.4712189E-002  0.4533758E+03  0.7546771E-02  0.1026720E+00
         21   -1    0    0  502  501  0.00000000000E+00  0.00000000000E+00  0.49836250667E+03  0.49836250667E+03  0.00000000000E+00 0.  1.
         21   -1    0    0  501  502 -0.00000000000E+00 -0.00000000000E+00 -0.10311247870E+03  0.10311247870E+03  0.00000000000E+00 0.  1.
      99926    2    1    2    0    0  0.17763568394E-14  0.00000000000E+00  0.39525002798E+03  0.60147498537E+03  0.45337575300E+03 0.  0.
      99925    2    3    3    0    0  0.10525410433E+02 -0.10474079297E+03  0.29693113420E+03  0.41069885754E+03  0.26348441158E+03 0.  0.
         25    1    4    4    0    0 -0.43595915370E+01 -0.93613428988E+02  0.14714594892E+03  0.21466699446E+03  0.12509000000E+03 0.  0.
         25    1    4    4    0    0  0.14885001970E+02 -0.11127363981E+02  0.14978518529E+03  0.19603186308E+03  0.12509000000E+03 0.  0.
         25    1    3    3    0    0 -0.10525410433E+02  0.10474079297E+03  0.98318893770E+02  0.19077612783E+03  0.12509000000E+03 0.  0.
<mgrwt>
<rscale>  2 0.45337575E+03</rscale>
<asrwt>0</asrwt>
<pdfrwt beam="1">  1       21 0.73288603E-01 0.45337575E+03</pdfrwt>
<pdfrwt beam="2">  1       21 0.15163600E-01 0.45337575E+03</pdfrwt>
<totfact> 0.59345489E+04</totfact>
</mgrwt>
</event>
<event>
 7    0  0.4712189E-002  0.4516761E+03  0.7546771E-02  0.1027223E+00
         21   -1    0    0  502  501  0.00000000000E+00  0.00000000000E+00  0.18534786876E+03  0.18534786876E+03  0.00000000000E+00 0. -1.
         21   -1    0    0  501  502 -0.00000000000E+00 -0.00000000000E+00 -0.27517347925E+03  0.27517347925E+03  0.00000000000E+00 0. -1.
      99926    2    1    2    0    0  0.00000000000E+00  0.00000000000E+00 -0.89825610491E+02  0.46052134802E+03  0.45167606941E+03 0.  0.
      99925    2    3    3    0    0 -0.36940717655E+02  0.62946034108E+02 -0.14078554839E+03  0.30699205700E+03  0.26286257359E+03 0.  0.
         25    1    4    4    0    0  0.59821915954E+01  0.63809780493E+02 -0.71913110272E+02  0.15788121558E+03  0.12509000000E+03 0.  0.
         25    1    3    3    0    0  0.36940717655E+02 -0.62946034108E+02  0.50959937899E+02  0.15352929102E+03  0.12509000000E+03 0.  0.
         25    1    4    4    0    0 -0.42922909251E+02 -0.86374638521E+00 -0.68872438119E+02  0.14911084142E+03  0.12509000000E+03 0.  0.
<mgrwt>
<rscale>  2 0.45167607E+03</rscale>
<asrwt>0</asrwt>
<pdfrwt beam="1">  1       21 0.27257040E-01 0.45167607E+03</pdfrwt>
<pdfrwt beam="2">  1       21 0.40466688E-01 0.45167607E+03</pdfrwt>
<totfact> 0.69974708E+04</totfact>
</mgrwt>
</event>
<event>
 7    0  0.4712189E-002  0.4562796E+03  0.7546771E-02  0.1025866E+00
         21   -1    0    0  502  501  0.00000000000E+00  0.00000000000E+00  0.40229035070E+03  0.40229035070E+03  0.00000000000E+00 0.  1.
         21   -1    0    0  501  502 -0.00000000000E+00 -0.00000000000E+00 -0.12937862420E+03  0.12937862420E+03  0.00000000000E+00 0.  1.
      99926    2    1    2    0    0  0.35527136788E-14  0.00000000000E+00  0.27291172650E+03  0.53166897490E+03  0.45627961648E+03 0.  0.
      99925    2    3    3    0    0  0.10480393921E+02  0.85173920748E+02  0.83546045237E+02  0.28903487842E+03  0.26305281568E+03 0.  0.
         25    1    4    4    0    0  0.30829792546E+02  0.44938446689E+02  0.75221095344E+02  0.15580648698E+03  0.12509000000E+03 0.  0.
         25    1    4    4    0    0 -0.20349398625E+02  0.40235474059E+02  0.83249498934E+01  0.13322839145E+03  0.12509000000E+03 0.  0.
         25    1    3    3    0    0 -0.10480393921E+02 -0.85173920748E+02  0.18936568127E+03  0.24263409648E+03  0.12509000000E+03 0.  0.
<mgrwt>
<rscale>  2 0.45627962E+03</rscale>
<asrwt>0</asrwt>
<pdfrwt beam="1">  1       21 0.59160345E-01 0.45627962E+03</pdfrwt>
<pdfrwt beam="2">  1       21 0.19026268E-01 0.45627962E+03</pdfrwt>
<totfact> 0.62457827E+04</totfact>
</mgrwt>
</event>
<event>
 7    0  0.4712189E-002  0.4548122E+03  0.7546771E-02  0.1026297E+00
         21   -1    0    0  502  501  0.00000000000E+00  0.00000000000E+00  0.36529244851E+03  0.36529244851E+03  0.00000000000E+00 0.  1.
         21   -1    0    0  501  502 -0.00000000000E+00 -0.00000000000E+00 -0.14156750806E+03  0.14156750806E+03  0.00000000000E+00 0.  1.
      99926    2    1    2    0    0 -0.71054273576E-14  0.00000000000E+00  0.22372494046E+03  0.50685995657E+03  0.45481223224E+03 0.  0.
      99925    2    3    3    0    0 -0.42132900093E+02  0.10490514545E+03  0.13833917753E+03  0.31786655081E+03  0.26290900568E+03 0.  0.
         25    1    4    4    0    0 -0.43818380526E+02  0.55267540684E+02  0.10856496427E+03  0.18002336263E+03  0.12509000000E+03 0.  0.
         25    1    3    3    0    0  0.42132900093E+02 -0.10490514545E+03  0.85385762921E+02  0.18899340576E+03  0.12509000000E+03 0.  0.
         25    1    4    4    0    0  0.16854804331E+01  0.49637604766E+02  0.29774213261E+02  0.13784318818E+03  0.12509000000E+03 0.  0.
<mgrwt>
<rscale>  2 0.45481223E+03</rscale>
<asrwt>0</asrwt>
<pdfrwt beam="1">  1       21 0.53719477E-01 0.45481223E+03</pdfrwt>
<pdfrwt beam="2">  1       21 0.20818751E-01 0.45481223E+03</pdfrwt>
<totfact> 0.64888015E+04</totfact>
</mgrwt>
</event>
<event>
 7    0  0.4712189E-002  0.4525553E+03  0.7546771E-02  0.1026963E+00
         21   -1    0    0  502  501  0.00000000000E+00  0.00000000000E+00  0.22311326719E+03  0.22311326719E+03  0.00000000000E+00 0. -1.
         21   -1    0    0  501  502 -0.00000000000E+00 -0.00000000000E+00 -0.22948694571E+03  0.22948694571E+03  0.00000000000E+00 0. -1.
      99926    2    1    2    0    0 -0.17763568394E-14  0.35527136788E-14 -0.63736785148E+01  0.45260021290E+03  0.45255533246E+03 0.  0.
      99925    2    3    3    0    0  0.15278025314E+02  0.93779794851E+01 -0.11352785519E+03  0.28691711106E+03  0.26289064297E+03 0.  0.
         25    1    4    4    0    0  0.64268552601E+01 -0.20648524150E+02 -0.22122015633E+02  0.12885867334E+03  0.12509000000E+03 0.  0.
         25    1    4    4    0    0  0.88511700534E+01  0.30026503635E+02 -0.91405839552E+02  0.15805843773E+03  0.12509000000E+03 0.  0.
         25    1    3    3    0    0 -0.15278025314E+02 -0.93779794851E+01  0.10715417667E+03  0.16568310184E+03  0.12509000000E+03 0.  0.
<mgrwt>
<rscale>  2 0.45255533E+03</rscale>
<asrwt>0</asrwt>
<pdfrwt beam="1">  1       21 0.32810775E-01 0.45255533E+03</pdfrwt>
<pdfrwt beam="2">  1       21 0.33748080E-01 0.45255533E+03</pdfrwt>
<totfact> 0.70078967E+04</totfact>
</mgrwt>
</event>
<event>
 7    0  0.4712189E-002  0.4510035E+03  0.7546771E-02  0.1027423E+00
         21   -1    0    0  502  501  0.00000000000E+00  0.00000000000E+00  0.25790065801E+03  0.25790065801E+03  0.00000000000E+00 0.  1.
         21   -1    0    0  501  502 -0.00000000000E+00 -0.00000000000E+00 -0.19717296770E+03  0.19717296770E+03  0.00000000000E+00 0.  1.
      99926    2    1    2    0    0  0.35527136788E-14  0.00000000000E+00  0.60727690312E+02  0.45507362571E+03  0.45100349494E+03 0.  0.
      99925    2    3    3    0    0  0.23765397958E+02  0.99949101904E+02  0.61965791037E+00  0.28240312803E+03  0.26305232489E+03 0.  0.
         25    1    4    4    0    0  0.42855054367E+02  0.79152796543E+02 -0.25319984671E+01  0.15412864757E+03  0.12509000000E+03 0.  0.
         25    1    3    3    0    0 -0.23765397958E+02 -0.99949101904E+02  0.60108032402E+02  0.17267049768E+03  0.12509000000E+03 0.  0.
         25    1    4    4    0    0 -0.19089656409E+02  0.20796305361E+02  0.31516563774E+01  0.12827448046E+03  0.12509000000E+03 0.  0.
<mgrwt>
<rscale>  2 0.45100349E+03</rscale>
<asrwt>0</asrwt>
<pdfrwt beam="1">  1       21 0.37926567E-01 0.45100349E+03</pdfrwt>
<pdfrwt beam="2">  1       21 0.28996025E-01 0.45100349E+03</pdfrwt>
<totfact> 0.70769863E+04</totfact>
</mgrwt>
</event>
<event>
 7    0  0.4712189E-002  0.4566486E+03  0.7546771E-02  0.1025758E+00
         21   -1    0    0  502  501  0.00000000000E+00  0.00000000000E+00  0.28332338441E+02  0.28332338441E+02  0.00000000000E+00 0.  1.
         21   -1    0    0  501  502 -0.00000000000E+00 -0.00000000000E+00 -0.18400168663E+04  0.18400168663E+04  0.00000000000E+00 0.  1.
      99926    2    1    2    0    0  0.00000000000E+00  0.00000000000E+00 -0.18116845278E+04  0.18683492047E+04  0.45664857644E+03 0.  0.
      99925    2    3    3    0    0  0.61474189143E+02  0.83429404440E+02 -0.13400424909E+04  0.13695173086E+04  0.26291489070E+03 0.  0.
         25    1    3    3    0    0 -0.61474189143E+02 -0.83429404440E+02 -0.47164203699E+03  0.49883189614E+03  0.12509000000E+03 0.  0.
         25    1    4    4    0    0  0.14473977109E+02  0.26742685065E+02 -0.80073564127E+03  0.81101772023E+03  0.12509000000E+03 0.  0.
         25    1    4    4    0    0  0.47000212034E+02  0.56686719376E+02 -0.53930684958E+03  0.55849958835E+03  0.12509000000E+03 0.  0.
<mgrwt>
<rscale>  2 0.45664858E+03</rscale>
<asrwt>0</asrwt>
<pdfrwt beam="1">  1       21 0.41665192E-02 0.45664858E+03</pdfrwt>
<pdfrwt beam="2">  1       21 0.27059079E+00 0.45664858E+03</pdfrwt>
<totfact> 0.15777866E+04</totfact>
</mgrwt>
</event>
<event>
 7    0  0.4712189E-002  0.4489124E+03  0.7546771E-02  0.1028047E+00
         21   -1    0    0  502  501  0.00000000000E+00  0.00000000000E+00  0.73526017168E+03  0.73526017168E+03  0.00000000000E+00 0. -1.
         21   -1    0    0  501  502 -0.00000000000E+00 -0.00000000000E+00 -0.68520753689E+02  0.68520753689E+02  0.00000000000E+00 0. -1.
      99926    2    1    2    0    0  0.00000000000E+00  0.14210854715E-13  0.66673941799E+03  0.80378092537E+03  0.44891237952E+03 0.  0.
      99925    2    3    3    0    0  0.15439436226E+02  0.64879416435E+02  0.27095000872E+03  0.38337103079E+03  0.26289108991E+03 0.  0.
         25    1    3    3    0    0 -0.15439436226E+02 -0.64879416435E+02  0.39578940927E+03  0.42040989458E+03  0.12509000000E+03 0.  0.
         25    1    4    4    0    0  0.13434230079E+02  0.72835243314E+02  0.13399295033E+03  0.19770450183E+03  0.12509000000E+03 0.  0.
         25    1    4    4    0    0  0.20052061474E+01 -0.79558268795E+01  0.13695705839E+03  0.18566652896E+03  0.12509000000E+03 0.  0.
<mgrwt>
<rscale>  2 0.44891238E+03</rscale>
<asrwt>0</asrwt>
<pdfrwt beam="1">  1       21 0.10812649E+00 0.44891238E+03</pdfrwt>
<pdfrwt beam="2">  1       21 0.10076582E-01 0.44891238E+03</pdfrwt>
<totfact> 0.49925175E+04</totfact>
</mgrwt>
</event>
<event>
 7    0  0.4712189E-002  0.4420253E+03  0.7546771E-02  0.1030127E+00
         21   -1    0    0  502  501  0.00000000000E+00  0.00000000000E+00  0.34986732654E+02  0.34986732654E+02  0.00000000000E+00 0. -1.
         21   -1    0    0  501  502 -0.00000000000E+00 -0.00000000000E+00 -0.13961458519E+04  0.13961458519E+04  0.00000000000E+00 0. -1.
      99926    2    1    2    0    0  0.00000000000E+00  0.00000000000E+00 -0.13611591193E+04  0.14311325846E+04  0.44202525570E+03 0.  0.
      99925    2    3    3    0    0  0.78144577161E+02  0.37956658483E+02 -0.10307043849E+04  0.10672711790E+04  0.26299991964E+03 0.  0.
         25    1    3    3    0    0 -0.78144577161E+02 -0.37956658483E+02 -0.33045473442E+03  0.36386140557E+03  0.12509000000E+03 0.  0.
         25    1    4    4    0    0  0.22160804787E+02 -0.13228995368E+01 -0.60931766548E+03  0.62242138210E+03  0.12509000000E+03 0.  0.
         25    1    4    4    0    0  0.55983772374E+02  0.39279558020E+02 -0.42138671939E+03  0.44484979693E+03  0.12509000000E+03 0.  0.
<mgrwt>
<rscale>  2 0.44202526E+03</rscale>
<asrwt>0</asrwt>
<pdfrwt beam="1">  1       21 0.51451077E-02 0.44202526E+03</pdfrwt>
<pdfrwt beam="2">  1       21 0.20531557E+00 0.44202526E+03</pdfrwt>
<totfact> 0.28257363E+04</totfact>
</mgrwt>
</event>
<event>
 7    0  0.4712189E-002  0.4517963E+03  0.7546771E-02  0.1027188E+00
         21   -1    0    0  502  501  0.00000000000E+00  0.00000000000E+00  0.10492721974E+03  0.10492721974E+03  0.00000000000E+00 0. -1.
         21   -1    0    0  501  502 -0.00000000000E+00 -0.00000000000E+00 -0.48633696115E+03  0.48633696115E+03  0.00000000000E+00 0. -1.
      99926    2    1    2    0    0  0.00000000000E+00  0.00000000000E+00 -0.38140974141E+03  0.59126418089E+03  0.45179634877E+03 0.  0.
      99925    2    3    3    0    0  0.72544571932E+02 -0.83131560473E+02 -0.25671316407E+03  0.38300877096E+03  0.26195514648E+03 0.  0.
         25    1    3    3    0    0 -0.72544571932E+02  0.83131560473E+02 -0.12469657734E+03  0.20825540993E+03  0.12509000000E+03 0.  0.
         25    1    4    4    0    0  0.39166375784E+02 -0.44400953135E+02 -0.77695677504E+02  0.15871224286E+03  0.12509000000E+03 0.  0.
         25    1    4    4    0    0  0.33378196148E+02 -0.38730607339E+02 -0.17901748656E+03  0.22429652810E+03  0.12509000000E+03 0.  0.
<mgrwt>
<rscale>  2 0.45179635E+03</rscale>
<asrwt>0</asrwt>
<pdfrwt beam="1">  1       21 0.15430473E-01 0.45179635E+03</pdfrwt>
<pdfrwt beam="2">  1       21 0.71520142E-01 0.45179635E+03</pdfrwt>
<totfact> 0.60742613E+04</totfact>
</mgrwt>
</event>
<event>
 7    0  0.4712189E-002  0.4430492E+03  0.7546771E-02  0.1029815E+00
         21   -1    0    0  502  501  0.00000000000E+00  0.00000000000E+00  0.68791960762E+03  0.68791960762E+03  0.00000000000E+00 0.  1.
         21   -1    0    0  501  502 -0.00000000000E+00 -0.00000000000E+00 -0.71335592964E+02  0.71335592964E+02  0.00000000000E+00 0.  1.
      99926    2    1    2    0    0 -0.35527136788E-14  0.00000000000E+00  0.61658401466E+03  0.75925520059E+03  0.44304922129E+03 0.  0.
      99925    2    3    3    0    0  0.30534665510E+02  0.96753968688E+02  0.40099617294E+03  0.49014681750E+03  0.26296820289E+03 0.  0.
         25    1    3    3    0    0 -0.30534665510E+02 -0.96753968688E+02  0.21558784172E+03  0.26910838309E+03  0.12509000000E+03 0.  0.
         25    1    4    4    0    0  0.11082176203E+02  0.30950911055E+02  0.25549129900E+03  0.28636355475E+03  0.12509000000E+03 0.  0.
         25    1    4    4    0    0  0.19452489307E+02  0.65803057633E+02  0.14550487395E+03  0.20378326275E+03  0.12509000000E+03 0.  0.
<mgrwt>
<rscale>  2 0.44304922E+03</rscale>
<asrwt>0</asrwt>
<pdfrwt beam="1">  1       21 0.10116464E+00 0.44304922E+03</pdfrwt>
<pdfrwt beam="2">  1       21 0.10490529E-01 0.44304922E+03</pdfrwt>
<totfact> 0.54758377E+04</totfact>
</mgrwt>
</event>
<event>
 7    0  0.4712189E-002  0.4551347E+03  0.7546771E-02  0.1026202E+00
         21   -1    0    0  502  501  0.00000000000E+00  0.00000000000E+00  0.22591009265E+03  0.22591009265E+03  0.00000000000E+00 0. -1.
         21   -1    0    0  501  502 -0.00000000000E+00 -0.00000000000E+00 -0.22923675046E+03  0.22923675046E+03  0.00000000000E+00 0. -1.
      99926    2    1    2    0    0  0.00000000000E+00  0.00000000000E+00 -0.33266578094E+01  0.45514684311E+03  0.45513468571E+03 0.  0.
      99925    2    3    3    0    0 -0.61495375955E+02  0.94558223489E+02 -0.12765239897E+02  0.28644730599E+03  0.26299461756E+03 0.  0.
         25    1    4    4    0    0 -0.54889840566E+02  0.33692433573E+02 -0.36058781220E+02  0.14524399637E+03  0.12509000000E+03 0.  0.
         25    1    3    3    0    0  0.61495375955E+02 -0.94558223489E+02  0.94385820880E+01  0.16869953712E+03  0.12509000000E+03 0.  0.
         25    1    4    4    0    0 -0.66055353898E+01  0.60865789916E+02  0.23293541323E+02  0.14120330962E+03  0.12509000000E+03 0.  0.
<mgrwt>
<rscale>  2 0.45513469E+03</rscale>
<asrwt>0</asrwt>
<pdfrwt beam="1">  1       21 0.33222072E-01 0.45513469E+03</pdfrwt>
<pdfrwt beam="2">  1       21 0.33711287E-01 0.45513469E+03</pdfrwt>
<totfact> 0.68461432E+04</totfact>
</mgrwt>
</event>
<event>
 7    0  0.4712189E-002  0.4525982E+03  0.7546771E-02  0.1026950E+00
         21   -1    0    0  502  501  0.00000000000E+00  0.00000000000E+00  0.14994510854E+04  0.14994510854E+04  0.00000000000E+00 0. -1.
         21   -1    0    0  501  502 -0.00000000000E+00 -0.00000000000E+00 -0.34153357131E+02  0.34153357131E+02  0.00000000000E+00 0. -1.
      99926    2    1    2    0    0  0.00000000000E+00 -0.71054273576E-14  0.14652977282E+04  0.15336044425E+04  0.45259822545E+03 0.  0.
      99925    2    3    3    0    0 -0.86716595685E+02  0.54674844205E+02  0.78012494213E+03  0.82960276531E+03  0.26293861704E+03 0.  0.
         25    1    4    4    0    0 -0.50097251013E+02 -0.11755376608E+02  0.40324391204E+03  0.42532468084E+03  0.12509000000E+03 0.  0.
         25    1    4    4    0    0 -0.36619344672E+02  0.66430220813E+02  0.37688103009E+03  0.40427808447E+03  0.12509000000E+03 0.  0.
         25    1    3    3    0    0  0.86716595685E+02 -0.54674844205E+02  0.68517278611E+03  0.70400167719E+03  0.12509000000E+03 0.  0.
<mgrwt>
<rscale>  2 0.45259823E+03</rscale>
<asrwt>0</asrwt>
<pdfrwt beam="1">  1       21 0.22050747E+00 0.45259823E+03</pdfrwt>
<pdfrwt beam="2">  1       21 0.50225535E-02 0.45259823E+03</pdfrwt>
<totfact> 0.23400914E+04</totfact>
</mgrwt>
</event>
<event>
 7    0  0.4712189E-002  0.4497873E+03  0.7546771E-02  0.1027785E+00
         21   -1    0    0  502  501  0.00000000000E+00  0.00000000000E+00  0.10056052126E+03  0.10056052126E+03  0.00000000000E+00 0. -1.
         21   -1    0    0  501  502 -0.00000000000E+00 -0.00000000000E+00 -0.50295246091E+03  0.50295246091E+03  0.00000000000E+00 0. -1.
      99926    2    1    2    0    0  0.00000000000E+00 -0.17763568394E-14 -0.40239193966E+03  0.60351298217E+03  0.44978733480E+03 0.  0.
      99925    2    3    3    0    0  0.52388288500E+02  0.11326151909E+02 -0.38058237153E+03  0.46568707803E+03  0.26296140142E+03 0.  0.
         25    1    4    4    0    0  0.44088789258E+02  0.11871798841E+02 -0.25806172862E+03  0.29039305230E+03  0.12509000000E+03 0.  0.
         25    1    4    4    0    0  0.82994992420E+01 -0.54564693203E+00 -0.12252064291E+03  0.17529402573E+03  0.12509000000E+03 0.  0.
         25    1    3    3    0    0 -0.52388288500E+02 -0.11326151909E+02 -0.21809568125E+02  0.13782590414E+03  0.12509000000E+03 0.  0.
<mgrwt>
<rscale>  2 0.44978733E+03</rscale>
<asrwt>0</asrwt>
<pdfrwt beam="1">  1       21 0.14788312E-01 0.44978733E+03</pdfrwt>
<pdfrwt beam="2">  1       21 0.73963597E-01 0.44978733E+03</pdfrwt>
<totfact> 0.60933366E+04</totfact>
</mgrwt>
</event>
<event>
 7    0  0.4712189E-002  0.4467073E+03  0.7546771E-02  0.1028709E+00
         21   -1    0    0  502  501  0.00000000000E+00  0.00000000000E+00  0.43838635371E+03  0.43838635371E+03  0.00000000000E+00 0.  1.
         21   -1    0    0  501  502 -0.00000000000E+00 -0.00000000000E+00 -0.11379655097E+03  0.11379655097E+03  0.00000000000E+00 0.  1.
      99926    2    1    2    0    0  0.00000000000E+00  0.00000000000E+00  0.32458980274E+03  0.55218290467E+03  0.44670730929E+03 0.  0.
      99925    2    3    3    0    0 -0.56951709734E+02  0.67454113421E+02  0.27659705014E+03  0.39173239186E+03  0.26297297205E+03 0.  0.
         25    1    4    4    0    0 -0.48324250823E+02  0.37512122983E+02  0.93194854639E+02  0.16755650277E+03  0.12509000000E+03 0.  0.
         25    1    3    3    0    0  0.56951709734E+02 -0.67454113421E+02  0.47992752606E+02  0.16045051281E+03  0.12509000000E+03 0.  0.
         25    1    4    4    0    0 -0.86274589112E+01  0.29941990438E+02  0.18340219550E+03  0.22417588910E+03  0.12509000000E+03 0.  0.
<mgrwt>
<rscale>  2 0.44670731E+03</rscale>
<asrwt>0</asrwt>
<pdfrwt beam="1">  1       21 0.64468581E-01 0.44670731E+03</pdfrwt>
<pdfrwt beam="2">  1       21 0.16734787E-01 0.44670731E+03</pdfrwt>
<totfact> 0.65943490E+04</totfact>
</mgrwt>
</event>
<event>
 7    0  0.4712189E-002  0.4497878E+03  0.7546771E-02  0.1027785E+00
         21   -1    0    0  502  501  0.00000000000E+00  0.00000000000E+00  0.18090180135E+03  0.18090180135E+03  0.00000000000E+00 0.  1.
         21   -1    0    0  501  502 -0.00000000000E+00 -0.00000000000E+00 -0.27958404019E+03  0.27958404019E+03  0.00000000000E+00 0.  1.
      99926    2    1    2    0    0  0.00000000000E+00 -0.71054273576E-14 -0.98682238845E+02  0.46048584154E+03  0.44978775661E+03 0.  0.
      99925    2    3    3    0    0  0.54434544179E+02  0.59411362497E+02  0.11348350082E+02  0.27542620739E+03  0.26313111004E+03 0.  0.
         25    1    3    3    0    0 -0.54434544179E+02 -0.59411362497E+02 -0.11003058893E+03  0.18505963415E+03  0.12509000000E+03 0.  0.
         25    1    4    4    0    0 -0.17583463871E+01  0.45937407698E+02  0.29348929896E+02  0.13646320015E+03  0.12509000000E+03 0.  0.
         25    1    4    4    0    0  0.56192890566E+02  0.13473954799E+02 -0.18000579813E+02  0.13896300724E+03  0.12509000000E+03 0.  0.
<mgrwt>
<rscale>  2 0.44978776E+03</rscale>
<asrwt>0</asrwt>
<pdfrwt beam="1">  1       21 0.26603206E-01 0.44978776E+03</pdfrwt>
<pdfrwt beam="2">  1       21 0.41115300E-01 0.44978776E+03</pdfrwt>
<totfact> 0.71042404E+04</totfact>
</mgrwt>
</event>
<event>
 7    0  0.4712189E-002  0.4224110E+03  0.7546771E-02  0.1036284E+00
         21   -1    0    0  502  501  0.00000000000E+00  0.00000000000E+00  0.20054137928E+04  0.20054137928E+04  0.00000000000E+00 0. -1.
         21   -1    0    0  501  502 -0.00000000000E+00 -0.00000000000E+00 -0.22243670101E+02  0.22243670101E+02  0.00000000000E+00 0. -1.
      99926    2    1    2    0    0  0.17763568394E-14  0.00000000000E+00  0.19831701227E+04  0.20276574629E+04  0.42241099807E+03 0.  0.
      99925    2    3    3    0    0 -0.33825745907E+01 -0.78060373637E+02  0.12860292725E+04  0.13150862476E+04  0.26358240682E+03 0.  0.
         25    1    4    4    0    0  0.30634232069E+02 -0.37978073805E+02  0.76411505645E+03  0.77582222052E+03  0.12509000000E+03 0.  0.
         25    1    4    4    0    0 -0.34016806660E+02 -0.40082299832E+02  0.52191421603E+03  0.53926402706E+03  0.12509000000E+03 0.  0.
         25    1    3    3    0    0  0.33825745907E+01  0.78060373637E+02  0.69714085022E+03  0.71257121531E+03  0.12509000000E+03 0.  0.
<mgrwt>
<rscale>  2 0.42241100E+03</rscale>
<asrwt>0</asrwt>
<pdfrwt beam="1">  1       21 0.29491367E+00 0.42241100E+03</pdfrwt>
<pdfrwt beam="2">  1       21 0.32711293E-02 0.42241100E+03</pdfrwt>
<totfact> 0.17227094E+04</totfact>
</mgrwt>
</event>
<event>
 7    0  0.4712189E-002  0.4104229E+03  0.7546771E-02  0.1040229E+00
         21   -1    0    0  502  501  0.00000000000E+00  0.00000000000E+00  0.11353656032E+03  0.11353656032E+03  0.00000000000E+00 0.  1.
         21   -1    0    0  501  502 -0.00000000000E+00 -0.00000000000E+00 -0.37090897641E+03  0.37090897641E+03  0.00000000000E+00 0.  1.
      99926    2    1    2    0    0 -0.35527136788E-14  0.71054273576E-14 -0.25737241609E+03  0.48444553673E+03  0.41042285205E+03 0.  0.
      99925    2    3    3    0    0 -0.30210183571E+02  0.47768053312E+02 -0.20182163045E+03  0.33636501811E+03  0.26308746223E+03 0.  0.
         25    1    4    4    0    0 -0.13159541732E+02  0.12258563847E+02 -0.50424519282E+02  0.13606463968E+03  0.12509000000E+03 0.  0.
         25    1    4    4    0    0 -0.17050641839E+02  0.35509489466E+02 -0.15139711116E+03  0.20030037843E+03  0.12509000000E+03 0.  0.
         25    1    3    3    0    0  0.30210183571E+02 -0.47768053312E+02 -0.55550785649E+02  0.14808051862E+03  0.12509000000E+03 0.  0.
<mgrwt>
<rscale>  2 0.41042285E+03</rscale>
<asrwt>0</asrwt>
<pdfrwt beam="1">  1       21 0.16696553E-01 0.41042285E+03</pdfrwt>
<pdfrwt beam="2">  1       21 0.54545438E-01 0.41042285E+03</pdfrwt>
<totfact> 0.96133643E+04</totfact>
</mgrwt>
</event>
<event>
 7    0  0.4712189E-002  0.4527193E+03  0.7546771E-02  0.1026914E+00
         21   -1    0    0  502  501  0.00000000000E+00  0.00000000000E+00  0.11460278914E+03  0.11460278914E+03  0.00000000000E+00 0.  1.
         21   -1    0    0  501  502 -0.00000000000E+00 -0.00000000000E+00 -0.44709816337E+03  0.44709816337E+03  0.00000000000E+00 0.  1.
      99926    2    1    2    0    0  0.00000000000E+00 -0.14210854715E-13 -0.33249537423E+03  0.56170095251E+03  0.45271932383E+03 0.  0.
      99925    2    3    3    0    0 -0.70098592347E+02 -0.83966486945E+02 -0.23351193660E+03  0.36828582228E+03  0.26294949853E+03 0.  0.
         25    1    4    4    0    0 -0.53839391896E+02 -0.80769801004E+02 -0.13795683719E+03  0.21000485209E+03  0.12509000000E+03 0.  0.
         25    1    4    4    0    0 -0.16259200451E+02 -0.31966859410E+01 -0.95555099405E+02  0.15828097018E+03  0.12509000000E+03 0.  0.
         25    1    3    3    0    0  0.70098592347E+02  0.83966486945E+02 -0.98983437636E+02  0.19341513024E+03  0.12509000000E+03 0.  0.
<mgrwt>
<rscale>  2 0.45271932E+03</rscale>
<asrwt>0</asrwt>
<pdfrwt beam="1">  1       21 0.16853351E-01 0.45271932E+03</pdfrwt>
<pdfrwt beam="2">  1       21 0.65749730E-01 0.45271932E+03</pdfrwt>
<totfact> 0.62214578E+04</totfact>
</mgrwt>
</event>
<event>
 7    0  0.4712189E-002  0.4546250E+03  0.7546771E-02  0.1026352E+00
         21   -1    0    0  502  501  0.00000000000E+00  0.00000000000E+00  0.17979997691E+04  0.17979997691E+04  0.00000000000E+00 0.  1.
         21   -1    0    0  501  502 -0.00000000000E+00 -0.00000000000E+00 -0.28738027265E+02  0.28738027265E+02  0.00000000000E+00 0.  1.
      99926    2    1    2    0    0  0.00000000000E+00 -0.17763568394E-14  0.17692617418E+04  0.18267377963E+04  0.45462497241E+03 0.  0.
      99925    2    3    3    0    0 -0.72522344340E+02 -0.11344526736E+02  0.76863952095E+03  0.81565890441E+03  0.26287743622E+03 0.  0.
         25    1    4    4    0    0 -0.48736392117E+02  0.17330106110E+02  0.48304734013E+03  0.50165507014E+03  0.12509000000E+03 0.  0.
         25    1    3    3    0    0  0.72522344340E+02  0.11344526736E+02  0.10006222208E+04  0.10110788919E+04  0.12509000000E+03 0.  0.
         25    1    4    4    0    0 -0.23785952223E+02 -0.28674632846E+02  0.28559218082E+03  0.31400383427E+03  0.12509000000E+03 0.  0.
<mgrwt>
<rscale>  2 0.45462497E+03</rscale>
<asrwt>0</asrwt>
<pdfrwt beam="1">  1       21 0.26441166E+00 0.45462497E+03</pdfrwt>
<pdfrwt beam="2">  1       21 0.42261817E-02 0.45462497E+03</pdfrwt>
<totfact> 0.16800217E+04</totfact>
</mgrwt>
</event>
<event>
 7    0  0.4712189E-002  0.4464995E+03  0.7546771E-02  0.1028771E+00
         21   -1    0    0  502  501  0.00000000000E+00  0.00000000000E+00  0.70226478723E+03  0.70226478723E+03  0.00000000000E+00 0.  1.
         21   -1    0    0  501  502 -0.00000000000E+00 -0.00000000000E+00 -0.70971014349E+02  0.70971014349E+02  0.00000000000E+00 0.  1.
      99926    2    1    2    0    0  0.17763568394E-14 -0.35527136788E-14  0.63129377288E+03  0.77323580158E+03  0.44649947051E+03 0.  0.
      99925    2    3    3    0    0  0.12323575074E+02 -0.19440692828E+02  0.22478728748E+03  0.34729585063E+03  0.26373333542E+03 0.  0.
         25    1    3    3    0    0 -0.12323575074E+02  0.19440692828E+02  0.40650648540E+03  0.42593995095E+03  0.12509000000E+03 0.  0.
         25    1    4    4    0    0  0.10067069598E+02 -0.15556483770E+02  0.16687968534E+03  0.20937929114E+03  0.12509000000E+03 0.  0.
         25    1    4    4    0    0  0.22565054755E+01 -0.38842090575E+01  0.57907602140E+02  0.13791655949E+03  0.12509000000E+03 0.  0.
<mgrwt>
<rscale>  2 0.44649947E+03</rscale>
<asrwt>0</asrwt>
<pdfrwt beam="1">  1       21 0.10327423E+00 0.44649947E+03</pdfrwt>
<pdfrwt beam="2">  1       21 0.10436914E-01 0.44649947E+03</pdfrwt>
<totfact> 0.52503391E+04</totfact>
</mgrwt>
</event>
<event>
 7    0  0.4712189E-002  0.4525139E+03  0.7546771E-02  0.1026975E+00
         21   -1    0    0  502  501  0.00000000000E+00  0.00000000000E+00  0.11169299546E+04  0.11169299546E+04  0.00000000000E+00 0.  1.
         21   -1    0    0  501  502 -0.00000000000E+00 -0.00000000000E+00 -0.45832958521E+02  0.45832958521E+02  0.00000000000E+00 0.  1.
      99926    2    1    2    0    0  0.00000000000E+00  0.00000000000E+00  0.10710969961E+04  0.11627629132E+04  0.45251388612E+03 0.  0.
      99925    2    3    3    0    0  0.10239071861E+03 -0.36327866473E+02  0.61964270906E+03  0.68186577807E+03  0.26302144260E+03 0.  0.
         25    1    3    3    0    0 -0.10239071861E+03  0.36327866473E+02  0.45145428706E+03  0.48089713510E+03  0.12509000000E+03 0.  0.
         25    1    4    4    0    0  0.52829960591E+02 -0.91240250341E+01  0.21384620058E+03  0.25347969972E+03  0.12509000000E+03 0.  0.
         25    1    4    4    0    0  0.49560758015E+02 -0.27203841439E+02  0.40579650848E+03  0.42838607835E+03  0.12509000000E+03 0.  0.
<mgrwt>
<rscale>  2 0.45251389E+03</rscale>
<asrwt>0</asrwt>
<pdfrwt beam="1">  1       21 0.16425439E+00 0.45251389E+03</pdfrwt>
<pdfrwt beam="2">  1       21 0.67401416E-02 0.45251389E+03</pdfrwt>
<totfact> 0.34013284E+04</totfact>
</mgrwt>
</event>
<event>
 7    0  0.4712189E-002  0.4607326E+03  0.7546771E-02  0.1024569E+00
         21   -1    0    0  502  501  0.00000000000E+00  0.00000000000E+00  0.13002066998E+03  0.13002066998E+03  0.00000000000E+00 0. -1.
         21   -1    0    0  501  502 -0.00000000000E+00 -0.00000000000E+00 -0.40815527990E+03  0.40815527990E+03  0.00000000000E+00 0. -1.
      99926    2    1    2    0    0  0.14210854715E-13  0.00000000000E+00 -0.27813460992E+03  0.53817594988E+03  0.46073255995E+03 0.  0.
      99925    2    3    3    0    0 -0.75385392604E+02 -0.76014596162E+02 -0.23324771745E+03  0.36751981181E+03  0.26306869469E+03 0.  0.
         25    1    4    4    0    0  0.27479467177E+01 -0.27204321664E+02 -0.93345607410E+02  0.15845673495E+03  0.12509000000E+03 0.  0.
         25    1    3    3    0    0  0.75385392604E+02  0.76014596162E+02 -0.44886892466E+02  0.17065613808E+03  0.12509000000E+03 0.  0.
         25    1    4    4    0    0 -0.78133339321E+02 -0.48810274498E+02 -0.13990211004E+03  0.20906307685E+03  0.12509000000E+03 0.  0.
<mgrwt>
<rscale>  2 0.46073256E+03</rscale>
<asrwt>0</asrwt>
<pdfrwt beam="1">  1       21 0.19120686E-01 0.46073256E+03</pdfrwt>
<pdfrwt beam="2">  1       21 0.60022837E-01 0.46073256E+03</pdfrwt>
<totfact> 0.59888983E+04</totfact>
</mgrwt>
</event>
<event>
 7    0  0.4712189E-002  0.4620258E+03  0.7546771E-02  0.1024195E+00
         21   -1    0    0  502  501  0.00000000000E+00  0.00000000000E+00  0.15138585789E+03  0.15138585789E+03  0.00000000000E+00 0. -1.
         21   -1    0    0  501  502 -0.00000000000E+00 -0.00000000000E+00 -0.35252282790E+03  0.35252282790E+03  0.00000000000E+00 0. -1.
      99926    2    1    2    0    0  0.00000000000E+00 -0.14210854715E-13 -0.20113697001E+03  0.50390868579E+03  0.46202584658E+03 0.  0.
      99925    2    3    3    0    0  0.60032290452E+02 -0.10262790812E+03 -0.13914034471E+03  0.32053078889E+03  0.26314176347E+03 0.  0.
         25    1    4    4    0    0  0.50390547118E+01 -0.21153351849E+02 -0.40176735555E+02  0.13317107248E+03  0.12509000000E+03 0.  0.
         25    1    3    3    0    0 -0.60032290452E+02  0.10262790812E+03 -0.61996625305E+02  0.18337789690E+03  0.12509000000E+03 0.  0.
         25    1    4    4    0    0  0.54993235740E+02 -0.81474556269E+02 -0.98963609154E+02  0.18735971641E+03  0.12509000000E+03 0.  0.
<mgrwt>
<rscale>  2 0.46202585E+03</rscale>
<asrwt>0</asrwt>
<pdfrwt beam="1">  1       21 0.22262626E-01 0.46202585E+03</pdfrwt>
<pdfrwt beam="2">  1       21 0.51841593E-01 0.46202585E+03</pdfrwt>
<totfact> 0.61495029E+04</totfact>
</mgrwt>
</event>
<event>
 7    0  0.4712189E-002  0.4530861E+03  0.7546771E-02  0.1026806E+00
         21   -1    0    0  502  501  0.00000000000E+00  0.00000000000E+00  0.59981858183E+03  0.59981858183E+03  0.00000000000E+00 0. -1.
         21   -1    0    0  501  502 -0.00000000000E+00 -0.00000000000E+00 -0.85562119819E+02  0.85562119819E+02  0.00000000000E+00 0. -1.
      99926    2    1    2    0    0 -0.71054273576E-14 -0.35527136788E-14  0.51425646201E+03  0.68538070165E+03  0.45308608175E+03 0.  0.
      99925    2    3    3    0    0  0.34101872776E+02  0.13092752990E+02  0.16503599641E+03  0.31263843197E+03  0.26300485001E+03 0.  0.
         25    1    3    3    0    0 -0.34101872776E+02 -0.13092752990E+02  0.34922046561E+03  0.37274226968E+03  0.12509000000E+03 0.  0.
         25    1    4    4    0    0  0.42312751696E+02 -0.16551305361E+02  0.10957274503E+03  0.17238912152E+03  0.12509000000E+03 0.  0.
         25    1    4    4    0    0 -0.82108789196E+01  0.29644058351E+02  0.55463251372E+02  0.14024931045E+03  0.12509000000E+03 0.  0.
<mgrwt>
<rscale>  2 0.45308608E+03</rscale>
<asrwt>0</asrwt>
<pdfrwt beam="1">  1       21 0.88208613E-01 0.45308608E+03</pdfrwt>
<pdfrwt beam="2">  1       21 0.12582665E-01 0.45308608E+03</pdfrwt>
<totfact> 0.54521018E+04</totfact>
</mgrwt>
</event>
<event>
 7    0  0.4712189E-002  0.4769280E+03  0.7546771E-02  0.1019983E+00
         21   -1    0    0  502  501  0.00000000000E+00  0.00000000000E+00  0.41883609178E+03  0.41883609178E+03  0.00000000000E+00 0.  1.
         21   -1    0    0  501  502 -0.00000000000E+00 -0.00000000000E+00 -0.13576929898E+03  0.13576929898E+03  0.00000000000E+00 0.  1.
      99926    2    1    2    0    0 -0.14210854715E-13 -0.71054273576E-14  0.28306679279E+03  0.55460539076E+03  0.47692801373E+03 0.  0.
      99925    2    3    3    0    0  0.11832202084E+03  0.58777393480E+02  0.18950205524E+03  0.35001616618E+03  0.26295513886E+03 0.  0.
         25    1    4    4    0    0  0.31908418687E+02  0.12063938205E+02  0.11918915701E+03  0.17611714578E+03  0.12509000000E+03 0.  0.
         25    1    4    4    0    0  0.86413602150E+02  0.46713455276E+02  0.70312898222E+02  0.17389902040E+03  0.12509000000E+03 0.  0.
         25    1    3    3    0    0 -0.11832202084E+03 -0.58777393480E+02  0.93564737557E+02  0.20458922458E+03  0.12509000000E+03 0.  0.
<mgrwt>
<rscale>  2 0.47692801E+03</rscale>
<asrwt>0</asrwt>
<pdfrwt beam="1">  1       21 0.61593543E-01 0.47692801E+03</pdfrwt>
<pdfrwt beam="2">  1       21 0.19966074E-01 0.47692801E+03</pdfrwt>
<totfact> 0.51942004E+04</totfact>
</mgrwt>
</event>
<event>
 7    0  0.4712189E-002  0.4448375E+03  0.7546771E-02  0.1029273E+00
         21   -1    0    0  502  501  0.00000000000E+00  0.00000000000E+00  0.96245985270E+03  0.96245985270E+03  0.00000000000E+00 0.  1.
         21   -1    0    0  501  502 -0.00000000000E+00 -0.00000000000E+00 -0.51399646456E+02  0.51399646456E+02  0.00000000000E+00 0.  1.
      99926    2    1    2    0    0  0.00000000000E+00  0.00000000000E+00  0.91106020624E+03  0.10138594992E+04  0.44483748114E+03 0.  0.
      99925    2    3    3    0    0 -0.35999927957E+02 -0.14672466201E+02  0.36038826810E+03  0.44782207316E+03  0.26297077659E+03 0.  0.
         25    1    4    4    0    0 -0.12127474183E+02  0.32654184761E+02  0.16934407676E+03  0.21339703804E+03  0.12509000000E+03 0.  0.
         25    1    3    3    0    0  0.35999927957E+02  0.14672466201E+02  0.55067193814E+03  0.56603742600E+03  0.12509000000E+03 0.  0.
         25    1    4    4    0    0 -0.23872453775E+02 -0.47326650962E+02  0.19104419135E+03  0.23442503511E+03  0.12509000000E+03 0.  0.
<mgrwt>
<rscale>  2 0.44483748E+03</rscale>
<asrwt>0</asrwt>
<pdfrwt beam="1">  1       21 0.14153820E+00 0.44483748E+03</pdfrwt>
<pdfrwt beam="2">  1       21 0.75587722E-02 0.44483748E+03</pdfrwt>
<totfact> 0.41856027E+04</totfact>
</mgrwt>
</event>
<event>
 7    0  0.4712189E-002  0.4471091E+03  0.7546771E-02  0.1028588E+00
         21   -1    0    0  502  501  0.00000000000E+00  0.00000000000E+00  0.35197237661E+02  0.35197237661E+02  0.00000000000E+00 0. -1.
         21   -1    0    0  501  502 -0.00000000000E+00 -0.00000000000E+00 -0.14199020234E+04  0.14199020234E+04  0.00000000000E+00 0. -1.
      99926    2    1    2    0    0  0.71054273576E-14  0.14210854715E-13 -0.13847047858E+04  0.14550992611E+04  0.44710906488E+03 0.  0.
      99925    2    3    3    0    0 -0.41434164994E+02 -0.79262358628E+02 -0.10606726261E+04  0.10964299703E+04  0.26293145228E+03 0.  0.
         25    1    4    4    0    0 -0.27689474688E+02  0.95105447842E+00 -0.51835953172E+03  0.53395854122E+03  0.12509000000E+03 0.  0.
         25    1    4    4    0    0 -0.13744690306E+02 -0.80213413106E+02 -0.54231309435E+03  0.56247142910E+03  0.12509000000E+03 0.  0.
         25    1    3    3    0    0  0.41434164994E+02  0.79262358628E+02 -0.32403215972E+03  0.35866929079E+03  0.12509000000E+03 0.  0.
<mgrwt>
<rscale>  2 0.44710906E+03</rscale>
<asrwt>0</asrwt>
<pdfrwt beam="1">  1       21 0.51760641E-02 0.44710906E+03</pdfrwt>
<pdfrwt beam="2">  1       21 0.20880913E+00 0.44710906E+03</pdfrwt>
<totfact> 0.26486963E+04</totfact>
</mgrwt>
</event>
<event>
 7    0  0.4712189E-002  0.4699352E+03  0.7546771E-02  0.1021938E+00
         21   -1    0    0  502  501  0.00000000000E+00  0.00000000000E+00  0.26759318214E+03  0.26759318214E+03  0.00000000000E+00 0. -1.
         21   -1    0    0  501  502 -0.00000000000E+00 -0.00000000000E+00 -0.20631984084E+03  0.20631984084E+03  0.00000000000E+00 0. -1.
      99926    2    1    2    0    0  0.35527136788E-14  0.00000000000E+00  0.61273341301E+02  0.47391302298E+03  0.46993524128E+03 0.  0.
      99925    2    3    3    0    0  0.19867918052E+02 -0.12498383502E+03  0.31532482150E+02  0.29350315633E+03  0.26293366494E+03 0.  0.
         25    1    4    4    0    0  0.98908886876E+01 -0.82993418293E+02  0.52879129041E+02  0.15946613292E+03  0.12509000000E+03 0.  0.
         25    1    4    4    0    0  0.99770293643E+01 -0.41990416726E+02 -0.21346646891E+02  0.13403702341E+03  0.12509000000E+03 0.  0.
         25    1    3    3    0    0 -0.19867918052E+02  0.12498383502E+03  0.29740859151E+02  0.18040986666E+03  0.12509000000E+03 0.  0.
<mgrwt>
<rscale>  2 0.46993524E+03</rscale>
<asrwt>0</asrwt>
<pdfrwt beam="1">  1       21 0.39351938E-01 0.46993524E+03</pdfrwt>
<pdfrwt beam="2">  1       21 0.30341153E-01 0.46993524E+03</pdfrwt>
<totfact> 0.59739474E+04</totfact>
</mgrwt>
</event>
<event>
 7    0  0.4712189E-002  0.4533216E+03  0.7546771E-02  0.1026736E+00
         21   -1    0    0  502  501  0.00000000000E+00  0.00000000000E+00  0.36878795031E+02  0.36878795031E+02  0.00000000000E+00 0.  1.
         21   -1    0    0  501  502 -0.00000000000E+00 -0.00000000000E+00 -0.13930799833E+04  0.13930799833E+04  0.00000000000E+00 0.  1.
      99926    2    1    2    0    0  0.00000000000E+00  0.00000000000E+00 -0.13562011883E+04  0.14299587783E+04  0.45332156872E+03 0.  0.
      99925    2    3    3    0    0  0.67062615108E+02  0.13617649963E+02 -0.57118205588E+03  0.63209576938E+03  0.26194137889E+03 0.  0.
         25    1    4    4    0    0  0.60419378006E+01  0.32149352921E+01 -0.33630407288E+03  0.35887989406E+03  0.12509000000E+03 0.  0.
         25    1    3    3    0    0 -0.67062615108E+02 -0.13617649963E+02 -0.78501913240E+03  0.79786300896E+03  0.12509000000E+03 0.  0.
         25    1    4    4    0    0  0.61020677308E+02  0.10402714671E+02 -0.23487798300E+03  0.27321587533E+03  0.12509000000E+03 0.  0.
<mgrwt>
<rscale>  2 0.45332157E+03</rscale>
<asrwt>0</asrwt>
<pdfrwt beam="1">  1       21 0.54233513E-02 0.45332157E+03</pdfrwt>
<pdfrwt beam="2">  1       21 0.20486474E+00 0.45332157E+03</pdfrwt>
<totfact> 0.25880375E+04</totfact>
</mgrwt>
</event>
<event>
 7    0  0.4712189E-002  0.4200180E+03  0.7546771E-02  0.1037060E+00
         21   -1    0    0  502  501  0.00000000000E+00  0.00000000000E+00  0.13089898653E+03  0.13089898653E+03  0.00000000000E+00 0.  1.
         21   -1    0    0  501  502 -0.00000000000E+00 -0.00000000000E+00 -0.33692980189E+03  0.33692980189E+03  0.00000000000E+00 0.  1.
      99926    2    1    2    0    0  0.00000000000E+00  0.00000000000E+00 -0.20603081536E+03  0.46782878842E+03  0.42001795008E+03 0.  0.
      99925    2    3    3    0    0  0.62352186625E+02 -0.25186552574E+02 -0.94911617769E+02  0.28750368816E+03  0.26292203771E+03 0.  0.
         25    1    4    4    0    0  0.15129207633E+02 -0.37225704625E+02 -0.17527124375E+02  0.13254944058E+03  0.12509000000E+03 0.  0.
         25    1    4    4    0    0  0.47222978992E+02  0.12039152051E+02 -0.77384493394E+02  0.15495424759E+03  0.12509000000E+03 0.  0.
         25    1    3    3    0    0 -0.62352186625E+02  0.25186552574E+02 -0.11111919760E+03  0.18032510025E+03  0.12509000000E+03 0.  0.
<mgrwt>
<rscale>  2 0.42001795E+03</rscale>
<asrwt>0</asrwt>
<pdfrwt beam="1">  1       21 0.19249851E-01 0.42001795E+03</pdfrwt>
<pdfrwt beam="2">  1       21 0.49548500E-01 0.42001795E+03</pdfrwt>
<totfact> 0.90146882E+04</totfact>
</mgrwt>
</event>
<event>
 7    0  0.4712189E-002  0.4591952E+03  0.7546771E-02  0.1025015E+00
         21   -1    0    0  502  501  0.00000000000E+00  0.00000000000E+00  0.15697491989E+04  0.15697491989E+04  0.00000000000E+00 0.  1.
         21   -1    0    0  501  502 -0.00000000000E+00 -0.00000000000E+00 -0.33581829360E+02  0.33581829360E+02  0.00000000000E+00 0.  1.
      99926    2    1    2    0    0  0.00000000000E+00  0.00000000000E+00  0.15361673695E+04  0.16033310282E+04  0.45919516432E+03 0.  0.
      99925    2    3    3    0    0 -0.18870868820E+01 -0.10568330553E+03  0.11380279491E+04  0.11728254785E+04  0.26313393534E+03 0.  0.
         25    1    4    4    0    0  0.31143993780E+01 -0.92192857637E+01  0.49184020862E+03  0.50759136481E+03  0.12509000000E+03 0.  0.
         25    1    4    4    0    0 -0.50014862599E+01 -0.96464019762E+02  0.64618774047E+03  0.66523411368E+03  0.12509000000E+03 0.  0.
         25    1    3    3    0    0  0.18870868820E+01  0.10568330553E+03  0.39813942043E+03  0.43050554975E+03  0.12509000000E+03 0.  0.
<mgrwt>
<rscale>  2 0.45919516E+03</rscale>
<asrwt>0</asrwt>
<pdfrwt beam="1">  1       21 0.23084542E+00 0.45919516E+03</pdfrwt>
<pdfrwt beam="2">  1       21 0.49385054E-02 0.45919516E+03</pdfrwt>
<totfact> 0.20672968E+04</totfact>
</mgrwt>
</event>
<event>
 7    0  0.4712189E-002  0.4533950E+03  0.7546771E-02  0.1026714E+00
         21   -1    0    0  502  501  0.00000000000E+00  0.00000000000E+00  0.52399246360E+03  0.52399246360E+03  0.00000000000E+00 0. -1.
         21   -1    0    0  501  502 -0.00000000000E+00 -0.00000000000E+00 -0.98077265560E+02  0.98077265560E+02  0.00000000000E+00 0. -1.
      99926    2    1    2    0    0  0.00000000000E+00  0.00000000000E+00  0.42591519805E+03  0.62206972916E+03  0.45339496250E+03 0.  0.
      99925    2    3    3    0    0  0.51649431075E+02  0.60504518212E+02  0.16094314145E+03  0.31844799191E+03  0.26301704948E+03 0.  0.
         25    1    3    3    0    0 -0.51649431075E+02 -0.60504518212E+02  0.26497205660E+03  0.30362173725E+03  0.12509000000E+03 0.  0.
         25    1    4    4    0    0  0.39307495059E+02  0.39228646853E+02  0.39674534595E+02  0.14249751821E+03  0.12509000000E+03 0.  0.
         25    1    4    4    0    0  0.12341936016E+02  0.21275871360E+02  0.12126860685E+03  0.17595047370E+03  0.12509000000E+03 0.  0.
<mgrwt>
<rscale>  2 0.45339496E+03</rscale>
<asrwt>0</asrwt>
<pdfrwt beam="1">  1       21 0.77057714E-01 0.45339496E+03</pdfrwt>
<pdfrwt beam="2">  1       21 0.14423128E-01 0.45339496E+03</pdfrwt>
<totfact> 0.58072451E+04</totfact>
</mgrwt>
</event>
<event>
 7    0  0.4712189E-002  0.4624077E+03  0.7546771E-02  0.1024085E+00
         21   -1    0    0  502  501  0.00000000000E+00  0.00000000000E+00  0.12367778075E+03  0.12367778075E+03  0.00000000000E+00 0.  1.
         21   -1    0    0  501  502 -0.00000000000E+00 -0.00000000000E+00 -0.43221366458E+03  0.43221366458E+03  0.00000000000E+00 0.  1.
      99926    2    1    2    0    0 -0.14210854715E-13  0.00000000000E+00 -0.30853588383E+03  0.55589144533E+03  0.46240772851E+03 0.  0.
      99925    2    3    3    0    0 -0.83614741065E+02 -0.16432604410E+02 -0.91964750170E+02  0.29167180290E+03  0.26335046976E+03 0.  0.
         25    1    3    3    0    0  0.83614741065E+02  0.16432604410E+02 -0.21657113366E+03  0.26421964243E+03  0.12509000000E+03 0.  0.
         25    1    4    4    0    0 -0.31702341956E+02 -0.80378659312E+01 -0.87089610976E+02  0.15589019922E+03  0.12509000000E+03 0.  0.
         25    1    4    4    0    0 -0.51912399109E+02 -0.83947384792E+01 -0.48751391944E+01  0.13578160368E+03  0.12509000000E+03 0.  0.
<mgrwt>
<rscale>  2 0.46240773E+03</rscale>
<asrwt>0</asrwt>
<pdfrwt beam="1">  1       21 0.18187909E-01 0.46240773E+03</pdfrwt>
<pdfrwt beam="2">  1       21 0.63560832E-01 0.46240773E+03</pdfrwt>
<totfact> 0.58004259E+04</totfact>
</mgrwt>
</event>
<event>
 7    0  0.4712189E-002  0.4597176E+03  0.7546771E-02  0.1024863E+00
         21   -1    0    0  502  501  0.00000000000E+00  0.00000000000E+00  0.44616827077E+02  0.44616827077E+02  0.00000000000E+00 0. -1.
         21   -1    0    0  501  502 -0.00000000000E+00 -0.00000000000E+00 -0.11841962348E+04  0.11841962348E+04  0.00000000000E+00 0. -1.
      99926    2    1    2    0    0  0.00000000000E+00 -0.22204460493E-15 -0.11395794077E+04  0.12288130618E+04  0.45971764653E+03 0.  0.
      99925    2    3    3    0    0  0.11593838061E+03  0.17818497000E+01 -0.76505704843E+03  0.81728008774E+03  0.26303910619E+03 0.  0.
         25    1    4    4    0    0  0.78552497472E+02  0.12531159059E+02 -0.30794756841E+03  0.34177000716E+03  0.12509000000E+03 0.  0.
         25    1    3    3    0    0 -0.11593838061E+03 -0.17818497000E+01 -0.37452235926E+03  0.41153297410E+03  0.12509000000E+03 0.  0.
         25    1    4    4    0    0  0.37385883137E+02 -0.10749309359E+02 -0.45710948002E+03  0.47551008058E+03  0.12509000000E+03 0.  0.
<mgrwt>
<rscale>  2 0.45971765E+03</rscale>
<asrwt>0</asrwt>
<pdfrwt beam="1">  1       21 0.65612985E-02 0.45971765E+03</pdfrwt>
<pdfrwt beam="2">  1       21 0.17414649E+00 0.45971765E+03</pdfrwt>
<totfact> 0.30132105E+04</totfact>
</mgrwt>
</event>
<event>
 7    0  0.4712189E-002  0.4566772E+03  0.7546771E-02  0.1025749E+00
         21   -1    0    0  502  501  0.00000000000E+00  0.00000000000E+00  0.95976763139E+03  0.95976763139E+03  0.00000000000E+00 0.  1.
         21   -1    0    0  501  502 -0.00000000000E+00 -0.00000000000E+00 -0.54324114209E+02  0.54324114209E+02  0.00000000000E+00 0.  1.
      99926    2    1    2    0    0  0.00000000000E+00  0.00000000000E+00  0.90544351718E+03  0.10140917456E+04  0.45667724455E+03 0.  0.
      99925    2    3    3    0    0 -0.10069776412E+03  0.54022110584E+02  0.59237284224E+03  0.65811536473E+03  0.26296733815E+03 0.  0.
         25    1    4    4    0    0 -0.83781075499E+02  0.52717699824E+02  0.35731305174E+03  0.39130365386E+03  0.12509000000E+03 0.  0.
         25    1    3    3    0    0  0.10069776412E+03 -0.54022110584E+02  0.31307067494E+03  0.35597638087E+03  0.12509000000E+03 0.  0.
         25    1    4    4    0    0 -0.16916688622E+02  0.13044107600E+01  0.23505979050E+03  0.26681171086E+03  0.12509000000E+03 0.  0.
<mgrwt>
<rscale>  2 0.45667724E+03</rscale>
<asrwt>0</asrwt>
<pdfrwt beam="1">  1       21 0.14114229E+00 0.45667724E+03</pdfrwt>
<pdfrwt beam="2">  1       21 0.79888409E-02 0.45667724E+03</pdfrwt>
<totfact> 0.38121396E+04</totfact>
</mgrwt>
</event>
<event>
 7    0  0.4712189E-002  0.4405814E+03  0.7546771E-02  0.1030569E+00
         21   -1    0    0  502  501  0.00000000000E+00  0.00000000000E+00  0.40807917688E+03  0.40807917688E+03  0.00000000000E+00 0.  1.
         21   -1    0    0  501  502 -0.00000000000E+00 -0.00000000000E+00 -0.11891810474E+03  0.11891810474E+03  0.00000000000E+00 0.  1.
      99926    2    1    2    0    0 -0.14210854715E-13  0.00000000000E+00  0.28916107214E+03  0.52699728161E+03  0.44058144444E+03 0.  0.
      99925    2    3    3    0    0  0.64770994016E+02  0.61898212775E+02  0.13416936425E+03  0.30860175046E+03  0.26307214158E+03 0.  0.
         25    1    4    4    0    0  0.19112414405E+01  0.44965220601E+02  0.91085032237E+02  0.16115059760E+03  0.12509000000E+03 0.  0.
         25    1    3    3    0    0 -0.64770994016E+02 -0.61898212775E+02  0.15499170789E+03  0.21839553115E+03  0.12509000000E+03 0.  0.
         25    1    4    4    0    0  0.62859752575E+02  0.16932992174E+02  0.43084332009E+02  0.14745115287E+03  0.12509000000E+03 0.  0.
<mgrwt>
<rscale>  2 0.44058144E+03</rscale>
<asrwt>0</asrwt>
<pdfrwt beam="1">  1       21 0.60011643E-01 0.44058144E+03</pdfrwt>
<pdfrwt beam="2">  1       21 0.17487957E-01 0.44058144E+03</pdfrwt>
<totfact> 0.71197971E+04</totfact>
</mgrwt>
</event>
<event>
 7    0  0.4712189E-002  0.4545347E+03  0.7546771E-02  0.1026378E+00
         21   -1    0    0  502  501  0.00000000000E+00  0.00000000000E+00  0.75851641615E+03  0.75851641615E+03  0.00000000000E+00 0. -1.
         21   -1    0    0  501  502 -0.00000000000E+00 -0.00000000000E+00 -0.68094037943E+02  0.68094037943E+02  0.00000000000E+00 0. -1.
      99926    2    1    2    0    0 -0.71054273576E-14  0.00000000000E+00  0.69042237820E+03  0.82661045409E+03  0.45453468788E+03 0.  0.
      99925    2    3    3    0    0  0.55518441716E+02 -0.96424151568E+02  0.40214965224E+03  0.49325090794E+03  0.26304410468E+03 0.  0.
         25    1    3    3    0    0 -0.55518441716E+02  0.96424151568E+02  0.28827272597E+03  0.33335954616E+03  0.12509000000E+03 0.  0.
         25    1    4    4    0    0  0.21170436171E+02 -0.11824223657E+02  0.14464929884E+03  0.19276651003E+03  0.12509000000E+03 0.  0.
         25    1    4    4    0    0  0.34348005545E+02 -0.84599927911E+02  0.25750035340E+03  0.30048439791E+03  0.12509000000E+03 0.  0.
<mgrwt>
<rscale>  2 0.45453469E+03</rscale>
<asrwt>0</asrwt>
<pdfrwt beam="1">  1       21 0.11154653E+00 0.45453469E+03</pdfrwt>
<pdfrwt beam="2">  1       21 0.10013830E-01 0.45453469E+03</pdfrwt>
<totfact> 0.46674655E+04</totfact>
</mgrwt>
</event>
<event>
 7    0  0.4712189E-002  0.4589407E+03  0.7546771E-02  0.1025089E+00
         21   -1    0    0  502  501  0.00000000000E+00  0.00000000000E+00  0.15482278467E+03  0.15482278467E+03  0.00000000000E+00 0. -1.
         21   -1    0    0  501  502 -0.00000000000E+00 -0.00000000000E+00 -0.34010911150E+03  0.34010911150E+03  0.00000000000E+00 0. -1.
      99926    2    1    2    0    0 -0.14210854715E-13  0.71054273576E-14 -0.18528632684E+03  0.49493189617E+03  0.45894069218E+03 0.  0.
      99925    2    3    3    0    0 -0.11160816407E+03  0.27356160876E+02 -0.93385194789E+02  0.30180481885E+03  0.26298405323E+03 0.  0.
         25    1    3    3    0    0  0.11160816407E+03 -0.27356160876E+02 -0.91901132046E+02  0.19312707732E+03  0.12509000000E+03 0.  0.
         25    1    4    4    0    0 -0.64940303275E+02 -0.14361913230E+02 -0.76230118734E+02  0.16087898136E+03  0.12509000000E+03 0.  0.
         25    1    4    4    0    0 -0.46667860792E+02  0.41718074107E+02 -0.17155076056E+02  0.14092583749E+03  0.12509000000E+03 0.  0.
<mgrwt>
<rscale>  2 0.45894069E+03</rscale>
<asrwt>0</asrwt>
<pdfrwt beam="1">  1       21 0.22768057E-01 0.45894069E+03</pdfrwt>
<pdfrwt beam="2">  1       21 0.50016045E-01 0.45894069E+03</pdfrwt>
<totfact> 0.63614676E+04</totfact>
</mgrwt>
</event>
<event>
 7    0  0.4712189E-002  0.4389821E+03  0.7546771E-02  0.1031060E+00
         21   -1    0    0  502  501  0.00000000000E+00  0.00000000000E+00  0.47909074962E+03  0.47909074962E+03  0.00000000000E+00 0.  1.
         21   -1    0    0  501  502 -0.00000000000E+00 -0.00000000000E+00 -0.10055780859E+03  0.10055780859E+03  0.00000000000E+00 0.  1.
      99926    2    1    2    0    0  0.00000000000E+00 -0.14210854715E-13  0.37853294102E+03  0.57964855821E+03  0.43898207663E+03 0.  0.
      99925    2    3    3    0    0  0.34775494063E+02 -0.68365514932E+02  0.16269968119E+03  0.31866066047E+03  0.26304039928E+03 0.  0.
         25    1    4    4    0    0  0.48295862392E+02 -0.55754016283E+02  0.66200752616E+02  0.15959651751E+03  0.12509000000E+03 0.  0.
         25    1    3    3    0    0 -0.34775494063E+02  0.68365514932E+02  0.21583325983E+03  0.26098789774E+03  0.12509000000E+03 0.  0.
         25    1    4    4    0    0 -0.13520368329E+02 -0.12611498649E+02  0.96498928578E+02  0.15906414296E+03  0.12509000000E+03 0.  0.
<mgrwt>
<rscale>  2 0.43898208E+03</rscale>
<asrwt>0</asrwt>
<pdfrwt beam="1">  1       21 0.70454521E-01 0.43898208E+03</pdfrwt>
<pdfrwt beam="2">  1       21 0.14787913E-01 0.43898208E+03</pdfrwt>
<totfact> 0.68180838E+04</totfact>
</mgrwt>
</event>
<event>
 7    0  0.4712189E-002  0.4521433E+03  0.7546771E-02  0.1027085E+00
         21   -1    0    0  502  501  0.00000000000E+00  0.00000000000E+00  0.58298319292E+02  0.58298319292E+02  0.00000000000E+00 0.  1.
         21   -1    0    0  501  502 -0.00000000000E+00 -0.00000000000E+00 -0.87666998260E+03  0.87666998260E+03  0.00000000000E+00 0.  1.
      99926    2    1    2    0    0  0.00000000000E+00 -0.17763568394E-14 -0.81837166330E+03  0.93496830189E+03  0.45214328065E+03 0.  0.
      99925    2    3    3    0    0  0.10600725002E+03 -0.11176323382E+02 -0.57595817749E+03  0.64209588348E+03  0.26305294923E+03 0.  0.
         25    1    3    3    0    0 -0.10600725002E+03  0.11176323382E+02 -0.24241348581E+03  0.29287241841E+03  0.12509000000E+03 0.  0.
         25    1    4    4    0    0  0.33644010456E+02 -0.40530615629E+02 -0.29758558145E+03  0.32707695827E+03  0.12509000000E+03 0.  0.
         25    1    4    4    0    0  0.72363239564E+02  0.29354292247E+02 -0.27837259604E+03  0.31501892521E+03  0.12509000000E+03 0.  0.
<mgrwt>
<rscale>  2 0.45214328E+03</rscale>
<asrwt>0</asrwt>
<pdfrwt beam="1">  1       21 0.85732821E-02 0.45214328E+03</pdfrwt>
<pdfrwt beam="2">  1       21 0.12892206E+00 0.45214328E+03</pdfrwt>
<totfact> 0.42701666E+04</totfact>
</mgrwt>
</event>
<event>
 7    0  0.4712189E-002  0.4530275E+03  0.7546771E-02  0.1026823E+00
         21   -1    0    0  502  501  0.00000000000E+00  0.00000000000E+00  0.31908035388E+03  0.31908035388E+03  0.00000000000E+00 0.  1.
         21   -1    0    0  501  502 -0.00000000000E+00 -0.00000000000E+00 -0.16080108828E+03  0.16080108828E+03  0.00000000000E+00 0.  1.
      99926    2    1    2    0    0  0.00000000000E+00  0.00000000000E+00  0.15827926560E+03  0.47988144217E+03  0.45302745239E+03 0.  0.
      99925    2    3    3    0    0  0.12199060853E+02 -0.23970147019E+02 -0.14653056251E+02  0.26476175205E+03  0.26298419774E+03 0.  0.
         25    1    4    4    0    0  0.33675589664E+02 -0.36627391414E+02 -0.24496262305E+02  0.13683269386E+03  0.12509000000E+03 0.  0.
         25    1    4    4    0    0 -0.21476528811E+02  0.12657244396E+02  0.98432060541E+01  0.12792905820E+03  0.12509000000E+03 0.  0.
         25    1    3    3    0    0 -0.12199060853E+02  0.23970147019E+02  0.17293232185E+03  0.21511969011E+03  0.12509000000E+03 0.  0.
<mgrwt>
<rscale>  2 0.45302745E+03</rscale>
<asrwt>0</asrwt>
<pdfrwt beam="1">  1       21 0.46923582E-01 0.45302745E+03</pdfrwt>
<pdfrwt beam="2">  1       21 0.23647219E-01 0.45302745E+03</pdfrwt>
<totfact> 0.67763535E+04</totfact>
</mgrwt>
</event>
<event>
 7    0  0.4712189E-002  0.4573319E+03  0.7546771E-02  0.1025558E+00
         21   -1    0    0  502  501  0.00000000000E+00  0.00000000000E+00  0.17998350986E+03  0.17998350986E+03  0.00000000000E+00 0. -1.
         21   -1    0    0  501  502 -0.00000000000E+00 -0.00000000000E+00 -0.29051611926E+03  0.29051611926E+03  0.00000000000E+00 0. -1.
      99926    2    1    2    0    0  0.00000000000E+00  0.14210854715E-13 -0.11053260940E+03  0.47049962912E+03  0.45733187432E+03 0.  0.
      99925    2    3    3    0    0 -0.23419287097E+02  0.83840269501E+02  0.84743159717E+01  0.27714035165E+03  0.26297776842E+03 0.  0.
         25    1    4    4    0    0 -0.27701191519E+02  0.52868933043E+02  0.40285147166E+02  0.14433600131E+03  0.12509000000E+03 0.  0.
         25    1    3    3    0    0  0.23419287097E+02 -0.83840269501E+02 -0.11900692537E+03  0.19335927747E+03  0.12509000000E+03 0.  0.
         25    1    4    4    0    0  0.42819044220E+01  0.30971336458E+02 -0.31810831194E+02  0.13280435034E+03  0.12509000000E+03 0.  0.
<mgrwt>
<rscale>  2 0.45733187E+03</rscale>
<asrwt>0</asrwt>
<pdfrwt beam="1">  1       21 0.26468164E-01 0.45733187E+03</pdfrwt>
<pdfrwt beam="2">  1       21 0.42722958E-01 0.45733187E+03</pdfrwt>
<totfact> 0.66166211E+04</totfact>
</mgrwt>
</event>
<event>
 7    0  0.4712189E-002  0.4522877E+03  0.7546771E-02  0.1027042E+00
         21   -1    0    0  502  501  0.00000000000E+00  0.00000000000E+00  0.52571499882E+02  0.52571499882E+02  0.00000000000E+00 0.  1.
         21   -1    0    0  501  502 -0.00000000000E+00 -0.00000000000E+00 -0.97279032652E+03  0.97279032652E+03  0.00000000000E+00 0.  1.
      99926    2    1    2    0    0  0.00000000000E+00  0.00000000000E+00 -0.92021882664E+03  0.10253618264E+04  0.45228772495E+03 0.  0.
      99925    2    3    3    0    0  0.89027569283E+02  0.54036178190E+02 -0.66483181336E+03  0.72251557614E+03  0.26302395531E+03 0.  0.
         25    1    3    3    0    0 -0.89027569283E+02 -0.54036178190E+02 -0.25538701328E+03  0.30284625026E+03  0.12509000000E+03 0.  0.
         25    1    4    4    0    0  0.47272226397E+02 -0.76732926558E+01 -0.26351541717E+03  0.29560349456E+03  0.12509000000E+03 0.  0.
         25    1    4    4    0    0  0.41755342886E+02  0.61709470845E+02 -0.40131639619E+03  0.42691208158E+03  0.12509000000E+03 0.  0.
<mgrwt>
<rscale>  2 0.45228772E+03</rscale>
<asrwt>0</asrwt>
<pdfrwt beam="1">  1       21 0.77311027E-02 0.45228772E+03</pdfrwt>
<pdfrwt beam="2">  1       21 0.14305740E+00 0.45228772E+03</pdfrwt>
<totfact> 0.39014252E+04</totfact>
</mgrwt>
</event>
<event>
 7    0  0.4712189E-002  0.4545728E+03  0.7546771E-02  0.1026367E+00
         21   -1    0    0  502  501  0.00000000000E+00  0.00000000000E+00  0.19302665136E+03  0.19302665136E+03  0.00000000000E+00 0. -1.
         21   -1    0    0  501  502 -0.00000000000E+00 -0.00000000000E+00 -0.26762681380E+03  0.26762681380E+03  0.00000000000E+00 0. -1.
      99926    2    1    2    0    0  0.00000000000E+00 -0.14210854715E-13 -0.74600162435E+02  0.46065346516E+03  0.45457280025E+03 0.  0.
      99925    2    3    3    0    0 -0.86094403096E+02  0.69006254015E+02 -0.71162101460E+02  0.29381990228E+03  0.26285353518E+03 0.  0.
         25    1    3    3    0    0  0.86094403096E+02 -0.69006254015E+02 -0.34380609745E+01  0.16683356287E+03  0.12509000000E+03 0.  0.
         25    1    4    4    0    0 -0.48724059976E+02 -0.56935912628E+01 -0.40238762499E+02  0.14026088945E+03  0.12509000000E+03 0.  0.
         25    1    4    4    0    0 -0.37370343119E+02  0.74699845278E+02 -0.30923338962E+02  0.15355901283E+03  0.12509000000E+03 0.  0.
<mgrwt>
<rscale>  2 0.45457280E+03</rscale>
<asrwt>0</asrwt>
<pdfrwt beam="1">  1       21 0.28386272E-01 0.45457280E+03</pdfrwt>
<pdfrwt beam="2">  1       21 0.39356884E-01 0.45457280E+03</pdfrwt>
<totfact> 0.68365512E+04</totfact>
</mgrwt>
</event>
<event>
 7    0  0.4712189E-002  0.4638830E+03  0.7546771E-02  0.1023661E+00
         21   -1    0    0  502  501  0.00000000000E+00  0.00000000000E+00  0.24759187022E+03  0.24759187022E+03  0.00000000000E+00 0. -1.
         21   -1    0    0  501  502 -0.00000000000E+00 -0.00000000000E+00 -0.21728039939E+03  0.21728039939E+03  0.00000000000E+00 0. -1.
      99926    2    1    2    0    0 -0.14210854715E-13 -0.71054273576E-14  0.30311470835E+02  0.46487226961E+03  0.46388300441E+03 0.  0.
      99925    2    3    3    0    0  0.10717994231E+03 -0.42692374549E+02  0.56379874218E+02  0.29271754666E+03  0.26304884152E+03 0.  0.
         25    1    4    4    0    0  0.90385886535E+02 -0.26002904084E+01  0.38591038640E+02  0.15910105706E+03  0.12509000000E+03 0.  0.
         25    1    4    4    0    0  0.16794055778E+02 -0.40092084140E+02  0.17788835578E+02  0.13361648959E+03  0.12509000000E+03 0.  0.
         25    1    3    3    0    0 -0.10717994231E+03  0.42692374549E+02 -0.26068403383E+02  0.17215472295E+03  0.12509000000E+03 0.  0.
<mgrwt>
<rscale>  2 0.46388300E+03</rscale>
<asrwt>0</asrwt>
<pdfrwt beam="1">  1       21 0.36410569E-01 0.46388300E+03</pdfrwt>
<pdfrwt beam="2">  1       21 0.31953000E-01 0.46388300E+03</pdfrwt>
<totfact> 0.63227063E+04</totfact>
</mgrwt>
</event>
<event>
 7    0  0.4712189E-002  0.4418843E+03  0.7546771E-02  0.1030170E+00
         21   -1    0    0  502  501  0.00000000000E+00  0.00000000000E+00  0.17251540416E+03  0.17251540416E+03  0.00000000000E+00 0. -1.
         21   -1    0    0  501  502 -0.00000000000E+00 -0.00000000000E+00 -0.28296274222E+03  0.28296274222E+03  0.00000000000E+00 0. -1.
      99926    2    1    2    0    0  0.35527136788E-14 -0.14210854715E-13 -0.11044733806E+03  0.45547814638E+03  0.44188429181E+03 0.  0.
      99925    2    3    3    0    0  0.31863471743E+02 -0.88125994515E+02 -0.33240681738E+02  0.28115130502E+03  0.26298220786E+03 0.  0.
         25    1    3    3    0    0 -0.31863471743E+02  0.88125994515E+02 -0.77206656317E+02  0.17432684137E+03  0.12509000000E+03 0.  0.
         25    1    4    4    0    0  0.21109032758E+02 -0.28946750629E+01 -0.64432609042E+01  0.12705508301E+03  0.12509000000E+03 0.  0.
         25    1    4    4    0    0  0.10754438985E+02 -0.85231319452E+02 -0.26797420834E+02  0.15409622201E+03  0.12509000000E+03 0.  0.
<mgrwt>
<rscale>  2 0.44188429E+03</rscale>
<asrwt>0</asrwt>
<pdfrwt beam="1">  1       21 0.25369912E-01 0.44188429E+03</pdfrwt>
<pdfrwt beam="2">  1       21 0.41612168E-01 0.44188429E+03</pdfrwt>
<totfact> 0.76150510E+04</totfact>
</mgrwt>
</event>
<event>
 7    0  0.4712189E-002  0.4560935E+03  0.7546771E-02  0.1025920E+00
         21   -1    0    0  502  501  0.00000000000E+00  0.00000000000E+00  0.28518474865E+03  0.28518474865E+03  0.00000000000E+00 0.  1.
         21   -1    0    0  501  502 -0.00000000000E+00 -0.00000000000E+00 -0.18235658057E+03  0.18235658057E+03  0.00000000000E+00 0.  1.
      99926    2    1    2    0    0  0.00000000000E+00  0.00000000000E+00  0.10282816808E+03  0.46754132922E+03  0.45609347987E+03 0.  0.
      99925    2    3    3    0    0 -0.79778864457E+02  0.66407608765E+02  0.11306516255E+03  0.30467039298E+03  0.26318373746E+03 0.  0.
         25    1    4    4    0    0 -0.69029945767E+02  0.67217142194E+01  0.69248871287E+02  0.15891264622E+03  0.12509000000E+03 0.  0.
         25    1    3    3    0    0  0.79778864457E+02 -0.66407608765E+02 -0.10236994468E+02  0.16287093624E+03  0.12509000000E+03 0.  0.
         25    1    4    4    0    0 -0.10748918690E+02  0.59685894545E+02  0.43816291263E+02  0.14575774676E+03  0.12509000000E+03 0.  0.
<mgrwt>
<rscale>  2 0.45609348E+03</rscale>
<asrwt>0</asrwt>
<pdfrwt beam="1">  1       21 0.41938934E-01 0.45609348E+03</pdfrwt>
<pdfrwt beam="2">  1       21 0.26817144E-01 0.45609348E+03</pdfrwt>
<totfact> 0.67036012E+04</totfact>
</mgrwt>
</event>
<event>
 7    0  0.4712189E-002  0.4550879E+03  0.7546771E-02  0.1026216E+00
         21   -1    0    0  502  501  0.00000000000E+00  0.00000000000E+00  0.12099774674E+04  0.12099774674E+04  0.00000000000E+00 0.  1.
         21   -1    0    0  501  502 -0.00000000000E+00 -0.00000000000E+00 -0.42791085471E+02  0.42791085471E+02  0.00000000000E+00 0.  1.
      99926    2    1    2    0    0  0.00000000000E+00  0.00000000000E+00  0.11671863820E+04  0.12527685529E+04  0.45508790020E+03 0.  0.
      99925    2    3    3    0    0  0.33470781321E+02  0.10518015724E+03  0.80443174776E+03  0.85349221825E+03  0.26297408833E+03 0.  0.
         25    1    4    4    0    0  0.56637225858E+02  0.57659926731E+02  0.39631030146E+03  0.42336958517E+03  0.12509000000E+03 0.  0.
         25    1    3    3    0    0 -0.33470781321E+02 -0.10518015724E+03  0.36275463420E+03  0.39927633465E+03  0.12509000000E+03 0.  0.
         25    1    4    4    0    0 -0.23166444537E+02  0.47520230504E+02  0.40812144630E+03  0.43012263309E+03  0.12509000000E+03 0.  0.
<mgrwt>
<rscale>  2 0.45508790E+03</rscale>
<asrwt>0</asrwt>
<pdfrwt beam="1">  1       21 0.17793784E+00 0.45508790E+03</pdfrwt>
<pdfrwt beam="2">  1       21 0.62928075E-02 0.45508790E+03</pdfrwt>
<totfact> 0.30496952E+04</totfact>
</mgrwt>
</event>
<event>
 7    0  0.4712189E-002  0.4524645E+03  0.7546771E-02  0.1026990E+00
         21   -1    0    0  502  501  0.00000000000E+00  0.00000000000E+00  0.37849205543E+02  0.37849205543E+02  0.00000000000E+00 0.  1.
         21   -1    0    0  501  502 -0.00000000000E+00 -0.00000000000E+00 -0.13522351903E+04  0.13522351903E+04  0.00000000000E+00 0.  1.
      99926    2    1    2    0    0 -0.11102230246E-15  0.00000000000E+00 -0.13143859847E+04  0.13900843958E+04  0.45246448550E+03 0.  0.
      99925    2    3    3    0    0  0.94451901674E+00  0.10994366018E+03 -0.80491153520E+03  0.85408045613E+03  0.26359504078E+03 0.  0.
         25    1    4    4    0    0  0.12253620796E+01  0.51340216663E+02 -0.27481696576E+03  0.30628286294E+03  0.12509000000E+03 0.  0.
         25    1    3    3    0    0 -0.94451901674E+00 -0.10994366018E+03 -0.50947444955E+03  0.53600393970E+03  0.12509000000E+03 0.  0.
         25    1    4    4    0    0 -0.28084306288E+00  0.58603443516E+02 -0.53009456944E+03  0.54779759319E+03  0.12509000000E+03 0.  0.
<mgrwt>
<rscale>  2 0.45246449E+03</rscale>
<asrwt>0</asrwt>
<pdfrwt beam="1">  1       21 0.55660596E-02 0.45246449E+03</pdfrwt>
<pdfrwt beam="2">  1       21 0.19885812E+00 0.45246449E+03</pdfrwt>
<totfact> 0.27128067E+04</totfact>
</mgrwt>
</event>
<event>
 7    0  0.4712189E-002  0.4647728E+03  0.7546771E-02  0.1023406E+00
         21   -1    0    0  502  501  0.00000000000E+00  0.00000000000E+00  0.34560664445E+02  0.34560664445E+02  0.00000000000E+00 0.  1.
         21   -1    0    0  501  502 -0.00000000000E+00 -0.00000000000E+00 -0.15625691822E+04  0.15625691822E+04  0.00000000000E+00 0.  1.
      99926    2    1    2    0    0  0.00000000000E+00  0.00000000000E+00 -0.15280085177E+04  0.15971298466E+04  0.46477275813E+03 0.  0.
      99925    2    3    3    0    0 -0.22768921332E+02 -0.89088953783E+02 -0.67686265862E+03  0.73194082274E+03  0.26294304305E+03 0.  0.
         25    1    4    4    0    0 -0.12318150757E+02 -0.94816584931E+01 -0.25081774030E+03  0.28071103582E+03  0.12509000000E+03 0.  0.
         25    1    3    3    0    0  0.22768921332E+02  0.89088953783E+02 -0.85114585909E+03  0.86518902386E+03  0.12509000000E+03 0.  0.
         25    1    4    4    0    0 -0.10450770575E+02 -0.79607295290E+02 -0.42604491832E+03  0.45122978691E+03  0.12509000000E+03 0.  0.
<mgrwt>
<rscale>  2 0.46477276E+03</rscale>
<asrwt>0</asrwt>
<pdfrwt beam="1">  1       21 0.50824501E-02 0.46477276E+03</pdfrwt>
<pdfrwt beam="2">  1       21 0.22978961E+00 0.46477276E+03</pdfrwt>
<totfact> 0.19938267E+04</totfact>
</mgrwt>
</event>
<event>
 7    0  0.4712189E-002  0.4554196E+03  0.7546771E-02  0.1026118E+00
         21   -1    0    0  502  501  0.00000000000E+00  0.00000000000E+00  0.23319863314E+03  0.23319863314E+03  0.00000000000E+00 0. -1.
         21   -1    0    0  501  502 -0.00000000000E+00 -0.00000000000E+00 -0.22235010983E+03  0.22235010983E+03  0.00000000000E+00 0. -1.
      99926    2    1    2    0    0  0.14210854715E-13  0.00000000000E+00  0.10848523312E+02  0.45554874298E+03  0.45541955027E+03 0.  0.
      99925    2    3    3    0    0 -0.73318906353E+02  0.38164858677E+02 -0.70905053538E+02  0.28477587073E+03  0.26313029371E+03 0.  0.
         25    1    3    3    0    0  0.73318906353E+02 -0.38164858677E+02  0.81753576850E+02  0.17077287224E+03  0.12509000000E+03 0.  0.
         25    1    4    4    0    0 -0.17267453256E+02 -0.12679255996E+02 -0.13184103122E+02  0.12759411095E+03  0.12509000000E+03 0.  0.
         25    1    4    4    0    0 -0.56051453097E+02  0.50844114672E+02 -0.57720950416E+02  0.15718175978E+03  0.12509000000E+03 0.  0.
<mgrwt>
<rscale>  2 0.45541955E+03</rscale>
<asrwt>0</asrwt>
<pdfrwt beam="1">  1       21 0.34293917E-01 0.45541955E+03</pdfrwt>
<pdfrwt beam="2">  1       21 0.32698545E-01 0.45541955E+03</pdfrwt>
<totfact> 0.68276769E+04</totfact>
</mgrwt>
</event>
<event>
 7    0  0.4712189E-002  0.4505529E+03  0.7546771E-02  0.1027557E+00
         21   -1    0    0  502  501  0.00000000000E+00  0.00000000000E+00  0.15861470664E+04  0.15861470664E+04  0.00000000000E+00 0. -1.
         21   -1    0    0  501  502 -0.00000000000E+00 -0.00000000000E+00 -0.31995445767E+02  0.31995445767E+02  0.00000000000E+00 0. -1.
      99926    2    1    2    0    0 -0.14210854715E-13 -0.35527136788E-14  0.15541516206E+04  0.16181425121E+04  0.45055291560E+03 0.  0.
      99925    2    3    3    0    0 -0.97216524252E+02 -0.22810196758E+02  0.11386417786E+04  0.11728703543E+04  0.26296085316E+03 0.  0.
         25    1    3    3    0    0  0.97216524252E+02  0.22810196758E+02  0.41550984194E+03  0.44527215780E+03  0.12509000000E+03 0.  0.
         25    1    4    4    0    0 -0.87458538993E+02 -0.30206522191E+02  0.63221084515E+03  0.65107564142E+03  0.12509000000E+03 0.  0.
         25    1    4    4    0    0 -0.97579852591E+01  0.73963254337E+01  0.50643093349E+03  0.52179471289E+03  0.12509000000E+03 0.  0.
<mgrwt>
<rscale>  2 0.45055292E+03</rscale>
<asrwt>0</asrwt>
<pdfrwt beam="1">  1       21 0.23325687E+00 0.45055292E+03</pdfrwt>
<pdfrwt beam="2">  1       21 0.47052137E-02 0.45055292E+03</pdfrwt>
<totfact> 0.21764807E+04</totfact>
</mgrwt>
</event>
<event>
 7    0  0.4712189E-002  0.4495285E+03  0.7546771E-02  0.1027863E+00
         21   -1    0    0  502  501  0.00000000000E+00  0.00000000000E+00  0.10631497588E+04  0.10631497588E+04  0.00000000000E+00 0. -1.
         21   -1    0    0  501  502 -0.00000000000E+00 -0.00000000000E+00 -0.47518214919E+02  0.47518214919E+02  0.00000000000E+00 0. -1.
      99926    2    1    2    0    0  0.00000000000E+00  0.00000000000E+00  0.10156315439E+04  0.11106679737E+04  0.44952854739E+03 0.  0.
      99925    2    3    3    0    0 -0.77849068764E+01  0.10064937037E+03  0.73643998983E+03  0.78850911154E+03  0.26308146994E+03 0.  0.
         25    1    4    4    0    0 -0.16353588990E+02  0.25187604184E+02  0.25973092807E+03  0.28984395522E+03  0.12509000000E+03 0.  0.
         25    1    3    3    0    0  0.77849068764E+01 -0.10064937037E+03  0.27919155407E+03  0.32215886220E+03  0.12509000000E+03 0.  0.
         25    1    4    4    0    0  0.85686821137E+01  0.75461766181E+02  0.47670906176E+03  0.49866515632E+03  0.12509000000E+03 0.  0.
<mgrwt>
<rscale>  2 0.44952855E+03</rscale>
<asrwt>0</asrwt>
<pdfrwt beam="1">  1       21 0.15634554E+00 0.44952855E+03</pdfrwt>
<pdfrwt beam="2">  1       21 0.69879735E-02 0.44952855E+03</pdfrwt>
<totfact> 0.36662217E+04</totfact>
</mgrwt>
</event>
<event>
 7    0  0.4712189E-002  0.4505702E+03  0.7546771E-02  0.1027552E+00
         21   -1    0    0  502  501  0.00000000000E+00  0.00000000000E+00  0.14532743855E+03  0.14532743855E+03  0.00000000000E+00 0. -1.
         21   -1    0    0  501  502 -0.00000000000E+00 -0.00000000000E+00 -0.34923466282E+03  0.34923466282E+03  0.00000000000E+00 0. -1.
      99926    2    1    2    0    0  0.00000000000E+00 -0.17763568394E-14 -0.20390722426E+03  0.49456210137E+03  0.45057021207E+03 0.  0.
      99925    2    3    3    0    0 -0.70209968000E+02 -0.64130340281E+01 -0.22009332042E+03  0.35006274351E+03  0.26293019623E+03 0.  0.
         25    1    4    4    0    0 -0.53524565972E+02 -0.37589167830E+02 -0.13002968988E+03  0.19191939207E+03  0.12509000000E+03 0.  0.
         25    1    3    3    0    0  0.70209968000E+02  0.64130340281E+01  0.16186096163E+02  0.14449935786E+03  0.12509000000E+03 0.  0.
         25    1    4    4    0    0 -0.16685402028E+02  0.31176133801E+02 -0.90063630540E+02  0.15814335144E+03  0.12509000000E+03 0.  0.
<mgrwt>
<rscale>  2 0.45057021E+03</rscale>
<asrwt>0</asrwt>
<pdfrwt beam="1">  1       21 0.21371682E-01 0.45057021E+03</pdfrwt>
<pdfrwt beam="2">  1       21 0.51358038E-01 0.45057021E+03</pdfrwt>
<totfact> 0.68014878E+04</totfact>
</mgrwt>
</event>
<event>
 7    0  0.4712189E-002  0.4578263E+03  0.7546771E-02  0.1025414E+00
         21   -1    0    0  502  501  0.00000000000E+00  0.00000000000E+00  0.31066129411E+03  0.31066129411E+03  0.00000000000E+00 0.  1.
         21   -1    0    0  501  502 -0.00000000000E+00 -0.00000000000E+00 -0.16867640962E+03  0.16867640962E+03  0.00000000000E+00 0.  1.
      99926    2    1    2    0    0  0.14210854715E-13  0.00000000000E+00  0.14198488449E+03  0.47933770373E+03  0.45782630636E+03 0.  0.
      99925    2    3    3    0    0  0.11565019200E+03 -0.72034989110E+01  0.86468361554E+02  0.30001550844E+03  0.26287957404E+03 0.  0.
         25    1    4    4    0    0  0.43097797915E+02 -0.40088942078E+02  0.52468808020E+02  0.14786827712E+03  0.12509000000E+03 0.  0.
         25    1    4    4    0    0  0.72552394083E+02  0.32885443167E+02  0.33999553533E+02  0.15214723133E+03  0.12509000000E+03 0.  0.
         25    1    3    3    0    0 -0.11565019200E+03  0.72034989110E+01  0.55516522937E+02  0.17932219529E+03  0.12509000000E+03 0.  0.
<mgrwt>
<rscale>  2 0.45782631E+03</rscale>
<asrwt>0</asrwt>
<pdfrwt beam="1">  1       21 0.45685484E-01 0.45782631E+03</pdfrwt>
<pdfrwt beam="2">  1       21 0.24805355E-01 0.45782631E+03</pdfrwt>
<totfact> 0.65271839E+04</totfact>
</mgrwt>
</event>
<event>
 7    0  0.4712189E-002  0.4483834E+03  0.7546771E-02  0.1028205E+00
         21   -1    0    0  502  501  0.00000000000E+00  0.00000000000E+00  0.53801296171E+03  0.53801296171E+03  0.00000000000E+00 0.  1.
         21   -1    0    0  501  502 -0.00000000000E+00 -0.00000000000E+00 -0.93421389829E+02  0.93421389829E+02  0.00000000000E+00 0.  1.
      99926    2    1    2    0    0  0.00000000000E+00  0.00000000000E+00  0.44459157188E+03  0.63143435154E+03  0.44838340125E+03 0.  0.
      99925    2    3    3    0    0 -0.44307772576E+01 -0.10334551367E+03  0.24384305201E+03  0.37327276781E+03  0.26300798123E+03 0.  0.
         25    1    4    4    0    0 -0.26432359126E+02 -0.21724168399E+02  0.13466972525E+03  0.18696002808E+03  0.12509000000E+03 0.  0.
         25    1    3    3    0    0  0.44307772576E+01  0.10334551367E+03  0.20074851987E+03  0.25816158373E+03  0.12509000000E+03 0.  0.
         25    1    4    4    0    0  0.22001581869E+02 -0.81621345272E+02  0.10917332676E+03  0.18631273973E+03  0.12509000000E+03 0.  0.
<mgrwt>
<rscale>  2 0.44838340E+03</rscale>
<asrwt>0</asrwt>
<pdfrwt beam="1">  1       21 0.79119552E-01 0.44838340E+03</pdfrwt>
<pdfrwt beam="2">  1       21 0.13738440E-01 0.44838340E+03</pdfrwt>
<totfact> 0.59848954E+04</totfact>
</mgrwt>
</event>
<event>
 7    0  0.4712189E-002  0.4469610E+03  0.7546771E-02  0.1028632E+00
         21   -1    0    0  502  501  0.00000000000E+00  0.00000000000E+00  0.10707177922E+03  0.10707177922E+03  0.00000000000E+00 0. -1.
         21   -1    0    0  501  502 -0.00000000000E+00 -0.00000000000E+00 -0.46644909375E+03  0.46644909375E+03  0.00000000000E+00 0. -1.
      99926    2    1    2    0    0  0.88817841970E-15  0.00000000000E+00 -0.35937731453E+03  0.57352087297E+03  0.44696100225E+03 0.  0.
      99925    2    3    3    0    0  0.78125972053E+01  0.29723441610E+02 -0.35713206262E+03  0.44469126103E+03  0.26317767350E+03 0.  0.
         25    1    4    4    0    0 -0.33687899974E+02  0.15198931077E+02 -0.20396639037E+03  0.24210675044E+03  0.12509000000E+03 0.  0.
         25    1    4    4    0    0  0.41500497179E+02  0.14524510533E+02 -0.15316567225E+03  0.20258451059E+03  0.12509000000E+03 0.  0.
         25    1    3    3    0    0 -0.78125972053E+01 -0.29723441610E+02 -0.22452519090E+01  0.12882961194E+03  0.12509000000E+03 0.  0.
<mgrwt>
<rscale>  2 0.44696100E+03</rscale>
<asrwt>0</asrwt>
<pdfrwt beam="1">  1       21 0.15745850E-01 0.44696100E+03</pdfrwt>
<pdfrwt beam="2">  1       21 0.68595456E-01 0.44696100E+03</pdfrwt>
<totfact> 0.64331106E+04</totfact>
</mgrwt>
</event>
<event>
 7    0  0.4712189E-002  0.4531938E+03  0.7546771E-02  0.1026774E+00
         21   -1    0    0  502  501  0.00000000000E+00  0.00000000000E+00  0.85238295737E+03  0.85238295737E+03  0.00000000000E+00 0. -1.
         21   -1    0    0  501  502 -0.00000000000E+00 -0.00000000000E+00 -0.60238356432E+02  0.60238356432E+02  0.00000000000E+00 0. -1.
      99926    2    1    2    0    0  0.00000000000E+00  0.00000000000E+00  0.79214460094E+03  0.91262131380E+03  0.45319377049E+03 0.  0.
      99925    2    3    3    0    0  0.63099213473E+02  0.79260116558E+02  0.40556703222E+03  0.49386911793E+03  0.26297986842E+03 0.  0.
         25    1    4    4    0    0  0.17165686343E+02  0.20959183213E+02  0.13094835732E+03  0.18310906186E+03  0.12509000000E+03 0.  0.
         25    1    3    3    0    0 -0.63099213473E+02 -0.79260116558E+02  0.38657756871E+03  0.41875219587E+03  0.12509000000E+03 0.  0.
         25    1    4    4    0    0  0.45933527130E+02  0.58300933345E+02  0.27461867490E+03  0.31076005607E+03  0.12509000000E+03 0.  0.
<mgrwt>
<rscale>  2 0.45319377E+03</rscale>
<asrwt>0</asrwt>
<pdfrwt beam="1">  1       21 0.12535043E+00 0.45319377E+03</pdfrwt>
<pdfrwt beam="2">  1       21 0.88585823E-02 0.45319377E+03</pdfrwt>
<totfact> 0.43301354E+04</totfact>
</mgrwt>
</event>
<event>
 7    0  0.4712189E-002  0.4482624E+03  0.7546771E-02  0.1028241E+00
         21   -1    0    0  502  501  0.00000000000E+00  0.00000000000E+00  0.12674961123E+04  0.12674961123E+04  0.00000000000E+00 0. -1.
         21   -1    0    0  501  502 -0.00000000000E+00 -0.00000000000E+00 -0.39633095073E+02  0.39633095073E+02  0.00000000000E+00 0. -1.
      99926    2    1    2    0    0  0.14210854715E-13  0.35527136788E-14  0.12278630172E+04  0.13071292074E+04  0.44826239602E+03 0.  0.
      99925    2    3    3    0    0 -0.93496340323E+02 -0.28233220004E+02  0.65168873404E+03  0.70949805602E+03  0.26296502629E+03 0.  0.
         25    1    3    3    0    0  0.93496340323E+02  0.28233220004E+02  0.57617428317E+03  0.59763115134E+03  0.12509000000E+03 0.  0.
         25    1    4    4    0    0 -0.76696775639E+02 -0.36601227814E+02  0.40408672369E+03  0.43145756875E+03  0.12509000000E+03 0.  0.
         25    1    4    4    0    0 -0.16799564684E+02  0.83680078099E+01  0.24760201035E+03  0.27804048727E+03  0.12509000000E+03 0.  0.
<mgrwt>
<rscale>  2 0.44826240E+03</rscale>
<asrwt>0</asrwt>
<pdfrwt beam="1">  1       21 0.18639646E+00 0.44826240E+03</pdfrwt>
<pdfrwt beam="2">  1       21 0.58283972E-02 0.44826240E+03</pdfrwt>
<totfact> 0.30474057E+04</totfact>
</mgrwt>
</event>
<event>
 7    0  0.4712189E-002  0.4523898E+03  0.7546771E-02  0.1027012E+00
         21   -1    0    0  502  501  0.00000000000E+00  0.00000000000E+00  0.12793230369E+04  0.12793230369E+04  0.00000000000E+00 0.  1.
         21   -1    0    0  501  502 -0.00000000000E+00 -0.00000000000E+00 -0.39993136207E+02  0.39993136207E+02  0.00000000000E+00 0.  1.
      99926    2    1    2    0    0 -0.71054273576E-14 -0.17763568394E-14  0.12393299007E+04  0.13193161731E+04  0.45238983396E+03 0.  0.
      99925    2    3    3    0    0  0.63009258516E+02 -0.11448808339E+02  0.51856617797E+03  0.58498035486E+03  0.26303971708E+03 0.  0.
         25    1    3    3    0    0 -0.63009258516E+02  0.11448808339E+02  0.72076372275E+03  0.73433581828E+03  0.12509000000E+03 0.  0.
         25    1    4    4    0    0  0.14141300571E+02  0.20766743238E+02  0.30546658763E+03  0.33104165638E+03  0.12509000000E+03 0.  0.
         25    1    4    4    0    0  0.48867957945E+02 -0.32215551577E+02  0.21309959035E+03  0.25393869848E+03  0.12509000000E+03 0.  0.
<mgrwt>
<rscale>  2 0.45238983E+03</rscale>
<asrwt>0</asrwt>
<pdfrwt beam="1">  1       21 0.18813571E+00 0.45238983E+03</pdfrwt>
<pdfrwt beam="2">  1       21 0.58813444E-02 0.45238983E+03</pdfrwt>
<totfact> 0.29145943E+04</totfact>
</mgrwt>
</event>
<event>
 7    0  0.4712189E-002  0.4474674E+03  0.7546771E-02  0.1028480E+00
         21   -1    0    0  502  501  0.00000000000E+00  0.00000000000E+00  0.57845747199E+03  0.57845747199E+03  0.00000000000E+00 0.  1.
         21   -1    0    0  501  502 -0.00000000000E+00 -0.00000000000E+00 -0.86534898618E+02  0.86534898618E+02  0.00000000000E+00 0.  1.
      99926    2    1    2    0    0  0.00000000000E+00  0.00000000000E+00  0.49192257337E+03  0.66499237061E+03  0.44746735610E+03 0.  0.
      99925    2    3    3    0    0 -0.22946336850E+02  0.10362600477E+03  0.30794791206E+03  0.41849882639E+03  0.26276314031E+03 0.  0.
         25    1    4    4    0    0 -0.51659389470E+02  0.49702199763E+02  0.15575873682E+03  0.21224347665E+03  0.12509000000E+03 0.  0.
         25    1    4    4    0    0  0.28713052620E+02  0.53923805004E+02  0.15218917524E+03  0.20625534974E+03  0.12509000000E+03 0.  0.
         25    1    3    3    0    0  0.22946336850E+02 -0.10362600477E+03  0.18397466131E+03  0.24649354422E+03  0.12509000000E+03 0.  0.
<mgrwt>
<rscale>  2 0.44746736E+03</rscale>
<asrwt>0</asrwt>
<pdfrwt beam="1">  1       21 0.85067274E-01 0.44746736E+03</pdfrwt>
<pdfrwt beam="2">  1       21 0.12725721E-01 0.44746736E+03</pdfrwt>
<totfact> 0.58225472E+04</totfact>
</mgrwt>
</event>
<event>
 7    0  0.4712189E-002  0.4372875E+03  0.7546771E-02  0.1031582E+00
         21   -1    0    0  502  501  0.00000000000E+00  0.00000000000E+00  0.82067575721E+03  0.82067575721E+03  0.00000000000E+00 0.  1.
         21   -1    0    0  501  502 -0.00000000000E+00 -0.00000000000E+00 -0.58250877566E+02  0.58250877566E+02  0.00000000000E+00 0.  1.
      99926    2    1    2    0    0 -0.26645352591E-14  0.00000000000E+00  0.76242487965E+03  0.87892663478E+03  0.43728747091E+03 0.  0.
      99925    2    3    3    0    0  0.63416334156E+01  0.55522893610E+02  0.64391612983E+03  0.69777796679E+03  0.26295075710E+03 0.  0.
         25    1    3    3    0    0 -0.63416334156E+01 -0.55522893610E+02  0.11850874982E+03  0.18114866799E+03  0.12509000000E+03 0.  0.
         25    1    4    4    0    0  0.33605160001E+02  0.37460368290E+02  0.26356595769E+03  0.29605254285E+03  0.12509000000E+03 0.  0.
         25    1    4    4    0    0 -0.27263526585E+02  0.18062525320E+02  0.38035017213E+03  0.40172542395E+03  0.12509000000E+03 0.  0.
<mgrwt>
<rscale>  2 0.43728747E+03</rscale>
<asrwt>0</asrwt>
<pdfrwt beam="1">  1       21 0.12068760E+00 0.43728747E+03</pdfrwt>
<pdfrwt beam="2">  1       21 0.85663060E-02 0.43728747E+03</pdfrwt>
<totfact> 0.50851428E+04</totfact>
</mgrwt>
</event>
<event>
 7    0  0.4712189E-002  0.4407974E+03  0.7546771E-02  0.1030502E+00
         21   -1    0    0  502  501  0.00000000000E+00  0.00000000000E+00  0.66336452390E+02  0.66336452390E+02  0.00000000000E+00 0. -1.
         21   -1    0    0  501  502 -0.00000000000E+00 -0.00000000000E+00 -0.73226095376E+03  0.73226095376E+03  0.00000000000E+00 0. -1.
      99926    2    1    2    0    0  0.00000000000E+00  0.00000000000E+00 -0.66592450137E+03  0.79859740615E+03  0.44079743146E+03 0.  0.
      99925    2    3    3    0    0  0.31261621575E+02 -0.53736483420E+02 -0.56497221503E+03  0.62624958675E+03  0.26292592591E+03 0.  0.
         25    1    3    3    0    0 -0.31261621575E+02  0.53736483420E+02 -0.10095228634E+03  0.17234781939E+03  0.12509000000E+03 0.  0.
         25    1    4    4    0    0  0.12563253468E+02 -0.65750942198E+02 -0.32797498823E+03  0.35734594267E+03  0.12509000000E+03 0.  0.
         25    1    4    4    0    0  0.18698368107E+02  0.12014458778E+02 -0.23699722680E+03  0.26890364408E+03  0.12509000000E+03 0.  0.
<mgrwt>
<rscale>  2 0.44079743E+03</rscale>
<asrwt>0</asrwt>
<pdfrwt beam="1">  1       21 0.97553600E-02 0.44079743E+03</pdfrwt>
<pdfrwt beam="2">  1       21 0.10768544E+00 0.44079743E+03</pdfrwt>
<totfact> 0.53557451E+04</totfact>
</mgrwt>
</event>
<event>
 7    0  0.4712189E-002  0.4363123E+03  0.7546771E-02  0.1031884E+00
         21   -1    0    0  502  501  0.00000000000E+00  0.00000000000E+00  0.17990758969E+03  0.17990758969E+03  0.00000000000E+00 0.  1.
         21   -1    0    0  501  502 -0.00000000000E+00 -0.00000000000E+00 -0.26453634961E+03  0.26453634961E+03  0.00000000000E+00 0.  1.
      99926    2    1    2    0    0  0.00000000000E+00  0.71054273576E-14 -0.84628759915E+02  0.44444393930E+03  0.43631225995E+03 0.  0.
      99925    2    3    3    0    0 -0.69773981728E+02 -0.35489820799E+02 -0.10821906603E+03  0.29500516740E+03  0.26303753845E+03 0.  0.
         25    1    3    3    0    0  0.69773981728E+02  0.35489820799E+02  0.23590306111E+02  0.14943877191E+03  0.12509000000E+03 0.  0.
         25    1    4    4    0    0  0.45476713249E+01 -0.29840550855E+02 -0.45979595447E+02  0.13664834828E+03  0.12509000000E+03 0.  0.
         25    1    4    4    0    0 -0.74321653053E+02 -0.56492699434E+01 -0.62239470580E+02  0.15835681912E+03  0.12509000000E+03 0.  0.
<mgrwt>
<rscale>  2 0.43631226E+03</rscale>
<asrwt>0</asrwt>
<pdfrwt beam="1">  1       21 0.26456999E-01 0.43631226E+03</pdfrwt>
<pdfrwt beam="2">  1       21 0.38902404E-01 0.43631226E+03</pdfrwt>
<totfact> 0.80697059E+04</totfact>
</mgrwt>
</event>
<event>
 7    0  0.4712189E-002  0.4461317E+03  0.7546771E-02  0.1028882E+00
         21   -1    0    0  502  501  0.00000000000E+00  0.00000000000E+00  0.32051232638E+03  0.32051232638E+03  0.00000000000E+00 0. -1.
         21   -1    0    0  501  502 -0.00000000000E+00 -0.00000000000E+00 -0.15524635982E+03  0.15524635982E+03  0.00000000000E+00 0. -1.
      99926    2    1    2    0    0  0.00000000000E+00  0.00000000000E+00  0.16526596656E+03  0.47575868620E+03  0.44613169333E+03 0.  0.
      99925    2    3    3    0    0  0.19299947079E+02  0.81912247925E+02  0.38501410913E+02  0.27878441127E+03  0.26297582590E+03 0.  0.
         25    1    3    3    0    0 -0.19299947079E+02 -0.81912247925E+02  0.12676455564E+03  0.19697427493E+03  0.12509000000E+03 0.  0.
         25    1    4    4    0    0  0.45046036864E+01  0.28908852641E+01  0.35169263136E+02  0.13005012050E+03  0.12509000000E+03 0.  0.
         25    1    4    4    0    0  0.14795343392E+02  0.79021362660E+02  0.33321477770E+01  0.14873429077E+03  0.12509000000E+03 0.  0.
<mgrwt>
<rscale>  2 0.44613169E+03</rscale>
<asrwt>0</asrwt>
<pdfrwt beam="1">  1       21 0.47134166E-01 0.44613169E+03</pdfrwt>
<pdfrwt beam="2">  1       21 0.22830347E-01 0.44613169E+03</pdfrwt>
<totfact> 0.71942589E+04</totfact>
</mgrwt>
</event>
<event>
 7    0  0.4712189E-002  0.4537513E+03  0.7546771E-02  0.1026609E+00
         21   -1    0    0  502  501  0.00000000000E+00  0.00000000000E+00  0.14456953380E+03  0.14456953380E+03  0.00000000000E+00 0.  1.
         21   -1    0    0  501  502 -0.00000000000E+00 -0.00000000000E+00 -0.35604008628E+03  0.35604008628E+03  0.00000000000E+00 0.  1.
      99926    2    1    2    0    0  0.00000000000E+00  0.00000000000E+00 -0.21147055248E+03  0.50060962008E+03  0.45375125031E+03 0.  0.
      99925    2    3    3    0    0  0.65168210663E+02  0.52060309783E+02 -0.21566889088E+03  0.35020248700E+03  0.26300482862E+03 0.  0.
         25    1    4    4    0    0 -0.24466732743E+01  0.94731925130E+01 -0.11993500198E+03  0.17357315572E+03  0.12509000000E+03 0.  0.
         25    1    3    3    0    0 -0.65168210663E+02 -0.52060309783E+02  0.41983383988E+01  0.15040713308E+03  0.12509000000E+03 0.  0.
         25    1    4    4    0    0  0.67614883938E+02  0.42587117270E+02 -0.95733888899E+02  0.17662933129E+03  0.12509000000E+03 0.  0.
<mgrwt>
<rscale>  2 0.45375125E+03</rscale>
<asrwt>0</asrwt>
<pdfrwt beam="1">  1       21 0.21260226E-01 0.45375125E+03</pdfrwt>
<pdfrwt beam="2">  1       21 0.52358835E-01 0.45375125E+03</pdfrwt>
<totfact> 0.65878453E+04</totfact>
</mgrwt>
</event>
<event>
 7    0  0.4712189E-002  0.4576217E+03  0.7546771E-02  0.1025473E+00
         21   -1    0    0  502  501  0.00000000000E+00  0.00000000000E+00  0.43875633102E+02  0.43875633102E+02  0.00000000000E+00 0.  1.
         21   -1    0    0  501  502 -0.00000000000E+00 -0.00000000000E+00 -0.11932458137E+04  0.11932458137E+04  0.00000000000E+00 0.  1.
      99926    2    1    2    0    0  0.14210854715E-13  0.00000000000E+00 -0.11493701806E+04  0.12371214468E+04  0.45762174565E+03 0.  0.
      99925    2    3    3    0    0 -0.72018277116E+02 -0.74405502533E+02 -0.86079853146E+03  0.90599622000E+03  0.26293008164E+03 0.  0.
         25    1    4    4    0    0 -0.28765955082E+01 -0.16357637902E+02 -0.33267080055E+03  0.35579940522E+03  0.12509000000E+03 0.  0.
         25    1    3    3    0    0  0.72018277116E+02  0.74405502533E+02 -0.28857164917E+03  0.33112522684E+03  0.12509000000E+03 0.  0.
         25    1    4    4    0    0 -0.69141681607E+02 -0.58047864632E+02 -0.52812773092E+03  0.55019681477E+03  0.12509000000E+03 0.  0.
<mgrwt>
<rscale>  2 0.45762175E+03</rscale>
<asrwt>0</asrwt>
<pdfrwt beam="1">  1       21 0.64522982E-02 0.45762175E+03</pdfrwt>
<pdfrwt beam="2">  1       21 0.17547735E+00 0.45762175E+03</pdfrwt>
<totfact> 0.30372202E+04</totfact>
</mgrwt>
</event>
<event>
 7    0  0.4712189E-002  0.4730076E+03  0.7546771E-02  0.1021075E+00
         21   -1    0    0  502  501  0.00000000000E+00  0.00000000000E+00  0.13414478114E+04  0.13414478114E+04  0.00000000000E+00 0. -1.
         21   -1    0    0  501  502 -0.00000000000E+00 -0.00000000000E+00 -0.41696768492E+02  0.41696768492E+02  0.00000000000E+00 0. -1.
      99926    2    1    2    0    0  0.00000000000E+00  0.35527136788E-14  0.12997510429E+04  0.13831445799E+04  0.47300756373E+03 0.  0.
      99925    2    3    3    0    0  0.70680247079E+02 -0.22948624762E+02  0.11148754454E+04  0.11478812564E+04  0.26298627993E+03 0.  0.
         25    1    4    4    0    0 -0.16863277988E+01 -0.28312241177E+02  0.55531428040E+03  0.56993498297E+03  0.12509000000E+03 0.  0.
         25    1    3    3    0    0 -0.70680247079E+02  0.22948624762E+02  0.18487559750E+03  0.23526332344E+03  0.12509000000E+03 0.  0.
         25    1    4    4    0    0  0.72366574878E+02  0.53636164156E+01  0.55956116500E+03  0.57794627347E+03  0.12509000000E+03 0.  0.
<mgrwt>
<rscale>  2 0.47300756E+03</rscale>
<asrwt>0</asrwt>
<pdfrwt beam="1">  1       21 0.19727171E+00 0.47300756E+03</pdfrwt>
<pdfrwt beam="2">  1       21 0.61318786E-02 0.47300756E+03</pdfrwt>
<totfact> 0.23342845E+04</totfact>
</mgrwt>
</event>
<event>
 7    0  0.4712189E-002  0.4494795E+03  0.7546771E-02  0.1027877E+00
         21   -1    0    0  502  501  0.00000000000E+00  0.00000000000E+00  0.31767530993E+03  0.31767530993E+03  0.00000000000E+00 0. -1.
         21   -1    0    0  501  502 -0.00000000000E+00 -0.00000000000E+00 -0.15899239795E+03  0.15899239795E+03  0.00000000000E+00 0. -1.
      99926    2    1    2    0    0 -0.71054273576E-14  0.14210854715E-13  0.15868291198E+03  0.47666770788E+03  0.44947951809E+03 0.  0.
      99925    2    3    3    0    0 -0.54619610954E+02  0.84069852950E+02  0.14217343639E+03  0.31551215272E+03  0.26321776236E+03 0.  0.
         25    1    3    3    0    0  0.54619610954E+02 -0.84069852950E+02  0.16509475591E+02  0.16115555516E+03  0.12509000000E+03 0.  0.
         25    1    4    4    0    0 -0.14609659049E+02  0.46963806194E+00  0.60951985652E+02  0.13991538640E+03  0.12509000000E+03 0.  0.
         25    1    4    4    0    0 -0.40009951906E+02  0.83600214888E+02  0.81221450733E+02  0.17559676631E+03  0.12509000000E+03 0.  0.
<mgrwt>
<rscale>  2 0.44947952E+03</rscale>
<asrwt>0</asrwt>
<pdfrwt beam="1">  1       21 0.46716957E-01 0.44947952E+03</pdfrwt>
<pdfrwt beam="2">  1       21 0.23381235E-01 0.44947952E+03</pdfrwt>
<totfact> 0.69959063E+04</totfact>
</mgrwt>
</event>
<event>
 7    0  0.4712189E-002  0.4486581E+03  0.7546771E-02  0.1028123E+00
         21   -1    0    0  502  501  0.00000000000E+00  0.00000000000E+00  0.11666846299E+03  0.11666846299E+03  0.00000000000E+00 0.  1.
         21   -1    0    0  501  502 -0.00000000000E+00 -0.00000000000E+00 -0.43133774349E+03  0.43133774349E+03  0.00000000000E+00 0.  1.
      99926    2    1    2    0    0  0.71054273576E-14  0.00000000000E+00 -0.31466928050E+03  0.54800620648E+03  0.44865805047E+03 0.  0.
      99925    2    3    3    0    0 -0.45416832899E+02 -0.77833845312E+02 -0.26982664548E+03  0.38744728832E+03  0.26303647356E+03 0.  0.
         25    1    3    3    0    0  0.45416832899E+02  0.77833845312E+02 -0.44842635022E+02  0.16055891817E+03  0.12509000000E+03 0.  0.
         25    1    4    4    0    0  0.70268011419E+01 -0.30657057491E+02 -0.89831678525E+02  0.15718291789E+03  0.12509000000E+03 0.  0.
         25    1    4    4    0    0 -0.52443634041E+02 -0.47176787821E+02 -0.17999496695E+03  0.23026437043E+03  0.12509000000E+03 0.  0.
<mgrwt>
<rscale>  2 0.44865805E+03</rscale>
<asrwt>0</asrwt>
<pdfrwt beam="1">  1       21 0.17157127E-01 0.44865805E+03</pdfrwt>
<pdfrwt beam="2">  1       21 0.63432019E-01 0.44865805E+03</pdfrwt>
<totfact> 0.65209514E+04</totfact>
</mgrwt>
</event>
<event>
 7    0  0.4712189E-002  0.4581642E+03  0.7546771E-02  0.1025315E+00
         21   -1    0    0  502  501  0.00000000000E+00  0.00000000000E+00  0.11845197998E+03  0.11845197998E+03  0.00000000000E+00 0.  1.
         21   -1    0    0  501  502 -0.00000000000E+00 -0.00000000000E+00 -0.44303706285E+03  0.44303706285E+03  0.00000000000E+00 0.  1.
      99926    2    1    2    0    0 -0.71054273576E-14 -0.14210854715E-13 -0.32458508287E+03  0.56148904283E+03  0.45816423824E+03 0.  0.
      99925    2    3    3    0    0 -0.44627640952E+02 -0.10659341451E+03 -0.21730782438E+03  0.36021882486E+03  0.26302305772E+03 0.  0.
         25    1    4    4    0    0 -0.32122978083E+02 -0.17579836761E+02 -0.74288367547E+02  0.15002401819E+03  0.12509000000E+03 0.  0.
         25    1    3    3    0    0  0.44627640952E+02  0.10659341451E+03 -0.10727725849E+03  0.20127021798E+03  0.12509000000E+03 0.  0.
         25    1    4    4    0    0 -0.12504662869E+02 -0.89013577751E+02 -0.14301945683E+03  0.21019480667E+03  0.12509000000E+03 0.  0.
<mgrwt>
<rscale>  2 0.45816424E+03</rscale>
<asrwt>0</asrwt>
<pdfrwt beam="1">  1       21 0.17419409E-01 0.45816424E+03</pdfrwt>
<pdfrwt beam="2">  1       21 0.65152509E-01 0.45816424E+03</pdfrwt>
<totfact> 0.59607703E+04</totfact>
</mgrwt>
</event>
<event>
 7    0  0.4712189E-002  0.4533189E+03  0.7546771E-02  0.1026737E+00
         21   -1    0    0  502  501  0.00000000000E+00  0.00000000000E+00  0.37659675675E+03  0.37659675675E+03  0.00000000000E+00 0.  1.
         21   -1    0    0  501  502 -0.00000000000E+00 -0.00000000000E+00 -0.13641778533E+03  0.13641778533E+03  0.00000000000E+00 0.  1.
      99926    2    1    2    0    0  0.00000000000E+00 -0.71054273576E-14  0.24017897142E+03  0.51301454209E+03  0.45331885255E+03 0.  0.
      99925    2    3    3    0    0 -0.91213828659E+02  0.41314971016E+02  0.95795430264E+02  0.29732725821E+03  0.26305863348E+03 0.  0.
         25    1    4    4    0    0 -0.69876347174E+02  0.37916686198E+02  0.20213396133E+02  0.14958766149E+03  0.12509000000E+03 0.  0.
         25    1    3    3    0    0  0.91213828659E+02 -0.41314971016E+02  0.14438354116E+03  0.21568728388E+03  0.12509000000E+03 0.  0.
         25    1    4    4    0    0 -0.21337481484E+02  0.33982848176E+01  0.75582034131E+02  0.14773959672E+03  0.12509000000E+03 0.  0.
<mgrwt>
<rscale>  2 0.45331885E+03</rscale>
<asrwt>0</asrwt>
<pdfrwt beam="1">  1       21 0.55381876E-01 0.45331885E+03</pdfrwt>
<pdfrwt beam="2">  1       21 0.20061439E-01 0.45331885E+03</pdfrwt>
<totfact> 0.65231572E+04</totfact>
</mgrwt>
</event>
<event>
 7    0  0.4712189E-002  0.4556908E+03  0.7546771E-02  0.1026038E+00
         21   -1    0    0  502  501  0.00000000000E+00  0.00000000000E+00  0.38993542490E+03  0.38993542490E+03  0.00000000000E+00 0.  1.
         21   -1    0    0  501  502 -0.00000000000E+00 -0.00000000000E+00 -0.13313365269E+03  0.13313365269E+03  0.00000000000E+00 0.  1.
      99926    2    1    2    0    0 -0.71054273576E-14  0.00000000000E+00  0.25680177221E+03  0.52306907760E+03  0.45569080496E+03 0.  0.
      99925    2    3    3    0    0  0.57158837250E+02 -0.16502214839E+02  0.49732048639E+02  0.27394092927E+03  0.26273732186E+03 0.  0.
         25    1    4    4    0    0  0.23224227417E+02  0.22830671443E+02  0.49721205546E+02  0.13849299866E+03  0.12509000000E+03 0.  0.
         25    1    3    3    0    0 -0.57158837250E+02  0.16502214839E+02  0.20706972357E+03  0.24912814833E+03  0.12509000000E+03 0.  0.
         25    1    4    4    0    0  0.33934609833E+02 -0.39332886283E+02  0.10843093465E-01  0.13544793061E+03  0.12509000000E+03 0.  0.
<mgrwt>
<rscale>  2 0.45569080E+03</rscale>
<asrwt>0</asrwt>
<pdfrwt beam="1">  1       21 0.57343445E-01 0.45569080E+03</pdfrwt>
<pdfrwt beam="2">  1       21 0.19578478E-01 0.45569080E+03</pdfrwt>
<totfact> 0.63330547E+04</totfact>
</mgrwt>
</event>
<event>
 7    0  0.4712189E-002  0.4452479E+03  0.7546771E-02  0.1029149E+00
         21   -1    0    0  502  501  0.00000000000E+00  0.00000000000E+00  0.18899118374E+03  0.18899118374E+03  0.00000000000E+00 0.  1.
         21   -1    0    0  501  502 -0.00000000000E+00 -0.00000000000E+00 -0.26224192870E+03  0.26224192870E+03  0.00000000000E+00 0.  1.
      99926    2    1    2    0    0  0.00000000000E+00  0.00000000000E+00 -0.73250744958E+02  0.45123311244E+03  0.44524785246E+03 0.  0.
      99925    2    3    3    0    0  0.34797842427E+02 -0.83807150180E+02  0.45663324796E+01  0.27820844975E+03  0.26295353555E+03 0.  0.
         25    1    3    3    0    0 -0.34797842427E+02  0.83807150180E+02 -0.77817077438E+02  0.17302466269E+03  0.12509000000E+03 0.  0.
         25    1    4    4    0    0  0.36464377347E+02 -0.87767733241E+01 -0.13187840323E+02  0.13125589433E+03  0.12509000000E+03 0.  0.
         25    1    4    4    0    0 -0.16665349202E+01 -0.75030376856E+02  0.17754172802E+02  0.14695255541E+03  0.12509000000E+03 0.  0.
<mgrwt>
<rscale>  2 0.44524785E+03</rscale>
<asrwt>0</asrwt>
<pdfrwt beam="1">  1       21 0.27792821E-01 0.44524785E+03</pdfrwt>
<pdfrwt beam="2">  1       21 0.38564989E-01 0.44524785E+03</pdfrwt>
<totfact> 0.74447552E+04</totfact>
</mgrwt>
</event>
<event>
 7    0  0.4712189E-002  0.4562413E+03  0.7546771E-02  0.1025877E+00
         21   -1    0    0  502  501  0.00000000000E+00  0.00000000000E+00  0.42269321259E+03  0.42269321259E+03  0.00000000000E+00 0. -1.
         21   -1    0    0  501  502 -0.00000000000E+00 -0.00000000000E+00 -0.12311298451E+03  0.12311298451E+03  0.00000000000E+00 0. -1.
      99926    2    1    2    0    0  0.00000000000E+00  0.00000000000E+00  0.29958022807E+03  0.54580619710E+03  0.45624126484E+03 0.  0.
      99925    2    3    3    0    0 -0.48906464372E+01 -0.70790172200E+02  0.29552441754E+03  0.40193429365E+03  0.26302343651E+03 0.  0.
         25    1    4    4    0    0 -0.10938718497E+01 -0.43007306302E+01  0.98705842092E+02  0.15940528286E+03  0.12509000000E+03 0.  0.
         25    1    3    3    0    0  0.48906464372E+01  0.70790172200E+02  0.40558105357E+01  0.14387190345E+03  0.12509000000E+03 0.  0.
         25    1    4    4    0    0 -0.37967745874E+01 -0.66489441570E+02  0.19681857545E+03  0.24252901080E+03  0.12509000000E+03 0.  0.
<mgrwt>
<rscale>  2 0.45624126E+03</rscale>
<asrwt>0</asrwt>
<pdfrwt beam="1">  1       21 0.62160766E-01 0.45624126E+03</pdfrwt>
<pdfrwt beam="2">  1       21 0.18104851E-01 0.45624126E+03</pdfrwt>
<totfact> 0.61537850E+04</totfact>
</mgrwt>
</event>
<event>
 6    0  0.4712189E-002  0.4539199E+03  0.7546771E-02  0.1026559E+00
         21   -1    0    0  502  501  0.00000000000E+00  0.00000000000E+00  0.26813716420E+03  0.26813716420E+03  0.00000000000E+00 0.  1.
         21   -1    0    0  501  502 -0.00000000000E+00 -0.00000000000E+00 -0.19210624309E+03  0.19210624309E+03  0.00000000000E+00 0.  1.
      99926    2    1    2    0    0 -0.88817841970E-15  0.00000000000E+00  0.76030921115E+02  0.46024340729E+03  0.45391991914E+03 0.  0.
         25    1    3    3    0    0  0.17964157574E+02  0.43965927707E+02  0.82882984183E+01  0.13405938142E+03  0.12509000000E+03 0.  0.
         25    1    3    3    0    0 -0.14245390824E+02  0.31933026921E+02 -0.49148136987E+02  0.13887295214E+03  0.12509000000E+03 0.  0.
         25    1    3    3    0    0 -0.37187667507E+01 -0.75898954628E+02  0.11689075968E+03  0.18731107372E+03  0.12509000000E+03 0.  0.
<mgrwt>
<rscale>  2 0.45391992E+03</rscale>
<asrwt>0</asrwt>
<pdfrwt beam="1">  1       21 0.39431936E-01 0.45391992E+03</pdfrwt>
<pdfrwt beam="2">  1       21 0.28250918E-01 0.45391992E+03</pdfrwt>
<totfact> 0.68753011E+04</totfact>
</mgrwt>
</event>
<event>
 7    0  0.4712189E-002  0.4531866E+03  0.7546771E-02  0.1026776E+00
         21   -1    0    0  502  501  0.00000000000E+00  0.00000000000E+00  0.11587103352E+03  0.11587103352E+03  0.00000000000E+00 0. -1.
         21   -1    0    0  501  502 -0.00000000000E+00 -0.00000000000E+00 -0.44311778624E+03  0.44311778624E+03  0.00000000000E+00 0. -1.
      99926    2    1    2    0    0  0.00000000000E+00 -0.35527136788E-14 -0.32724675272E+03  0.55898881976E+03  0.45318656583E+03 0.  0.
      99925    2    3    3    0    0  0.52597116237E+02  0.11928769551E+02 -0.85938381115E+02  0.28188596794E+03  0.26299342462E+03 0.  0.
         25    1    4    4    0    0  0.31334830948E+02 -0.33906506871E+02 -0.48415139877E+02  0.14185576022E+03  0.12509000000E+03 0.  0.
         25    1    4    4    0    0  0.21262285290E+02  0.45835276422E+02 -0.37523241238E+02  0.14003020772E+03  0.12509000000E+03 0.  0.
         25    1    3    3    0    0 -0.52597116237E+02 -0.11928769551E+02 -0.24130837160E+03  0.27710285182E+03  0.12509000000E+03 0.  0.
<mgrwt>
<rscale>  2 0.45318657E+03</rscale>
<asrwt>0</asrwt>
<pdfrwt beam="1">  1       21 0.17039857E-01 0.45318657E+03</pdfrwt>
<pdfrwt beam="2">  1       21 0.65164382E-01 0.45318657E+03</pdfrwt>
<totfact> 0.62163309E+04</totfact>
</mgrwt>
</event>
<event>
 7    0  0.4712189E-002  0.4370902E+03  0.7546771E-02  0.1031643E+00
         21   -1    0    0  502  501  0.00000000000E+00  0.00000000000E+00  0.59853910392E+03  0.59853910392E+03  0.00000000000E+00 0.  1.
         21   -1    0    0  501  502 -0.00000000000E+00 -0.00000000000E+00 -0.79797559731E+02  0.79797559731E+02  0.00000000000E+00 0.  1.
      99926    2    1    2    0    0  0.00000000000E+00  0.17763568394E-14  0.51874154419E+03  0.67833666365E+03  0.43709019617E+03 0.  0.
      99925    2    3    3    0    0  0.78371152025E+02 -0.13013563944E+02  0.41410342064E+03  0.49693094347E+03  0.26295879767E+03 0.  0.
         25    1    3    3    0    0 -0.78371152025E+02  0.13013563944E+02  0.10463812355E+03  0.18140572018E+03  0.12509000000E+03 0.  0.
         25    1    4    4    0    0  0.30782896785E+02  0.30324093655E+02  0.22820451316E+03  0.26380285313E+03  0.12509000000E+03 0.  0.
         25    1    4    4    0    0  0.47588255240E+02 -0.43337657599E+02  0.18589890748E+03  0.23312809034E+03  0.12509000000E+03 0.  0.
<mgrwt>
<rscale>  2 0.43709020E+03</rscale>
<asrwt>0</asrwt>
<pdfrwt beam="1">  1       21 0.88020454E-01 0.43709020E+03</pdfrwt>
<pdfrwt beam="2">  1       21 0.11734936E-01 0.43709020E+03</pdfrwt>
<totfact> 0.62447085E+04</totfact>
</mgrwt>
</event>
<event>
 7    0  0.4712189E-002  0.4366469E+03  0.7546771E-02  0.1031781E+00
         21   -1    0    0  502  501  0.00000000000E+00  0.00000000000E+00  0.37312581723E+02  0.37312581723E+02  0.00000000000E+00 0.  1.
         21   -1    0    0  501  502 -0.00000000000E+00 -0.00000000000E+00 -0.12774545575E+04  0.12774545575E+04  0.00000000000E+00 0.  1.
      99926    2    1    2    0    0  0.00000000000E+00  0.00000000000E+00 -0.12401419757E+04  0.13147671392E+04  0.43664689429E+03 0.  0.
      99925    2    3    3    0    0 -0.90957285959E+02  0.19380885176E+02 -0.73554261523E+03  0.78664133097E+03  0.26293116625E+03 0.  0.
         25    1    4    4    0    0 -0.68268757319E+02  0.44441940134E+02 -0.40042455907E+03  0.42734417613E+03  0.12509000000E+03 0.  0.
         25    1    4    4    0    0 -0.22688528640E+02 -0.25061054958E+02 -0.33511805616E+03  0.35929715483E+03  0.12509000000E+03 0.  0.
         25    1    3    3    0    0  0.90957285959E+02 -0.19380885176E+02 -0.50459936050E+03  0.52812580821E+03  0.12509000000E+03 0.  0.
<mgrwt>
<rscale>  2 0.43664689E+03</rscale>
<asrwt>0</asrwt>
<pdfrwt beam="1">  1       21 0.54871454E-02 0.43664689E+03</pdfrwt>
<pdfrwt beam="2">  1       21 0.18786093E+00 0.43664689E+03</pdfrwt>
<totfact> 0.33177213E+04</totfact>
</mgrwt>
</event>
<event>
 7    0  0.4712189E-002  0.4514923E+03  0.7546771E-02  0.1027278E+00
         21   -1    0    0  502  501  0.00000000000E+00  0.00000000000E+00  0.38316706047E+03  0.38316706047E+03  0.00000000000E+00 0. -1.
         21   -1    0    0  501  502 -0.00000000000E+00 -0.00000000000E+00 -0.13300028197E+03  0.13300028197E+03  0.00000000000E+00 0. -1.
      99926    2    1    2    0    0  0.71054273576E-14  0.14210854715E-13  0.25016677849E+03  0.51616734244E+03  0.45149231261E+03 0.  0.
      99925    2    3    3    0    0  0.36774325367E+02  0.10146932052E+03  0.18077663508E+03  0.33697226964E+03  0.26310025599E+03 0.  0.
         25    1    4    4    0    0  0.38600293030E+02  0.14383825605E+02  0.76771143085E+02  0.15244078710E+03  0.12509000000E+03 0.  0.
         25    1    3    3    0    0 -0.36774325367E+02 -0.10146932052E+03  0.69390143413E+02  0.17919507280E+03  0.12509000000E+03 0.  0.
         25    1    4    4    0    0 -0.18259676636E+01  0.87085494919E+02  0.10400549199E+03  0.18453148254E+03  0.12509000000E+03 0.  0.
<mgrwt>
<rscale>  2 0.45149231E+03</rscale>
<asrwt>0</asrwt>
<pdfrwt beam="1">  1       21 0.56348097E-01 0.45149231E+03</pdfrwt>
<pdfrwt beam="2">  1       21 0.19558865E-01 0.45149231E+03</pdfrwt>
<totfact> 0.65966005E+04</totfact>
</mgrwt>
</event>
<event>
 7    0  0.4712189E-002  0.4383697E+03  0.7546771E-02  0.1031248E+00
         21   -1    0    0  502  501  0.00000000000E+00  0.00000000000E+00  0.12504402037E+03  0.12504402037E+03  0.00000000000E+00 0. -1.
         21   -1    0    0  501  502 -0.00000000000E+00 -0.00000000000E+00 -0.38420075848E+03  0.38420075848E+03  0.00000000000E+00 0. -1.
      99926    2    1    2    0    0 -0.71054273576E-14  0.00000000000E+00 -0.25915673811E+03  0.50924477886E+03  0.43836974107E+03 0.  0.
      99925    2    3    3    0    0 -0.40277579739E+02  0.79375304485E+02 -0.20969786447E+03  0.34794874458E+03  0.26300648680E+03 0.  0.
         25    1    4    4    0    0 -0.20478162576E+00  0.61589731783E+02 -0.14238957630E+03  0.19928782335E+03  0.12509000000E+03 0.  0.
         25    1    3    3    0    0  0.40277579739E+02 -0.79375304485E+02 -0.49458873642E+02  0.16129603428E+03  0.12509000000E+03 0.  0.
         25    1    4    4    0    0 -0.40072798113E+02  0.17785572702E+02 -0.67308288168E+02  0.14866092123E+03  0.12509000000E+03 0.  0.
<mgrwt>
<rscale>  2 0.43836974E+03</rscale>
<asrwt>0</asrwt>
<pdfrwt beam="1">  1       21 0.18388826E-01 0.43836974E+03</pdfrwt>
<pdfrwt beam="2">  1       21 0.56500112E-01 0.43836974E+03</pdfrwt>
<totfact> 0.73904492E+04</totfact>
</mgrwt>
</event>
<event>
 7    0  0.4712189E-002  0.4606581E+03  0.7546771E-02  0.1024591E+00
         21   -1    0    0  502  501  0.00000000000E+00  0.00000000000E+00  0.56094612782E+03  0.56094612782E+03  0.00000000000E+00 0. -1.
         21   -1    0    0  501  502 -0.00000000000E+00 -0.00000000000E+00 -0.94574975455E+02  0.94574975455E+02  0.00000000000E+00 0. -1.
      99926    2    1    2    0    0  0.00000000000E+00  0.00000000000E+00  0.46637115236E+03  0.65552110327E+03  0.46065807828E+03 0.  0.
      99925    2    3    3    0    0 -0.10980786091E+03  0.19188215995E+02  0.23548071308E+03  0.37024254291E+03  0.26306352921E+03 0.  0.
         25    1    4    4    0    0 -0.37479752624E+02 -0.27860105078E+02  0.10286966893E+03  0.16855442503E+03  0.12509000000E+03 0.  0.
         25    1    4    4    0    0 -0.72328108284E+02  0.47048321073E+02  0.13261104416E+03  0.20168811788E+03  0.12509000000E+03 0.  0.
         25    1    3    3    0    0  0.10980786091E+03 -0.19188215995E+02  0.23089043928E+03  0.28527856036E+03  0.12509000000E+03 0.  0.
<mgrwt>
<rscale>  2 0.46065808E+03</rscale>
<asrwt>0</asrwt>
<pdfrwt beam="1">  1       21 0.82492076E-01 0.46065808E+03</pdfrwt>
<pdfrwt beam="2">  1       21 0.13908085E-01 0.46065808E+03</pdfrwt>
<totfact> 0.52980125E+04</totfact>
</mgrwt>
</event>
<event>
 7    0  0.4712189E-002  0.4566085E+03  0.7546771E-02  0.1025769E+00
         21   -1    0    0  502  501  0.00000000000E+00  0.00000000000E+00  0.99325021931E+02  0.99325021931E+02  0.00000000000E+00 0.  1.
         21   -1    0    0  501  502 -0.00000000000E+00 -0.00000000000E+00 -0.52477034622E+03  0.52477034622E+03  0.00000000000E+00 0.  1.
      99926    2    1    2    0    0  0.00000000000E+00  0.00000000000E+00 -0.42544532429E+03  0.62409536815E+03  0.45660848064E+03 0.  0.
      99925    2    3    3    0    0  0.82641123486E+02 -0.94949148580E+01 -0.37519717473E+03  0.46569052816E+03  0.26301148148E+03 0.  0.
         25    1    4    4    0    0  0.38877891398E+01 -0.47321589150E+01 -0.20485338948E+03  0.24010399313E+03  0.12509000000E+03 0.  0.
         25    1    4    4    0    0  0.78753334347E+02 -0.47627559430E+01 -0.17034378525E+03  0.22558653503E+03  0.12509000000E+03 0.  0.
         25    1    3    3    0    0 -0.82641123486E+02  0.94949148580E+01 -0.50248149558E+02  0.15840483999E+03  0.12509000000E+03 0.  0.
<mgrwt>
<rscale>  2 0.45660848E+03</rscale>
<asrwt>0</asrwt>
<pdfrwt beam="1">  1       21 0.14606621E-01 0.45660848E+03</pdfrwt>
<pdfrwt beam="2">  1       21 0.77172109E-01 0.45660848E+03</pdfrwt>
<totfact> 0.56498167E+04</totfact>
</mgrwt>
</event>
<event>
 7    0  0.4712189E-002  0.4588931E+03  0.7546771E-02  0.1025103E+00
         21   -1    0    0  502  501  0.00000000000E+00  0.00000000000E+00  0.36189661084E+03  0.36189661084E+03  0.00000000000E+00 0. -1.
         21   -1    0    0  501  502 -0.00000000000E+00 -0.00000000000E+00 -0.14547172737E+03  0.14547172737E+03  0.00000000000E+00 0. -1.
      99926    2    1    2    0    0  0.00000000000E+00  0.14210854715E-13  0.21642488347E+03  0.50736833821E+03  0.45889312529E+03 0.  0.
      99925    2    3    3    0    0 -0.19500743527E+02 -0.52824485378E+02  0.24885428221E+03  0.36640777899E+03  0.26297433616E+03 0.  0.
         25    1    4    4    0    0  0.19293561473E+02 -0.44620950294E+02  0.15527525822E+03  0.20523446259E+03  0.12509000000E+03 0.  0.
         25    1    4    4    0    0 -0.38794305000E+02 -0.82035350846E+01  0.93579023990E+02  0.16117331640E+03  0.12509000000E+03 0.  0.
         25    1    3    3    0    0  0.19500743527E+02  0.52824485378E+02 -0.32429398744E+02  0.14096055922E+03  0.12509000000E+03 0.  0.
<mgrwt>
<rscale>  2 0.45889313E+03</rscale>
<asrwt>0</asrwt>
<pdfrwt beam="1">  1       21 0.53220090E-01 0.45889313E+03</pdfrwt>
<pdfrwt beam="2">  1       21 0.21392901E-01 0.45889313E+03</pdfrwt>
<totfact> 0.62793148E+04</totfact>
</mgrwt>
</event>
<event>
 7    0  0.4712189E-002  0.4544980E+03  0.7546771E-02  0.1026389E+00
         21   -1    0    0  502  501  0.00000000000E+00  0.00000000000E+00  0.12194145316E+03  0.12194145316E+03  0.00000000000E+00 0. -1.
         21   -1    0    0  501  502 -0.00000000000E+00 -0.00000000000E+00 -0.42349929334E+03  0.42349929334E+03  0.00000000000E+00 0. -1.
      99926    2    1    2    0    0 -0.71054273576E-14  0.14210854715E-13 -0.30155784018E+03  0.54544074649E+03  0.45449804946E+03 0.  0.
      99925    2    3    3    0    0  0.38682285988E+02 -0.96731532606E+02 -0.24116384206E+03  0.37180822719E+03  0.26311223925E+03 0.  0.
         25    1    4    4    0    0  0.85900209449E+01 -0.88348749209E+02 -0.14371922756E+03  0.21019518171E+03  0.12509000000E+03 0.  0.
         25    1    3    3    0    0 -0.38682285988E+02  0.96731532606E+02 -0.60393998122E+02  0.17363251930E+03  0.12509000000E+03 0.  0.
         25    1    4    4    0    0  0.30092265043E+02 -0.83827833966E+01 -0.97444614507E+02  0.16161304548E+03  0.12509000000E+03 0.  0.
<mgrwt>
<rscale>  2 0.45449805E+03</rscale>
<asrwt>0</asrwt>
<pdfrwt beam="1">  1       21 0.17932566E-01 0.45449805E+03</pdfrwt>
<pdfrwt beam="2">  1       21 0.62279309E-01 0.45449805E+03</pdfrwt>
<totfact> 0.62416339E+04</totfact>
</mgrwt>
</event>
<event>
 7    0  0.4712189E-002  0.4549619E+03  0.7546771E-02  0.1026253E+00
         21   -1    0    0  502  501  0.00000000000E+00  0.00000000000E+00  0.26785833245E+03  0.26785833245E+03  0.00000000000E+00 0.  1.
         21   -1    0    0  501  502 -0.00000000000E+00 -0.00000000000E+00 -0.19319007658E+03  0.19319007658E+03  0.00000000000E+00 0.  1.
      99926    2    1    2    0    0  0.00000000000E+00  0.14210854715E-13  0.74668255872E+02  0.46104840903E+03  0.45496185229E+03 0.  0.
      99925    2    3    3    0    0 -0.36017176682E+02  0.10344363542E+03  0.17215330515E+02  0.28513317531E+03  0.26269133471E+03 0.  0.
         25    1    4    4    0    0 -0.44409103395E+02  0.67368658036E+02  0.36477505430E+02  0.15326063112E+03  0.12509000000E+03 0.  0.
         25    1    4    4    0    0  0.83919267134E+01  0.36074977380E+02 -0.19262174915E+02  0.13187254418E+03  0.12509000000E+03 0.  0.
         25    1    3    3    0    0  0.36017176682E+02 -0.10344363542E+03  0.57452925357E+02  0.17591523372E+03  0.12509000000E+03 0.  0.
<mgrwt>
<rscale>  2 0.45496185E+03</rscale>
<asrwt>0</asrwt>
<pdfrwt beam="1">  1       21 0.39390931E-01 0.45496185E+03</pdfrwt>
<pdfrwt beam="2">  1       21 0.28410305E-01 0.45496185E+03</pdfrwt>
<totfact> 0.68124889E+04</totfact>
</mgrwt>
</event>
<event>
 7    0  0.4712189E-002  0.4572749E+03  0.7546771E-02  0.1025575E+00
         21   -1    0    0  502  501  0.00000000000E+00  0.00000000000E+00  0.28389519270E+03  0.28389519270E+03  0.00000000000E+00 0.  1.
         21   -1    0    0  501  502 -0.00000000000E+00 -0.00000000000E+00 -0.18413511826E+03  0.18413511826E+03  0.00000000000E+00 0.  1.
      99926    2    1    2    0    0  0.00000000000E+00  0.00000000000E+00  0.99760074440E+02  0.46803031096E+03  0.45727486212E+03 0.  0.
      99925    2    3    3    0    0  0.49568666960E+02  0.55504937753E+02  0.15266041570E+03  0.31316325486E+03  0.26311246799E+03 0.  0.
         25    1    4    4    0    0  0.58239040384E+02  0.52259879643E+02  0.91480873903E+02  0.17360627649E+03  0.12509000000E+03 0.  0.
         25    1    4    4    0    0 -0.86703734245E+01  0.32450581096E+01  0.61179541801E+02  0.13955697837E+03  0.12509000000E+03 0.  0.
         25    1    3    3    0    0 -0.49568666960E+02 -0.55504937753E+02 -0.52900341264E+02  0.15486705610E+03  0.12509000000E+03 0.  0.
<mgrwt>
<rscale>  2 0.45727486E+03</rscale>
<asrwt>0</asrwt>
<pdfrwt beam="1">  1       21 0.41749293E-01 0.45727486E+03</pdfrwt>
<pdfrwt beam="2">  1       21 0.27078694E-01 0.45727486E+03</pdfrwt>
<totfact> 0.66377108E+04</totfact>
</mgrwt>
</event>
<event>
 7    0  0.4712189E-002  0.4421728E+03  0.7546771E-02  0.1030082E+00
         21   -1    0    0  502  501  0.00000000000E+00  0.00000000000E+00  0.37078614515E+03  0.37078614515E+03  0.00000000000E+00 0.  1.
         21   -1    0    0  501  502 -0.00000000000E+00 -0.00000000000E+00 -0.13182586418E+03  0.13182586418E+03  0.00000000000E+00 0.  1.
      99926    2    1    2    0    0  0.00000000000E+00  0.00000000000E+00  0.23896028096E+03  0.50261200933E+03  0.44217283504E+03 0.  0.
      99925    2    3    3    0    0 -0.18461480336E+02  0.87976264848E+02  0.10305219841E+03  0.29718765723E+03  0.26385620815E+03 0.  0.
         25    1    4    4    0    0  0.31655542023E+02  0.41402009436E+02  0.40021601446E+02  0.14129910265E+03  0.12509000000E+03 0.  0.
         25    1    4    4    0    0 -0.50117022359E+02  0.46574255413E+02  0.63030596968E+02  0.15588855459E+03  0.12509000000E+03 0.  0.
         25    1    3    3    0    0  0.18461480336E+02 -0.87976264848E+02  0.13590808255E+03  0.20542435210E+03  0.12509000000E+03 0.  0.
<mgrwt>
<rscale>  2 0.44217284E+03</rscale>
<asrwt>0</asrwt>
<pdfrwt beam="1">  1       21 0.54527374E-01 0.44217284E+03</pdfrwt>
<pdfrwt beam="2">  1       21 0.19386157E-01 0.44217284E+03</pdfrwt>
<totfact> 0.72158123E+04</totfact>
</mgrwt>
</event>
<event>
 7    0  0.4712189E-002  0.4581214E+03  0.7546771E-02  0.1025327E+00
         21   -1    0    0  502  501  0.00000000000E+00  0.00000000000E+00  0.43273005972E+03  0.43273005972E+03  0.00000000000E+00 0. -1.
         21   -1    0    0  501  502 -0.00000000000E+00 -0.00000000000E+00 -0.12125064803E+03  0.12125064803E+03  0.00000000000E+00 0. -1.
      99926    2    1    2    0    0  0.35527136788E-14  0.00000000000E+00  0.31147941168E+03  0.55398070775E+03  0.45812138201E+03 0.  0.
      99925    2    3    3    0    0 -0.29111788207E+02 -0.85538756928E+02  0.28364945224E+03  0.39718022978E+03  0.26292726755E+03 0.  0.
         25    1    3    3    0    0  0.29111788207E+02  0.85538756928E+02  0.27829959441E+02  0.15680047797E+03  0.12509000000E+03 0.  0.
         25    1    4    4    0    0 -0.31506936975E+02 -0.14402469426E+02  0.99986500456E+02  0.16384421435E+03  0.12509000000E+03 0.  0.
         25    1    4    4    0    0  0.23951487682E+01 -0.71136287502E+02  0.18366295179E+03  0.23333601543E+03  0.12509000000E+03 0.  0.
<mgrwt>
<rscale>  2 0.45812138E+03</rscale>
<asrwt>0</asrwt>
<pdfrwt beam="1">  1       21 0.63636773E-01 0.45812138E+03</pdfrwt>
<pdfrwt beam="2">  1       21 0.17830978E-01 0.45812138E+03</pdfrwt>
<totfact> 0.60106173E+04</totfact>
</mgrwt>
</event>
<event>
 7    0  0.4712189E-002  0.4596071E+03  0.7546771E-02  0.1024895E+00
         21   -1    0    0  502  501  0.00000000000E+00  0.00000000000E+00  0.24979673838E+03  0.24979673838E+03  0.00000000000E+00 0. -1.
         21   -1    0    0  501  502 -0.00000000000E+00 -0.00000000000E+00 -0.21141056173E+03  0.21141056173E+03  0.00000000000E+00 0. -1.
      99926    2    1    2    0    0  0.00000000000E+00  0.00000000000E+00  0.38386176642E+02  0.46120730011E+03  0.45960708776E+03 0.  0.
      99925    2    3    3    0    0  0.52443523263E+02 -0.67615404322E+02  0.10473741515E+03  0.29576195872E+03  0.26302669838E+03 0.  0.
         25    1    4    4    0    0  0.55022997209E+02 -0.80781887155E+01  0.65470983476E+02  0.15174565935E+03  0.12509000000E+03 0.  0.
         25    1    3    3    0    0 -0.52443523263E+02  0.67615404322E+02 -0.66351238513E+02  0.16544534138E+03  0.12509000000E+03 0.  0.
         25    1    4    4    0    0 -0.25794739460E+01 -0.59537215606E+02  0.39266431678E+02  0.14401629937E+03  0.12509000000E+03 0.  0.
<mgrwt>
<rscale>  2 0.45960709E+03</rscale>
<asrwt>0</asrwt>
<pdfrwt beam="1">  1       21 0.36734814E-01 0.45960709E+03</pdfrwt>
<pdfrwt beam="2">  1       21 0.31089788E-01 0.45960709E+03</pdfrwt>
<totfact> 0.65646977E+04</totfact>
</mgrwt>
</event>
<event>
 7    0  0.4712189E-002  0.4791200E+03  0.7546771E-02  0.1019377E+00
         21   -1    0    0  502  501  0.00000000000E+00  0.00000000000E+00  0.23513712946E+03  0.23513712946E+03  0.00000000000E+00 0.  1.
         21   -1    0    0  501  502 -0.00000000000E+00 -0.00000000000E+00 -0.24406608477E+03  0.24406608477E+03  0.00000000000E+00 0.  1.
      99926    2    1    2    0    0  0.35527136788E-14  0.00000000000E+00 -0.89289553043E+01  0.47920321423E+03  0.47912002075E+03 0.  0.
      99925    2    3    3    0    0 -0.11815536394E+02 -0.66946087692E+02 -0.12158427154E+03  0.29765400896E+03  0.26304712203E+03 0.  0.
         25    1    4    4    0    0 -0.43844722318E+02 -0.25070515172E+02 -0.47580903715E+02  0.14304663891E+03  0.12509000000E+03 0.  0.
         25    1    4    4    0    0  0.32029185924E+02 -0.41875572520E+02 -0.74003367824E+02  0.15460737005E+03  0.12509000000E+03 0.  0.
         25    1    3    3    0    0  0.11815536394E+02  0.66946087692E+02  0.11265531623E+03  0.18154920527E+03  0.12509000000E+03 0.  0.
<mgrwt>
<rscale>  2 0.47912002E+03</rscale>
<asrwt>0</asrwt>
<pdfrwt beam="1">  1       21 0.34578990E-01 0.47912002E+03</pdfrwt>
<pdfrwt beam="2">  1       21 0.35892071E-01 0.47912002E+03</pdfrwt>
<totfact> 0.55361366E+04</totfact>
</mgrwt>
</event>
<event>
 7    0  0.4712189E-002  0.4531583E+03  0.7546771E-02  0.1026784E+00
         21   -1    0    0  502  501  0.00000000000E+00  0.00000000000E+00  0.40437643084E+03  0.40437643084E+03  0.00000000000E+00 0. -1.
         21   -1    0    0  501  502 -0.00000000000E+00 -0.00000000000E+00 -0.12695625797E+03  0.12695625797E+03  0.00000000000E+00 0. -1.
      99926    2    1    2    0    0 -0.14210854715E-13  0.35527136788E-14  0.27742017288E+03  0.53133268881E+03  0.45315833203E+03 0.  0.
      99925    2    3    3    0    0 -0.78835139779E+02  0.83794175790E+01  0.83060370046E+02  0.28697959397E+03  0.26300773445E+03 0.  0.
         25    1    3    3    0    0  0.78835139779E+02 -0.83794175790E+01  0.19435980283E+03  0.24435309484E+03  0.12509000000E+03 0.  0.
         25    1    4    4    0    0 -0.40820143105E+02 -0.17808156003E+02  0.58679506499E+01  0.13291108098E+03  0.12509000000E+03 0.  0.
         25    1    4    4    0    0 -0.38014996675E+02  0.26187573582E+02  0.77192419396E+02  0.15406851299E+03  0.12509000000E+03 0.  0.
<mgrwt>
<rscale>  2 0.45315833E+03</rscale>
<asrwt>0</asrwt>
<pdfrwt beam="1">  1       21 0.59467122E-01 0.45315833E+03</pdfrwt>
<pdfrwt beam="2">  1       21 0.18670038E-01 0.45315833E+03</pdfrwt>
<totfact> 0.64045735E+04</totfact>
</mgrwt>
</event>
<event>
 7    0  0.4712189E-002  0.4561323E+03  0.7546771E-02  0.1025909E+00
         21   -1    0    0  502  501  0.00000000000E+00  0.00000000000E+00  0.58061571468E+03  0.58061571468E+03  0.00000000000E+00 0.  1.
         21   -1    0    0  501  502 -0.00000000000E+00 -0.00000000000E+00 -0.89584493631E+02  0.89584493631E+02  0.00000000000E+00 0.  1.
      99926    2    1    2    0    0  0.35527136788E-14  0.00000000000E+00  0.49103122105E+03  0.67020020831E+03  0.45613228254E+03 0.  0.
      99925    2    3    3    0    0  0.31910223574E+02 -0.45288175130E+02  0.16208999591E+03  0.31394311172E+03  0.26309281527E+03 0.  0.
         25    1    4    4    0    0  0.50685691072E+01 -0.38355820505E+02  0.12385567460E+03  0.18023483456E+03  0.12509000000E+03 0.  0.
         25    1    4    4    0    0  0.26841654467E+02 -0.69323546243E+01  0.38234321317E+02  0.13370827716E+03  0.12509000000E+03 0.  0.
         25    1    3    3    0    0 -0.31910223574E+02  0.45288175130E+02  0.32894122513E+03  0.35625709659E+03  0.12509000000E+03 0.  0.
<mgrwt>
<rscale>  2 0.45613228E+03</rscale>
<asrwt>0</asrwt>
<pdfrwt beam="1">  1       21 0.85384662E-01 0.45613228E+03</pdfrwt>
<pdfrwt beam="2">  1       21 0.13174191E-01 0.45613228E+03</pdfrwt>
<totfact> 0.54066825E+04</totfact>
</mgrwt>
</event>
<event>
 7    0  0.4712189E-002  0.4489589E+03  0.7546771E-02  0.1028033E+00
         21   -1    0    0  502  501  0.00000000000E+00  0.00000000000E+00  0.10034073777E+03  0.10034073777E+03  0.00000000000E+00 0. -1.
         21   -1    0    0  501  502 -0.00000000000E+00 -0.00000000000E+00 -0.50219901216E+03  0.50219901216E+03  0.00000000000E+00 0. -1.
      99926    2    1    2    0    0  0.00000000000E+00  0.35527136788E-14 -0.40185827439E+03  0.60253974994E+03  0.44895888181E+03 0.  0.
      99925    2    3    3    0    0  0.86179780849E+02  0.28678345148E+02 -0.17782595159E+03  0.33034975771E+03  0.26317198038E+03 0.  0.
         25    1    4    4    0    0  0.69832255177E+02 -0.16564018274E+02 -0.86456760891E+02  0.16814633558E+03  0.12509000000E+03 0.  0.
         25    1    3    3    0    0 -0.86179780849E+02 -0.28678345148E+02 -0.22403232280E+03  0.27218999222E+03  0.12509000000E+03 0.  0.
         25    1    4    4    0    0  0.16347525672E+02  0.45242363422E+02 -0.91369190698E+02  0.16220342214E+03  0.12509000000E+03 0.  0.
<mgrwt>
<rscale>  2 0.44895888E+03</rscale>
<asrwt>0</asrwt>
<pdfrwt beam="1">  1       21 0.14755991E-01 0.44895888E+03</pdfrwt>
<pdfrwt beam="2">  1       21 0.73852797E-01 0.44895888E+03</pdfrwt>
<totfact> 0.61400652E+04</totfact>
</mgrwt>
</event>
<event>
 7    0  0.4712189E-002  0.4602115E+03  0.7546771E-02  0.1024720E+00
         21   -1    0    0  502  501  0.00000000000E+00  0.00000000000E+00  0.18476588882E+03  0.18476588882E+03  0.00000000000E+00 0.  1.
         21   -1    0    0  501  502 -0.00000000000E+00 -0.00000000000E+00 -0.28657160017E+03  0.28657160017E+03  0.00000000000E+00 0.  1.
      99926    2    1    2    0    0  0.00000000000E+00 -0.17763568394E-14 -0.10180571135E+03  0.47133748899E+03  0.46021150102E+03 0.  0.
      99925    2    3    3    0    0  0.73226838559E+02 -0.47707771026E+01 -0.15835410600E+03  0.31567709186E+03  0.26304196099E+03 0.  0.
         25    1    4    4    0    0  0.35110371456E+02  0.17423422629E+02 -0.37772459242E+02  0.13642060188E+03  0.12509000000E+03 0.  0.
         25    1    4    4    0    0  0.38116467103E+02 -0.22194199731E+02 -0.12058164675E+03  0.17925648998E+03  0.12509000000E+03 0.  0.
         25    1    3    3    0    0 -0.73226838559E+02  0.47707771026E+01  0.56548394644E+02  0.15566039714E+03  0.12509000000E+03 0.  0.
<mgrwt>
<rscale>  2 0.46021150E+03</rscale>
<asrwt>0</asrwt>
<pdfrwt beam="1">  1       21 0.27171454E-01 0.46021150E+03</pdfrwt>
<pdfrwt beam="2">  1       21 0.42142882E-01 0.46021150E+03</pdfrwt>
<totfact> 0.64623581E+04</totfact>
</mgrwt>
</event>
<event>
 7    0  0.4712189E-002  0.4303713E+03  0.7546771E-02  0.1033743E+00
         21   -1    0    0  502  501  0.00000000000E+00  0.00000000000E+00  0.24899049573E+03  0.24899049573E+03  0.00000000000E+00 0. -1.
         21   -1    0    0  501  502 -0.00000000000E+00 -0.00000000000E+00 -0.18597042449E+03  0.18597042449E+03  0.00000000000E+00 0. -1.
      99926    2    1    2    0    0  0.00000000000E+00  0.00000000000E+00  0.63020071244E+02  0.43496092022E+03  0.43037131961E+03 0.  0.
      99925    2    3    3    0    0  0.39307359848E+02  0.67599056137E+02  0.52687279883E-01  0.27456422302E+03  0.26319348180E+03 0.  0.
         25    1    3    3    0    0 -0.39307359848E+02 -0.67599056137E+02  0.62967383964E+02  0.16039669720E+03  0.12509000000E+03 0.  0.
         25    1    4    4    0    0 -0.47189234054E+01  0.26974796602E+01 -0.15242831453E+02  0.12613245675E+03  0.12509000000E+03 0.  0.
         25    1    4    4    0    0  0.44026283253E+02  0.64901576477E+02  0.15295518733E+02  0.14843176628E+03  0.12509000000E+03 0.  0.
<mgrwt>
<rscale>  2 0.43037132E+03</rscale>
<asrwt>0</asrwt>
<pdfrwt beam="1">  1       21 0.36616249E-01 0.43037132E+03</pdfrwt>
<pdfrwt beam="2">  1       21 0.27348592E-01 0.43037132E+03</pdfrwt>
<totfact> 0.85675923E+04</totfact>
</mgrwt>
</event>
<event>
 7    0  0.4712189E-002  0.4585464E+03  0.7546771E-02  0.1025204E+00
         21   -1    0    0  502  501  0.00000000000E+00  0.00000000000E+00  0.74326579330E+03  0.74326579330E+03  0.00000000000E+00 0. -1.
         21   -1    0    0  501  502 -0.00000000000E+00 -0.00000000000E+00 -0.70723296895E+02  0.70723296895E+02  0.00000000000E+00 0. -1.
      99926    2    1    2    0    0  0.88817841970E-15  0.00000000000E+00  0.67254249640E+03  0.81398909020E+03  0.45854643111E+03 0.  0.
      99925    2    3    3    0    0  0.51054410612E+01  0.12225492184E+02  0.62732045948E+03  0.68031759394E+03  0.26291736640E+03 0.  0.
         25    1    3    3    0    0 -0.51054410612E+01 -0.12225492184E+02  0.45222036924E+02  0.13367149626E+03  0.12509000000E+03 0.  0.
         25    1    4    4    0    0 -0.94429177946E+00 -0.14624032121E+02  0.40045345184E+03  0.41979188796E+03  0.12509000000E+03 0.  0.
         25    1    4    4    0    0  0.60497328407E+01  0.26849524304E+02  0.22686700764E+03  0.26052570598E+03  0.12509000000E+03 0.  0.
<mgrwt>
<rscale>  2 0.45854643E+03</rscale>
<asrwt>0</asrwt>
<pdfrwt beam="1">  1       21 0.10930379E+00 0.45854643E+03</pdfrwt>
<pdfrwt beam="2">  1       21 0.10400485E-01 0.45854643E+03</pdfrwt>
<totfact> 0.45807474E+04</totfact>
</mgrwt>
</event>
<event>
 7    0  0.4712189E-002  0.4544786E+03  0.7546771E-02  0.1026395E+00
         21   -1    0    0  502  501  0.00000000000E+00  0.00000000000E+00  0.17354822794E+03  0.17354822794E+03  0.00000000000E+00 0. -1.
         21   -1    0    0  501  502 -0.00000000000E+00 -0.00000000000E+00 -0.29754088700E+03  0.29754088700E+03  0.00000000000E+00 0. -1.
      99926    2    1    2    0    0  0.35527136788E-14  0.00000000000E+00 -0.12399265906E+03  0.47108911494E+03  0.45447857454E+03 0.  0.
      99925    2    3    3    0    0 -0.24956650802E+02 -0.25276747384E+02 -0.18869176398E+03  0.32584714217E+03  0.26326798113E+03 0.  0.
         25    1    4    4    0    0 -0.27227244720E+02 -0.50371830064E+02 -0.88112512548E+02  0.16337064328E+03  0.12509000000E+03 0.  0.
         25    1    3    3    0    0  0.24956650802E+02  0.25276747384E+02  0.64699104915E+02  0.14524197277E+03  0.12509000000E+03 0.  0.
         25    1    4    4    0    0  0.22705939183E+01  0.25095082680E+02 -0.10057925143E+03  0.16247649888E+03  0.12509000000E+03 0.  0.
<mgrwt>
<rscale>  2 0.45447857E+03</rscale>
<asrwt>0</asrwt>
<pdfrwt beam="1">  1       21 0.25521799E-01 0.45447857E+03</pdfrwt>
<pdfrwt beam="2">  1       21 0.43756012E-01 0.45447857E+03</pdfrwt>
<totfact> 0.67634158E+04</totfact>
</mgrwt>
</event>
<event>
 7    0  0.4712189E-002  0.4516639E+03  0.7546771E-02  0.1027227E+00
         21   -1    0    0  502  501  0.00000000000E+00  0.00000000000E+00  0.28664343107E+03  0.28664343107E+03  0.00000000000E+00 0. -1.
         21   -1    0    0  501  502 -0.00000000000E+00 -0.00000000000E+00 -0.17792161994E+03  0.17792161994E+03  0.00000000000E+00 0. -1.
      99926    2    1    2    0    0  0.35527136788E-14 -0.14210854715E-13  0.10872181113E+03  0.46456505101E+03  0.45166387326E+03 0.  0.
      99925    2    3    3    0    0 -0.12277134999E+02  0.10283120378E+03  0.11002635437E+03  0.30216371343E+03  0.26167179165E+03 0.  0.
         25    1    3    3    0    0  0.12277134999E+02 -0.10283120378E+03 -0.13045432377E+01  0.16240133758E+03  0.12509000000E+03 0.  0.
         25    1    4    4    0    0 -0.42667893948E+02  0.64253586232E+02  0.61001240781E+02  0.15911546749E+03  0.12509000000E+03 0.  0.
         25    1    4    4    0    0  0.30390758949E+02  0.38577617549E+02  0.49025113591E+02  0.14304824594E+03  0.12509000000E+03 0.  0.
<mgrwt>
<rscale>  2 0.45166387E+03</rscale>
<asrwt>0</asrwt>
<pdfrwt beam="1">  1       21 0.42153446E-01 0.45166387E+03</pdfrwt>
<pdfrwt beam="2">  1       21 0.26164944E-01 0.45166387E+03</pdfrwt>
<totfact> 0.69667696E+04</totfact>
</mgrwt>
</event>
<event>
 7    0  0.4712189E-002  0.4397498E+03  0.7546771E-02  0.1030824E+00
         21   -1    0    0  502  501  0.00000000000E+00  0.00000000000E+00  0.11577915686E+03  0.11577915686E+03  0.00000000000E+00 0.  1.
         21   -1    0    0  501  502 -0.00000000000E+00 -0.00000000000E+00 -0.41756188415E+03  0.41756188415E+03  0.00000000000E+00 0.  1.
      99926    2    1    2    0    0  0.00000000000E+00  0.00000000000E+00 -0.30178272729E+03  0.53334104101E+03  0.43974976014E+03 0.  0.
      99925    2    3    3    0    0 -0.85190301195E+02  0.44637309213E+02 -0.21756034644E+03  0.35448133530E+03  0.26282053942E+03 0.  0.
         25    1    3    3    0    0  0.85190301195E+02 -0.44637309213E+02 -0.84222380852E+02  0.17885970571E+03  0.12509000000E+03 0.  0.
         25    1    4    4    0    0 -0.39511136672E+01  0.20519555159E+02 -0.78609462090E+02  0.14920998316E+03  0.12509000000E+03 0.  0.
         25    1    4    4    0    0 -0.81239187528E+02  0.24117754055E+02 -0.13895088435E+03  0.20527135214E+03  0.12509000000E+03 0.  0.
<mgrwt>
<rscale>  2 0.43974976E+03</rscale>
<asrwt>0</asrwt>
<pdfrwt beam="1">  1       21 0.17026347E-01 0.43974976E+03</pdfrwt>
<pdfrwt beam="2">  1       21 0.61406159E-01 0.43974976E+03</pdfrwt>
<totfact> 0.71193149E+04</totfact>
</mgrwt>
</event>
<event>
 7    0  0.4712189E-002  0.4610864E+03  0.7546771E-02  0.1024467E+00
         21   -1    0    0  502  501  0.00000000000E+00  0.00000000000E+00  0.10526810883E+03  0.10526810883E+03  0.00000000000E+00 0.  1.
         21   -1    0    0  501  502 -0.00000000000E+00 -0.00000000000E+00 -0.50490273798E+03  0.50490273798E+03  0.00000000000E+00 0.  1.
      99926    2    1    2    0    0  0.00000000000E+00  0.17763568394E-14 -0.39963462915E+03  0.61017084682E+03  0.46108635361E+03 0.  0.
      99925    2    3    3    0    0 -0.39350204819E+02 -0.15239710685E+02 -0.39671889097E+03  0.47812276076E+03  0.26350485481E+03 0.  0.
         25    1    4    4    0    0 -0.40431357536E+02 -0.13493579983E+02 -0.26693960475E+03  0.29786075951E+03  0.12509000000E+03 0.  0.
         25    1    4    4    0    0  0.10811527165E+01 -0.17461307027E+01 -0.12977928622E+03  0.18026200125E+03  0.12509000000E+03 0.  0.
         25    1    3    3    0    0  0.39350204819E+02  0.15239710685E+02 -0.29157381839E+01  0.13204808605E+03  0.12509000000E+03 0.  0.
<mgrwt>
<rscale>  2 0.46108635E+03</rscale>
<asrwt>0</asrwt>
<pdfrwt beam="1">  1       21 0.15480604E-01 0.46108635E+03</pdfrwt>
<pdfrwt beam="2">  1       21 0.74250402E-01 0.46108635E+03</pdfrwt>
<totfact> 0.55347237E+04</totfact>
</mgrwt>
</event>
<event>
 7    0  0.4712189E-002  0.4519861E+03  0.7546771E-02  0.1027131E+00
         21   -1    0    0  502  501  0.00000000000E+00  0.00000000000E+00  0.66616664617E+02  0.66616664617E+02  0.00000000000E+00 0. -1.
         21   -1    0    0  501  502 -0.00000000000E+00 -0.00000000000E+00 -0.76666784653E+03  0.76666784653E+03  0.00000000000E+00 0. -1.
      99926    2    1    2    0    0  0.71054273576E-14  0.71054273576E-14 -0.70005118191E+03  0.83328451114E+03  0.45198608299E+03 0.  0.
      99925    2    3    3    0    0  0.59124633929E+02  0.40681710945E+02 -0.28767064350E+03  0.39641388899E+03  0.26313275796E+03 0.  0.
         25    1    4    4    0    0  0.24739841336E+02 -0.19727391914E+02 -0.12320464207E+03  0.17840437682E+03  0.12509000000E+03 0.  0.
         25    1    4    4    0    0  0.34384792593E+02  0.60409102859E+02 -0.16446600143E+03  0.21800951217E+03  0.12509000000E+03 0.  0.
         25    1    3    3    0    0 -0.59124633929E+02 -0.40681710945E+02 -0.41238053841E+03  0.43687062215E+03  0.12509000000E+03 0.  0.
<mgrwt>
<rscale>  2 0.45198608E+03</rscale>
<asrwt>0</asrwt>
<pdfrwt beam="1">  1       21 0.97965685E-02 0.45198608E+03</pdfrwt>
<pdfrwt beam="2">  1       21 0.11274527E+00 0.45198608E+03</pdfrwt>
<totfact> 0.47305360E+04</totfact>
</mgrwt>
</event>
<event>
 7    0  0.4712189E-002  0.4534324E+03  0.7546771E-02  0.1026703E+00
         21   -1    0    0  502  501  0.00000000000E+00  0.00000000000E+00  0.26603216650E+03  0.26603216650E+03  0.00000000000E+00 0. -1.
         21   -1    0    0  501  502 -0.00000000000E+00 -0.00000000000E+00 -0.19321062215E+03  0.19321062215E+03  0.00000000000E+00 0. -1.
      99926    2    1    2    0    0  0.88817841970E-15  0.00000000000E+00  0.72821544348E+02  0.45924278865E+03  0.45343242232E+03 0.  0.
      99925    2    3    3    0    0 -0.46599369878E+01 -0.39163416917E+02 -0.60496863515E+02  0.27222194968E+03  0.26246796215E+03 0.  0.
         25    1    4    4    0    0 -0.14953455211E+02  0.18112279771E+02 -0.24093189662E+02  0.12953628985E+03  0.12509000000E+03 0.  0.
         25    1    4    4    0    0  0.10293518223E+02 -0.57275696687E+02 -0.36403673853E+02  0.14268565982E+03  0.12509000000E+03 0.  0.
         25    1    3    3    0    0  0.46599369878E+01  0.39163416917E+02  0.13331840786E+03  0.18702083898E+03  0.12509000000E+03 0.  0.
<mgrwt>
<rscale>  2 0.45343242E+03</rscale>
<asrwt>0</asrwt>
<pdfrwt beam="1">  1       21 0.39122378E-01 0.45343242E+03</pdfrwt>
<pdfrwt beam="2">  1       21 0.28413327E-01 0.45343242E+03</pdfrwt>
<totfact> 0.69095457E+04</totfact>
</mgrwt>
</event>
<event>
 7    0  0.4712189E-002  0.4606284E+03  0.7546771E-02  0.1024599E+00
         21   -1    0    0  502  501  0.00000000000E+00  0.00000000000E+00  0.73276478703E+03  0.73276478703E+03  0.00000000000E+00 0. -1.
         21   -1    0    0  501  502 -0.00000000000E+00 -0.00000000000E+00 -0.72389695073E+02  0.72389695073E+02  0.00000000000E+00 0. -1.
      99926    2    1    2    0    0  0.00000000000E+00  0.00000000000E+00  0.66037509196E+03  0.80515448210E+03  0.46062835125E+03 0.  0.
      99925    2    3    3    0    0  0.50696195177E+02 -0.10320735489E+03  0.46286265922E+03  0.54461555700E+03  0.26294942730E+03 0.  0.
         25    1    4    4    0    0 -0.61762668749E+01 -0.68609321748E+02  0.26808896748E+03  0.30375086483E+03  0.12509000000E+03 0.  0.
         25    1    4    4    0    0  0.56872462052E+02 -0.34598033144E+02  0.19477369175E+03  0.24086469217E+03  0.12509000000E+03 0.  0.
         25    1    3    3    0    0 -0.50696195177E+02  0.10320735489E+03  0.19751243273E+03  0.26053892510E+03  0.12509000000E+03 0.  0.
<mgrwt>
<rscale>  2 0.46062835E+03</rscale>
<asrwt>0</asrwt>
<pdfrwt beam="1">  1       21 0.10775952E+00 0.46062835E+03</pdfrwt>
<pdfrwt beam="2">  1       21 0.10645544E-01 0.46062835E+03</pdfrwt>
<totfact> 0.45474453E+04</totfact>
</mgrwt>
</event>
<event>
 7    0  0.4712189E-002  0.4530406E+03  0.7546771E-02  0.1026819E+00
         21   -1    0    0  502  501  0.00000000000E+00  0.00000000000E+00  0.22499537619E+03  0.22499537619E+03  0.00000000000E+00 0.  1.
         21   -1    0    0  501  502 -0.00000000000E+00 -0.00000000000E+00 -0.22805555636E+03  0.22805555636E+03  0.00000000000E+00 0.  1.
      99926    2    1    2    0    0  0.71054273576E-14  0.00000000000E+00 -0.30601801723E+01  0.45305093256E+03  0.45304059728E+03 0.  0.
      99925    2    3    3    0    0 -0.55944539373E+02 -0.73827007377E+02 -0.63727021672E+02  0.28599348058E+03  0.26296562349E+03 0.  0.
         25    1    4    4    0    0 -0.36691988249E+02 -0.13938161314E+02  0.24473087066E+01  0.13112616734E+03  0.12509000000E+03 0.  0.
         25    1    4    4    0    0 -0.19252551124E+02 -0.59888846063E+02 -0.66174330378E+02  0.15486731323E+03  0.12509000000E+03 0.  0.
         25    1    3    3    0    0  0.55944539373E+02  0.73827007377E+02  0.60666841499E+02  0.16705745198E+03  0.12509000000E+03 0.  0.
<mgrwt>
<rscale>  2 0.45304060E+03</rscale>
<asrwt>0</asrwt>
<pdfrwt beam="1">  1       21 0.33087555E-01 0.45304060E+03</pdfrwt>
<pdfrwt beam="2">  1       21 0.33537582E-01 0.45304060E+03</pdfrwt>
<totfact> 0.69773285E+04</totfact>
</mgrwt>
</event>
<event>
 7    0  0.4712189E-002  0.4559472E+03  0.7546771E-02  0.1025963E+00
         21   -1    0    0  502  501  0.00000000000E+00  0.00000000000E+00  0.14446906148E+03  0.14446906148E+03  0.00000000000E+00 0. -1.
         21   -1    0    0  501  502 -0.00000000000E+00 -0.00000000000E+00 -0.35974461910E+03  0.35974461910E+03  0.00000000000E+00 0. -1.
      99926    2    1    2    0    0  0.00000000000E+00  0.17763568394E-14 -0.21527555762E+03  0.50421368059E+03  0.45594722280E+03 0.  0.
      99925    2    3    3    0    0 -0.10341503669E+03 -0.11064478664E+02 -0.18787896126E+03  0.33924345874E+03  0.26262240520E+03 0.  0.
         25    1    3    3    0    0  0.10341503669E+03  0.11064478664E+02 -0.27396596361E+02  0.16497022184E+03  0.12509000000E+03 0.  0.
         25    1    4    4    0    0 -0.85274991845E+02  0.18529824947E+02 -0.96374452202E+02  0.18041818585E+03  0.12509000000E+03 0.  0.
         25    1    4    4    0    0 -0.18140044846E+02 -0.29594303611E+02 -0.91504509059E+02  0.15882527290E+03  0.12509000000E+03 0.  0.
<mgrwt>
<rscale>  2 0.45594722E+03</rscale>
<asrwt>0</asrwt>
<pdfrwt beam="1">  1       21 0.21245450E-01 0.45594722E+03</pdfrwt>
<pdfrwt beam="2">  1       21 0.52903620E-01 0.45594722E+03</pdfrwt>
<totfact> 0.64489406E+04</totfact>
</mgrwt>
</event>
<event>
 7    0  0.4712189E-002  0.4634524E+03  0.7546771E-02  0.1023785E+00
         21   -1    0    0  502  501  0.00000000000E+00  0.00000000000E+00  0.38083465584E+02  0.38083465584E+02  0.00000000000E+00 0. -1.
         21   -1    0    0  501  502 -0.00000000000E+00 -0.00000000000E+00 -0.14099828979E+04  0.14099828979E+04  0.00000000000E+00 0. -1.
      99926    2    1    2    0    0 -0.14210854715E-13  0.00000000000E+00 -0.13718994323E+04  0.14480663635E+04  0.46345241467E+03 0.  0.
      99925    2    3    3    0    0  0.80450757221E+02 -0.86638450730E+02 -0.77985554877E+03  0.83150978569E+03  0.26316401969E+03 0.  0.
         25    1    4    4    0    0  0.18491552699E+02 -0.10256300670E+02 -0.29229028964E+03  0.31863498041E+03  0.12509000000E+03 0.  0.
         25    1    3    3    0    0 -0.80450757221E+02  0.86638450730E+02 -0.59204388354E+03  0.61655657779E+03  0.12509000000E+03 0.  0.
         25    1    4    4    0    0  0.61959204522E+02 -0.76382150060E+02 -0.48756525913E+03  0.51287480527E+03  0.12509000000E+03 0.  0.
<mgrwt>
<rscale>  2 0.46345241E+03</rscale>
<asrwt>0</asrwt>
<pdfrwt beam="1">  1       21 0.56005101E-02 0.46345241E+03</pdfrwt>
<pdfrwt beam="2">  1       21 0.20735041E+00 0.46345241E+03</pdfrwt>
<totfact> 0.23497384E+04</totfact>
</mgrwt>
</event>
<event>
 7    0  0.4712189E-002  0.4333184E+03  0.7546771E-02  0.1032817E+00
         21   -1    0    0  502  501  0.00000000000E+00  0.00000000000E+00  0.45417128068E+03  0.45417128068E+03  0.00000000000E+00 0.  1.
         21   -1    0    0  501  502 -0.00000000000E+00 -0.00000000000E+00 -0.10335574405E+03  0.10335574405E+03  0.00000000000E+00 0.  1.
      99926    2    1    2    0    0  0.00000000000E+00  0.28865798640E-14  0.35081553663E+03  0.55752702473E+03  0.43331840782E+03 0.  0.
      99925    2    3    3    0    0 -0.81577439907E+02 -0.12346824806E+01  0.27822610948E+03  0.39147541775E+03  0.26303389814E+03 0.  0.
         25    1    3    3    0    0  0.81577439907E+02  0.12346824806E+01  0.72589427157E+02  0.16605160697E+03  0.12509000000E+03 0.  0.
         25    1    4    4    0    0 -0.51003588263E+02 -0.40052111292E+02  0.14250422127E+03  0.20040084535E+03  0.12509000000E+03 0.  0.
         25    1    4    4    0    0 -0.30573851645E+02  0.38817428812E+02  0.13572188820E+03  0.19107457241E+03  0.12509000000E+03 0.  0.
<mgrwt>
<rscale>  2 0.43331841E+03</rscale>
<asrwt>0</asrwt>
<pdfrwt beam="1">  1       21 0.66789894E-01 0.43331841E+03</pdfrwt>
<pdfrwt beam="2">  1       21 0.15199374E-01 0.43331841E+03</pdfrwt>
<totfact> 0.73129888E+04</totfact>
</mgrwt>
</event>
<event>
 7    0  0.4712189E-002  0.4423743E+03  0.7546771E-02  0.1030021E+00
         21   -1    0    0  502  501  0.00000000000E+00  0.00000000000E+00  0.66359457477E+03  0.66359457477E+03  0.00000000000E+00 0. -1.
         21   -1    0    0  501  502 -0.00000000000E+00 -0.00000000000E+00 -0.73725383055E+02  0.73725383055E+02  0.00000000000E+00 0. -1.
      99926    2    1    2    0    0  0.35527136788E-14  0.00000000000E+00  0.58986919171E+03  0.73731995782E+03  0.44237434021E+03 0.  0.
      99925    2    3    3    0    0 -0.19203371310E+02  0.65020509899E+02  0.25109258002E+03  0.36987807547E+03  0.26299405087E+03 0.  0.
         25    1    4    4    0    0 -0.41834517358E+02  0.50566815681E+02  0.15610895132E+03  0.21053418362E+03  0.12509000000E+03 0.  0.
         25    1    3    3    0    0  0.19203371310E+02 -0.65020509899E+02  0.33877661169E+03  0.36744188235E+03  0.12509000000E+03 0.  0.
         25    1    4    4    0    0  0.22631146049E+02  0.14453694219E+02  0.94983628692E+02  0.15934389184E+03  0.12509000000E+03 0.  0.
<mgrwt>
<rscale>  2 0.44237434E+03</rscale>
<asrwt>0</asrwt>
<pdfrwt beam="1">  1       21 0.97587434E-01 0.44237434E+03</pdfrwt>
<pdfrwt beam="2">  1       21 0.10841968E-01 0.44237434E+03</pdfrwt>
<totfact> 0.56307647E+04</totfact>
</mgrwt>
</event>
<event>
 7    0  0.4712189E-002  0.4543840E+03  0.7546771E-02  0.1026423E+00
         21   -1    0    0  502  501  0.00000000000E+00  0.00000000000E+00  0.22262804384E+03  0.22262804384E+03  0.00000000000E+00 0. -1.
         21   -1    0    0  501  502 -0.00000000000E+00 -0.00000000000E+00 -0.23184952082E+03  0.23184952082E+03  0.00000000000E+00 0. -1.
      99926    2    1    2    0    0  0.88817841970E-15  0.00000000000E+00 -0.92214769777E+01  0.45447756467E+03  0.45438400186E+03 0.  0.
      99925    2    3    3    0    0  0.46660831161E+01 -0.10545542487E+03 -0.45138230839E+02  0.28690626559E+03  0.26293559360E+03 0.  0.
         25    1    4    4    0    0  0.14003264236E+02 -0.77714262036E+02  0.73887485867E+01  0.14811380637E+03  0.12509000000E+03 0.  0.
         25    1    4    4    0    0 -0.93371811200E+01 -0.27741162838E+02 -0.52526979425E+02  0.13879245921E+03  0.12509000000E+03 0.  0.
         25    1    3    3    0    0 -0.46660831161E+01  0.10545542487E+03  0.35916753861E+02  0.16757129908E+03  0.12509000000E+03 0.  0.
<mgrwt>
<rscale>  2 0.45438400E+03</rscale>
<asrwt>0</asrwt>
<pdfrwt beam="1">  1       21 0.32739418E-01 0.45438400E+03</pdfrwt>
<pdfrwt beam="2">  1       21 0.34095518E-01 0.45438400E+03</pdfrwt>
<totfact> 0.68922217E+04</totfact>
</mgrwt>
</event>
<event>
 7    0  0.4712189E-002  0.4609670E+03  0.7546771E-02  0.1024501E+00
         21   -1    0    0  502  501  0.00000000000E+00  0.00000000000E+00  0.28818766898E+02  0.28818766898E+02  0.00000000000E+00 0.  1.
         21   -1    0    0  501  502 -0.00000000000E+00 -0.00000000000E+00 -0.18433348324E+04  0.18433348324E+04  0.00000000000E+00 0.  1.
      99926    2    1    2    0    0  0.00000000000E+00 -0.14210854715E-13 -0.18145160655E+04  0.18721535993E+04  0.46096696996E+03 0.  0.
      99925    2    3    3    0    0  0.79259740567E+02  0.87368668323E+02 -0.10839116439E+04  0.11215899979E+04  0.26302904987E+03 0.  0.
         25    1    4    4    0    0 -0.15803514483E+01  0.47475814746E+02 -0.52814701134E+03  0.54483320767E+03  0.12509000000E+03 0.  0.
         25    1    3    3    0    0 -0.79259740567E+02 -0.87368668323E+02 -0.73060442162E+03  0.75056360135E+03  0.12509000000E+03 0.  0.
         25    1    4    4    0    0  0.80840092015E+02  0.39892853576E+02 -0.55576463252E+03  0.57675679026E+03  0.12509000000E+03 0.  0.
<mgrwt>
<rscale>  2 0.46096697E+03</rscale>
<asrwt>0</asrwt>
<pdfrwt beam="1">  1       21 0.42380544E-02 0.46096697E+03</pdfrwt>
<pdfrwt beam="2">  1       21 0.27107862E+00 0.46096697E+03</pdfrwt>
<totfact> 0.15195613E+04</totfact>
</mgrwt>
</event>
<event>
 7    0  0.4712189E-002  0.4566316E+03  0.7546771E-02  0.1025763E+00
         21   -1    0    0  502  501  0.00000000000E+00  0.00000000000E+00  0.47474789089E+03  0.47474789089E+03  0.00000000000E+00 0.  1.
         21   -1    0    0  501  502 -0.00000000000E+00 -0.00000000000E+00 -0.10980165205E+03  0.10980165205E+03  0.00000000000E+00 0.  1.
      99926    2    1    2    0    0  0.00000000000E+00  0.00000000000E+00  0.36494623885E+03  0.58454954294E+03  0.45663159210E+03 0.  0.
      99925    2    3    3    0    0  0.37918497672E+02 -0.31789799632E+01  0.36782384800E+03  0.45376840090E+03  0.26298946770E+03 0.  0.
         25    1    4    4    0    0 -0.18328229034E+02 -0.64130374538E+00  0.20513264623E+03  0.24096316295E+03  0.12509000000E+03 0.  0.
         25    1    3    3    0    0 -0.37918497672E+02  0.31789799632E+01 -0.28776091505E+01  0.13078114204E+03  0.12509000000E+03 0.  0.
         25    1    4    4    0    0  0.56246726706E+02 -0.25376762179E+01  0.16269120177E+03  0.21280523795E+03  0.12509000000E+03 0.  0.
<mgrwt>
<rscale>  2 0.45663159E+03</rscale>
<asrwt>0</asrwt>
<pdfrwt beam="1">  1       21 0.69815866E-01 0.45663159E+03</pdfrwt>
<pdfrwt beam="2">  1       21 0.16147302E-01 0.45663159E+03</pdfrwt>
<totfact> 0.58876472E+04</totfact>
</mgrwt>
</event>
<event>
 7    0  0.4712189E-002  0.4592370E+03  0.7546771E-02  0.1025003E+00
         21   -1    0    0  502  501  0.00000000000E+00  0.00000000000E+00  0.21823884234E+04  0.21823884234E+04  0.00000000000E+00 0. -1.
         21   -1    0    0  501  502 -0.00000000000E+00 -0.00000000000E+00 -0.24159154013E+02  0.24159154013E+02  0.00000000000E+00 0. -1.
      99926    2    1    2    0    0 -0.35527136788E-14 -0.71054273576E-14  0.21582292694E+04  0.22065475774E+04  0.45923701087E+03 0.  0.
      99925    2    3    3    0    0  0.23573037092E+02  0.39303535093E+02  0.83563648872E+03  0.87726219514E+03  0.26305923629E+03 0.  0.
         25    1    4    4    0    0  0.39809530483E+01  0.38940686024E+02  0.30959849798E+03  0.33620077791E+03  0.12509000000E+03 0.  0.
         25    1    4    4    0    0  0.19592084044E+02  0.36284906975E+00  0.52603799073E+03  0.54106141723E+03  0.12509000000E+03 0.  0.
         25    1    3    3    0    0 -0.23573037092E+02 -0.39303535093E+02  0.13225927807E+04  0.13292853823E+04  0.12509000000E+03 0.  0.
<mgrwt>
<rscale>  2 0.45923701E+03</rscale>
<asrwt>0</asrwt>
<pdfrwt beam="1">  1       21 0.32093934E+00 0.45923701E+03</pdfrwt>
<pdfrwt beam="2">  1       21 0.35528183E-02 0.45923701E+03</pdfrwt>
<totfact> 0.10278976E+04</totfact>
</mgrwt>
</event>
<event>
 7    0  0.4712189E-002  0.4514487E+03  0.7546771E-02  0.1027291E+00
         21   -1    0    0  502  501  0.00000000000E+00  0.00000000000E+00  0.66186541912E+02  0.66186541912E+02  0.00000000000E+00 0. -1.
         21   -1    0    0  501  502 -0.00000000000E+00 -0.00000000000E+00 -0.76981623255E+03  0.76981623255E+03  0.00000000000E+00 0. -1.
      99926    2    1    2    0    0  0.00000000000E+00 -0.35527136788E-14 -0.70362969064E+03  0.83600277447E+03  0.45144866526E+03 0.  0.
      99925    2    3    3    0    0  0.10854187968E+03  0.15766579080E+02 -0.41860527016E+03  0.50597799808E+03  0.26220876734E+03 0.  0.
         25    1    4    4    0    0  0.61700874181E+02 -0.48792602034E+01 -0.27729560505E+03  0.31043705600E+03  0.12509000000E+03 0.  0.
         25    1    4    4    0    0  0.46841005501E+02  0.20645839284E+02 -0.14130966511E+03  0.19554094208E+03  0.12509000000E+03 0.  0.
         25    1    3    3    0    0 -0.10854187968E+03 -0.15766579080E+02 -0.28502442048E+03  0.33002477639E+03  0.12509000000E+03 0.  0.
<mgrwt>
<rscale>  2 0.45144867E+03</rscale>
<asrwt>0</asrwt>
<pdfrwt beam="1">  1       21 0.97333158E-02 0.45144867E+03</pdfrwt>
<pdfrwt beam="2">  1       21 0.11320826E+00 0.45144867E+03</pdfrwt>
<totfact> 0.47378514E+04</totfact>
</mgrwt>
</event>
<event>
 7    0  0.4712189E-002  0.4440401E+03  0.7546771E-02  0.1029514E+00
         21   -1    0    0  502  501  0.00000000000E+00  0.00000000000E+00  0.48070980696E+02  0.48070980696E+02  0.00000000000E+00 0.  1.
         21   -1    0    0  501  502 -0.00000000000E+00 -0.00000000000E+00 -0.10254190475E+04  0.10254190475E+04  0.00000000000E+00 0.  1.
      99926    2    1    2    0    0 -0.14210854715E-13  0.00000000000E+00 -0.97734806684E+03  0.10734900282E+04  0.44404008485E+03 0.  0.
      99925    2    3    3    0    0  0.86926590033E+02  0.51675877309E+02 -0.58348469981E+03  0.64804615610E+03  0.26321625551E+03 0.  0.
         25    1    3    3    0    0 -0.86926590033E+02 -0.51675877309E+02 -0.39386336703E+03  0.42544387214E+03  0.12509000000E+03 0.  0.
         25    1    4    4    0    0  0.26147116513E+02 -0.12501262455E+02 -0.24890837947E+03  0.28007649444E+03  0.12509000000E+03 0.  0.
         25    1    4    4    0    0  0.60779473521E+02  0.64177139764E+02 -0.33457632034E+03  0.36796966166E+03  0.12509000000E+03 0.  0.
<mgrwt>
<rscale>  2 0.44404008E+03</rscale>
<asrwt>0</asrwt>
<pdfrwt beam="1">  1       21 0.70692613E-02 0.44404008E+03</pdfrwt>
<pdfrwt beam="2">  1       21 0.15079693E+00 0.44404008E+03</pdfrwt>
<totfact> 0.39716598E+04</totfact>
</mgrwt>
</event>
<event>
 7    0  0.4712189E-002  0.4508689E+03  0.7546771E-02  0.1027463E+00
         21   -1    0    0  502  501  0.00000000000E+00  0.00000000000E+00  0.72947613424E+03  0.72947613424E+03  0.00000000000E+00 0.  1.
         21   -1    0    0  501  502 -0.00000000000E+00 -0.00000000000E+00 -0.69667389378E+02  0.69667389378E+02  0.00000000000E+00 0.  1.
      99926    2    1    2    0    0  0.35527136788E-14  0.00000000000E+00  0.65980874487E+03  0.79914352362E+03  0.45086892945E+03 0.  0.
      99925    2    3    3    0    0 -0.24549466009E+02 -0.22396548818E+02  0.60115046283E+03  0.65704291197E+03  0.26309547227E+03 0.  0.
         25    1    3    3    0    0  0.24549466009E+02  0.22396548818E+02  0.58658282033E+02  0.14210061165E+03  0.12509000000E+03 0.  0.
         25    1    4    4    0    0  0.27882538625E+02 -0.97564602857E+01  0.31063584696E+03  0.33617668270E+03  0.12509000000E+03 0.  0.
         25    1    4    4    0    0 -0.52432004634E+02 -0.12640088533E+02  0.29051461588E+03  0.32086622927E+03  0.12509000000E+03 0.  0.
<mgrwt>
<rscale>  2 0.45086893E+03</rscale>
<asrwt>0</asrwt>
<pdfrwt beam="1">  1       21 0.10727590E+00 0.45086893E+03</pdfrwt>
<pdfrwt beam="2">  1       21 0.10245205E-01 0.45086893E+03</pdfrwt>
<totfact> 0.49388073E+04</totfact>
</mgrwt>
</event>
<event>
 7    0  0.4712189E-002  0.4584727E+03  0.7546771E-02  0.1025225E+00
         21   -1    0    0  502  501  0.00000000000E+00  0.00000000000E+00  0.38806496819E+03  0.38806496819E+03  0.00000000000E+00 0. -1.
         21   -1    0    0  501  502 -0.00000000000E+00 -0.00000000000E+00 -0.13541365404E+03  0.13541365404E+03  0.00000000000E+00 0. -1.
      99926    2    1    2    0    0  0.00000000000E+00  0.71054273576E-14  0.25265131415E+03  0.52347862224E+03  0.45847266156E+03 0.  0.
      99925    2    3    3    0    0  0.10550113649E+03 -0.37670155724E+02  0.12220183065E+03  0.31084253340E+03  0.26294536072E+03 0.  0.
         25    1    3    3    0    0 -0.10550113649E+03  0.37670155724E+02  0.13044948350E+03  0.21263608884E+03  0.12509000000E+03 0.  0.
         25    1    4    4    0    0  0.67708674220E+02 -0.50655710492E+02  0.41042079033E+02  0.15646861002E+03  0.12509000000E+03 0.  0.
         25    1    4    4    0    0  0.37792462266E+02  0.12985554768E+02  0.81159751616E+02  0.15437392338E+03  0.12509000000E+03 0.  0.
<mgrwt>
<rscale>  2 0.45847266E+03</rscale>
<asrwt>0</asrwt>
<pdfrwt beam="1">  1       21 0.57068377E-01 0.45847266E+03</pdfrwt>
<pdfrwt beam="2">  1       21 0.19913773E-01 0.45847266E+03</pdfrwt>
<totfact> 0.61927092E+04</totfact>
</mgrwt>
</event>
<event>
 7    0  0.4712189E-002  0.4428436E+03  0.7546771E-02  0.1029878E+00
         21   -1    0    0  502  501  0.00000000000E+00  0.00000000000E+00  0.48712143946E+02  0.48712143946E+02  0.00000000000E+00 0. -1.
         21   -1    0    0  501  502 -0.00000000000E+00 -0.00000000000E+00 -0.10064760096E+04  0.10064760096E+04  0.00000000000E+00 0. -1.
      99926    2    1    2    0    0 -0.71054273576E-14  0.00000000000E+00 -0.95776386565E+03  0.10551881535E+04  0.44284355819E+03 0.  0.
      99925    2    3    3    0    0 -0.47630582405E+02 -0.89262037948E+02 -0.59587209714E+03  0.65914580225E+03  0.26300807721E+03 0.  0.
         25    1    4    4    0    0 -0.86352190202E+01 -0.39614152921E+01 -0.26514522845E+03  0.29332534853E+03  0.12509000000E+03 0.  0.
         25    1    3    3    0    0  0.47630582405E+02  0.89262037948E+02 -0.36189176851E+03  0.39604235129E+03  0.12509000000E+03 0.  0.
         25    1    4    4    0    0 -0.38995363385E+02 -0.85300622656E+02 -0.33072686869E+03  0.36582045372E+03  0.12509000000E+03 0.  0.
<mgrwt>
<rscale>  2 0.44284356E+03</rscale>
<asrwt>0</asrwt>
<pdfrwt beam="1">  1       21 0.71635508E-02 0.44284356E+03</pdfrwt>
<pdfrwt beam="2">  1       21 0.14801117E+00 0.44284356E+03</pdfrwt>
<totfact> 0.40825670E+04</totfact>
</mgrwt>
</event>
<event>
 7    0  0.4712189E-002  0.4547473E+03  0.7546771E-02  0.1026316E+00
         21   -1    0    0  502  501  0.00000000000E+00  0.00000000000E+00  0.27101920316E+03  0.27101920316E+03  0.00000000000E+00 0. -1.
         21   -1    0    0  501  502 -0.00000000000E+00 -0.00000000000E+00 -0.19075691013E+03  0.19075691013E+03  0.00000000000E+00 0. -1.
      99926    2    1    2    0    0  0.00000000000E+00  0.71054273576E-14  0.80262293026E+02  0.46177611330E+03  0.45474733988E+03 0.  0.
      99925    2    3    3    0    0 -0.10283729852E+02 -0.28458360869E+02 -0.59931913407E+02  0.27146700416E+03  0.26303396492E+03 0.  0.
         25    1    3    3    0    0  0.10283729852E+02  0.28458360869E+02  0.14019420643E+03  0.19030910914E+03  0.12509000000E+03 0.  0.
         25    1    4    4    0    0 -0.29292822983E+02  0.18158783386E+02 -0.24427685894E+02  0.13203041631E+03  0.12509000000E+03 0.  0.
         25    1    4    4    0    0  0.19009093131E+02 -0.46617144255E+02 -0.35504227513E+02  0.13943658785E+03  0.12509000000E+03 0.  0.
<mgrwt>
<rscale>  2 0.45474734E+03</rscale>
<asrwt>0</asrwt>
<pdfrwt beam="1">  1       21 0.39855765E-01 0.45474734E+03</pdfrwt>
<pdfrwt beam="2">  1       21 0.28052487E-01 0.45474734E+03</pdfrwt>
<totfact> 0.68186942E+04</totfact>
</mgrwt>
</event>
<event>
 7    0  0.4712189E-002  0.4678688E+03  0.7546771E-02  0.1022523E+00
         21   -1    0    0  502  501  0.00000000000E+00  0.00000000000E+00  0.13227367922E+04  0.13227367922E+04  0.00000000000E+00 0. -1.
         21   -1    0    0  501  502 -0.00000000000E+00 -0.00000000000E+00 -0.41372783816E+02  0.41372783816E+02  0.00000000000E+00 0. -1.
      99926    2    1    2    0    0  0.00000000000E+00  0.17763568394E-14  0.12813640084E+04  0.13641095760E+04  0.46786879934E+03 0.  0.
      99925    2    3    3    0    0  0.75189514860E+02 -0.15895156511E+02  0.50902874147E+03  0.57794458585E+03  0.26268529750E+03 0.  0.
         25    1    3    3    0    0 -0.75189514860E+02  0.15895156511E+02  0.77233526694E+03  0.78616499020E+03  0.12509000000E+03 0.  0.
         25    1    4    4    0    0  0.58422119814E+02  0.24387179968E+02  0.23678157920E+03  0.27517431381E+03  0.12509000000E+03 0.  0.
         25    1    4    4    0    0  0.16767395047E+02 -0.40282336479E+02  0.27224716227E+03  0.30277027204E+03  0.12509000000E+03 0.  0.
<mgrwt>
<rscale>  2 0.46786880E+03</rscale>
<asrwt>0</asrwt>
<pdfrwt beam="1">  1       21 0.19452009E+00 0.46786880E+03</pdfrwt>
<pdfrwt beam="2">  1       21 0.60842338E-02 0.46786880E+03</pdfrwt>
<totfact> 0.24736047E+04</totfact>
</mgrwt>
</event>
<event>
 7    0  0.4712189E-002  0.4384934E+03  0.7546771E-02  0.1031210E+00
         21   -1    0    0  502  501  0.00000000000E+00  0.00000000000E+00  0.26198513712E+03  0.26198513712E+03  0.00000000000E+00 0.  1.
         21   -1    0    0  501  502 -0.00000000000E+00 -0.00000000000E+00 -0.18348032302E+03  0.18348032302E+03  0.00000000000E+00 0.  1.
      99926    2    1    2    0    0  0.00000000000E+00 -0.88817841970E-15  0.78504814095E+02  0.44546546014E+03  0.43849340969E+03 0.  0.
      99925    2    3    3    0    0 -0.73301483816E+02 -0.56408022464E+01 -0.13491540437E+02  0.27366393650E+03  0.26325843253E+03 0.  0.
         25    1    4    4    0    0 -0.39735513119E+02 -0.20022978641E+02  0.30317901980E+02  0.13618558645E+03  0.12509000000E+03 0.  0.
         25    1    4    4    0    0 -0.33565970697E+02  0.14382176394E+02 -0.43809442417E+02  0.13747835005E+03  0.12509000000E+03 0.  0.
         25    1    3    3    0    0  0.73301483816E+02  0.56408022464E+01  0.91996354531E+02  0.17180152365E+03  0.12509000000E+03 0.  0.
<mgrwt>
<rscale>  2 0.43849341E+03</rscale>
<asrwt>0</asrwt>
<pdfrwt beam="1">  1       21 0.38527226E-01 0.43849341E+03</pdfrwt>
<pdfrwt beam="2">  1       21 0.26982400E-01 0.43849341E+03</pdfrwt>
<totfact> 0.79170996E+04</totfact>
</mgrwt>
</event>
<event>
 7    0  0.4712189E-002  0.4514267E+03  0.7546771E-02  0.1027297E+00
         21   -1    0    0  502  501  0.00000000000E+00  0.00000000000E+00  0.10699294035E+04  0.10699294035E+04  0.00000000000E+00 0. -1.
         21   -1    0    0  501  502 -0.00000000000E+00 -0.00000000000E+00 -0.47616708638E+02  0.47616708638E+02  0.00000000000E+00 0. -1.
      99926    2    1    2    0    0  0.00000000000E+00  0.71054273576E-14  0.10223126949E+04  0.11175461122E+04  0.45142670134E+03 0.  0.
      99925    2    3    3    0    0 -0.66393594233E+02  0.53531132671E+02  0.47340254837E+03  0.54813979979E+03  0.26281852254E+03 0.  0.
         25    1    4    4    0    0 -0.63138695498E+02  0.34337939395E+02  0.19750176856E+03  0.24458136813E+03  0.12509000000E+03 0.  0.
         25    1    3    3    0    0  0.66393594233E+02 -0.53531132671E+02  0.54891014651E+03  0.56940631237E+03  0.12509000000E+03 0.  0.
         25    1    4    4    0    0 -0.32548987347E+01  0.19193193276E+02  0.27590077980E+03  0.30355843166E+03  0.12509000000E+03 0.  0.
<mgrwt>
<rscale>  2 0.45142670E+03</rscale>
<asrwt>0</asrwt>
<pdfrwt beam="1">  1       21 0.15734254E+00 0.45142670E+03</pdfrwt>
<pdfrwt beam="2">  1       21 0.70024578E-02 0.45142670E+03</pdfrwt>
<totfact> 0.35873590E+04</totfact>
</mgrwt>
</event>
<event>
 7    0  0.4712189E-002  0.4554402E+03  0.7546771E-02  0.1026112E+00
         21   -1    0    0  502  501  0.00000000000E+00  0.00000000000E+00  0.78916064002E+03  0.78916064002E+03  0.00000000000E+00 0. -1.
         21   -1    0    0  501  502 -0.00000000000E+00 -0.00000000000E+00 -0.65710876824E+02  0.65710876824E+02  0.00000000000E+00 0. -1.
      99926    2    1    2    0    0  0.00000000000E+00  0.00000000000E+00  0.72344976320E+03  0.85487151685E+03  0.45544017219E+03 0.  0.
      99925    2    3    3    0    0 -0.31515788508E+02  0.49342835465E+02  0.27238281764E+03  0.38313339265E+03  0.26300349216E+03 0.  0.
         25    1    3    3    0    0  0.31515788508E+02 -0.49342835465E+02  0.45106694557E+03  0.47173812419E+03  0.12509000000E+03 0.  0.
         25    1    4    4    0    0  0.12904166966E+01  0.17449488191E+01  0.17180721640E+03  0.21253220398E+03  0.12509000000E+03 0.  0.
         25    1    4    4    0    0 -0.32806205205E+02  0.47597886646E+02  0.10057560123E+03  0.17060118867E+03  0.12509000000E+03 0.  0.
<mgrwt>
<rscale>  2 0.45544017E+03</rscale>
<asrwt>0</asrwt>
<pdfrwt beam="1">  1       21 0.11605303E+00 0.45544017E+03</pdfrwt>
<pdfrwt beam="2">  1       21 0.96633647E-02 0.45544017E+03</pdfrwt>
<totfact> 0.45066427E+04</totfact>
</mgrwt>
</event>
<event>
 7    0  0.4712189E-002  0.4560183E+03  0.7546771E-02  0.1025942E+00
         21   -1    0    0  502  501  0.00000000000E+00  0.00000000000E+00  0.87864678544E+03  0.87864678544E+03  0.00000000000E+00 0. -1.
         21   -1    0    0  501  502 -0.00000000000E+00 -0.00000000000E+00 -0.59168461795E+02  0.59168461795E+02  0.00000000000E+00 0. -1.
      99926    2    1    2    0    0  0.00000000000E+00  0.00000000000E+00  0.81947832364E+03  0.93781524723E+03  0.45601832751E+03 0.  0.
      99925    2    3    3    0    0  0.39810414197E+02 -0.16482354990E+02  0.73223961890E+03  0.77933926543E+03  0.26332165510E+03 0.  0.
         25    1    4    4    0    0  0.59774808043E+02 -0.10108326095E+02  0.34936078922E+03  0.37599956792E+03  0.12509000000E+03 0.  0.
         25    1    3    3    0    0 -0.39810414197E+02  0.16482354990E+02  0.87238704743E+02  0.15847598181E+03  0.12509000000E+03 0.  0.
         25    1    4    4    0    0 -0.19964393846E+02 -0.63740288946E+01  0.38287882969E+03  0.40333969751E+03  0.12509000000E+03 0.  0.
<mgrwt>
<rscale>  2 0.45601833E+03</rscale>
<asrwt>0</asrwt>
<pdfrwt beam="1">  1       21 0.12921275E+00 0.45601833E+03</pdfrwt>
<pdfrwt beam="2">  1       21 0.87012449E-02 0.45601833E+03</pdfrwt>
<totfact> 0.41308211E+04</totfact>
</mgrwt>
</event>
<event>
 7    0  0.4712189E-002  0.4493787E+03  0.7546771E-02  0.1027907E+00
         21   -1    0    0  502  501  0.00000000000E+00  0.00000000000E+00  0.19238048463E+04  0.19238048463E+04  0.00000000000E+00 0. -1.
         21   -1    0    0  501  502 -0.00000000000E+00 -0.00000000000E+00 -0.26242429369E+02  0.26242429369E+02  0.00000000000E+00 0. -1.
      99926    2    1    2    0    0  0.71054273576E-14  0.14210854715E-13  0.18975624170E+04  0.19500472757E+04  0.44937873915E+03 0.  0.
      99925    2    3    3    0    0 -0.43365792681E+02 -0.89465630197E+02  0.10196468073E+04  0.10577087655E+04  0.26302762223E+03 0.  0.
         25    1    4    4    0    0 -0.27692132885E+02 -0.38952554983E+01  0.50178435142E+03  0.51789677607E+03  0.12509000000E+03 0.  0.
         25    1    4    4    0    0 -0.15673659796E+02 -0.85570374699E+02  0.51786245585E+03  0.53981198941E+03  0.12509000000E+03 0.  0.
         25    1    3    3    0    0  0.43365792681E+02  0.89465630197E+02  0.87791560969E+03  0.89233851020E+03  0.12509000000E+03 0.  0.
<mgrwt>
<rscale>  2 0.44937874E+03</rscale>
<asrwt>0</asrwt>
<pdfrwt beam="1">  1       21 0.28291238E+00 0.44937874E+03</pdfrwt>
<pdfrwt beam="2">  1       21 0.38591821E-02 0.44937874E+03</pdfrwt>
<totfact> 0.15194998E+04</totfact>
</mgrwt>
</event>
<event>
 7    0  0.4712189E-002  0.4554329E+03  0.7546771E-02  0.1026114E+00
         21   -1    0    0  502  501  0.00000000000E+00  0.00000000000E+00  0.89188880598E+02  0.89188880598E+02  0.00000000000E+00 0.  1.
         21   -1    0    0  501  502 -0.00000000000E+00 -0.00000000000E+00 -0.58140408273E+03  0.58140408273E+03  0.00000000000E+00 0.  1.
      99926    2    1    2    0    0  0.14210854715E-13  0.00000000000E+00 -0.49221520213E+03  0.67059296333E+03  0.45543288996E+03 0.  0.
      99925    2    3    3    0    0 -0.11219830356E+03 -0.18130998237E+02 -0.30897769279E+03  0.42131262846E+03  0.26290668276E+03 0.  0.
         25    1    4    4    0    0 -0.29716612623E+02 -0.23266647381E+02 -0.18652910854E+03  0.22773895226E+03  0.12509000000E+03 0.  0.
         25    1    3    3    0    0  0.11219830356E+03  0.18130998237E+02 -0.18323750934E+03  0.24928033486E+03  0.12509000000E+03 0.  0.
         25    1    4    4    0    0 -0.82481690942E+02  0.51356491444E+01 -0.12244858425E+03  0.19357367620E+03  0.12509000000E+03 0.  0.
<mgrwt>
<rscale>  2 0.45543289E+03</rscale>
<asrwt>0</asrwt>
<pdfrwt beam="1">  1       21 0.13116012E-01 0.45543289E+03</pdfrwt>
<pdfrwt beam="2">  1       21 0.85500601E-01 0.45543289E+03</pdfrwt>
<totfact> 0.54343264E+04</totfact>
</mgrwt>
</event>
<event>
 7    0  0.4712189E-002  0.4536602E+03  0.7546771E-02  0.1026636E+00
         21   -1    0    0  502  501  0.00000000000E+00  0.00000000000E+00  0.52440608392E+03  0.52440608392E+03  0.00000000000E+00 0. -1.
         21   -1    0    0  501  502 -0.00000000000E+00 -0.00000000000E+00 -0.98114619032E+02  0.98114619032E+02  0.00000000000E+00 0. -1.
      99926    2    1    2    0    0  0.14210854715E-13 -0.71054273576E-14  0.42629146489E+03  0.62252070295E+03  0.45366023913E+03 0.  0.
      99925    2    3    3    0    0 -0.69500018852E+02  0.48544148761E+02  0.36873279070E+03  0.46081944732E+03  0.26306635112E+03 0.  0.
         25    1    3    3    0    0  0.69500018852E+02 -0.48544148761E+02  0.57558674189E+02  0.16170125563E+03  0.12509000000E+03 0.  0.
         25    1    4    4    0    0 -0.27512105626E+02  0.60894935609E+02  0.21847455090E+03  0.26046832174E+03  0.12509000000E+03 0.  0.
         25    1    4    4    0    0 -0.41987913226E+02 -0.12350786847E+02  0.15025823980E+03  0.20035112558E+03  0.12509000000E+03 0.  0.
<mgrwt>
<rscale>  2 0.45366024E+03</rscale>
<asrwt>0</asrwt>
<pdfrwt beam="1">  1       21 0.77118541E-01 0.45366024E+03</pdfrwt>
<pdfrwt beam="2">  1       21 0.14428621E-01 0.45366024E+03</pdfrwt>
<totfact> 0.57923357E+04</totfact>
</mgrwt>
</event>
<event>
 7    0  0.4712189E-002  0.4608959E+03  0.7546771E-02  0.1024522E+00
         21   -1    0    0  502  501  0.00000000000E+00  0.00000000000E+00  0.16843762182E+04  0.16843762182E+04  0.00000000000E+00 0. -1.
         21   -1    0    0  501  502 -0.00000000000E+00 -0.00000000000E+00 -0.31528734954E+02  0.31528734954E+02  0.00000000000E+00 0. -1.
      99926    2    1    2    0    0  0.00000000000E+00  0.00000000000E+00  0.16528474833E+04  0.17159049532E+04  0.46089587261E+03 0.  0.
      99925    2    3    3    0    0  0.47828791073E+02 -0.67707243314E+01  0.63132091842E+03  0.68561496160E+03  0.26299874061E+03 0.  0.
         25    1    4    4    0    0  0.43214129168E+02 -0.28848030008E+02  0.39022519614E+03  0.41306522681E+03  0.12509000000E+03 0.  0.
         25    1    3    3    0    0 -0.47828791073E+02  0.67707243314E+01  0.10215265649E+04  0.10302899916E+04  0.12509000000E+03 0.  0.
         25    1    4    4    0    0  0.46146619054E+01  0.22077305676E+02  0.24109572229E+03  0.27254973479E+03  0.12509000000E+03 0.  0.
<mgrwt>
<rscale>  2 0.46089587E+03</rscale>
<asrwt>0</asrwt>
<pdfrwt beam="1">  1       21 0.24770232E+00 0.46089587E+03</pdfrwt>
<pdfrwt beam="2">  1       21 0.46365798E-02 0.46089587E+03</pdfrwt>
<totfact> 0.18090369E+04</totfact>
</mgrwt>
</event>
<event>
 7    0  0.4712189E-002  0.4490955E+03  0.7546771E-02  0.1027992E+00
         21   -1    0    0  502  501  0.00000000000E+00  0.00000000000E+00  0.37256485227E+03  0.37256485227E+03  0.00000000000E+00 0.  1.
         21   -1    0    0  501  502 -0.00000000000E+00 -0.00000000000E+00 -0.13533668347E+03  0.13533668347E+03  0.00000000000E+00 0.  1.
      99926    2    1    2    0    0  0.00000000000E+00  0.00000000000E+00  0.23722816881E+03  0.50790153574E+03  0.44909549756E+03 0.  0.
      99925    2    3    3    0    0 -0.75794023769E+02 -0.74042267579E+02  0.17036323288E+03  0.33085515994E+03  0.26308651489E+03 0.  0.
         25    1    3    3    0    0  0.75794023769E+02  0.74042267579E+02  0.66864935929E+02  0.17704637580E+03  0.12509000000E+03 0.  0.
         25    1    4    4    0    0 -0.12487989916E+02 -0.97535492662E+01  0.51795965027E+02  0.13631365195E+03  0.12509000000E+03 0.  0.
         25    1    4    4    0    0 -0.63306033853E+02 -0.64288718313E+02  0.11856726785E+03  0.19454150799E+03  0.12509000000E+03 0.  0.
<mgrwt>
<rscale>  2 0.44909550E+03</rscale>
<asrwt>0</asrwt>
<pdfrwt beam="1">  1       21 0.54788949E-01 0.44909550E+03</pdfrwt>
<pdfrwt beam="2">  1       21 0.19902453E-01 0.44909550E+03</pdfrwt>
<totfact> 0.67842717E+04</totfact>
</mgrwt>
</event>
<event>
 7    0  0.4712189E-002  0.4528317E+03  0.7546771E-02  0.1026881E+00
         21   -1    0    0  502  501  0.00000000000E+00  0.00000000000E+00  0.40952955884E+03  0.40952955884E+03  0.00000000000E+00 0.  1.
         21   -1    0    0  501  502 -0.00000000000E+00 -0.00000000000E+00 -0.12517812758E+03  0.12517812758E+03  0.00000000000E+00 0.  1.
      99926    2    1    2    0    0  0.00000000000E+00  0.00000000000E+00  0.28435143127E+03  0.53470768642E+03  0.45283172752E+03 0.  0.
      99925    2    3    3    0    0 -0.83389182618E+02  0.58593386249E+02  0.23164466276E+03  0.36496537514E+03  0.26297059642E+03 0.  0.
         25    1    4    4    0    0 -0.78401213179E+02  0.13687679712E+02  0.10863870321E+03  0.18380418586E+03  0.12509000000E+03 0.  0.
         25    1    3    3    0    0  0.83389182618E+02 -0.58593386249E+02  0.52706768509E+02  0.16974231127E+03  0.12509000000E+03 0.  0.
         25    1    4    4    0    0 -0.49879694390E+01  0.44905706537E+02  0.12300595954E+03  0.18116118928E+03  0.12509000000E+03 0.  0.
<mgrwt>
<rscale>  2 0.45283173E+03</rscale>
<asrwt>0</asrwt>
<pdfrwt beam="1">  1       21 0.60224935E-01 0.45283173E+03</pdfrwt>
<pdfrwt beam="2">  1       21 0.18408548E-01 0.45283173E+03</pdfrwt>
<totfact> 0.63979444E+04</totfact>
</mgrwt>
</event>
<event>
 7    0  0.4712189E-002  0.4540485E+03  0.7546771E-02  0.1026522E+00
         21   -1    0    0  502  501  0.00000000000E+00  0.00000000000E+00  0.15420718864E+03  0.15420718864E+03  0.00000000000E+00 0. -1.
         21   -1    0    0  501  502 -0.00000000000E+00 -0.00000000000E+00 -0.33422577448E+03  0.33422577448E+03  0.00000000000E+00 0. -1.
      99926    2    1    2    0    0  0.00000000000E+00  0.00000000000E+00 -0.18001858584E+03  0.48843296311E+03  0.45404853067E+03 0.  0.
      99925    2    3    3    0    0 -0.33812725724E+02  0.84691344421E+02 -0.42921972694E+02  0.28165067742E+03  0.26299977968E+03 0.  0.
         25    1    3    3    0    0  0.33812725724E+02 -0.84691344421E+02 -0.13709661315E+03  0.20678228570E+03  0.12509000000E+03 0.  0.
         25    1    4    4    0    0 -0.53175889794E+02  0.38628574416E+02 -0.40238760808E+02  0.14692347664E+03  0.12509000000E+03 0.  0.
         25    1    4    4    0    0  0.19363164070E+02  0.46062770005E+02 -0.26832118851E+01  0.13472720078E+03  0.12509000000E+03 0.  0.
<mgrwt>
<rscale>  2 0.45404853E+03</rscale>
<asrwt>0</asrwt>
<pdfrwt beam="1">  1       21 0.22677528E-01 0.45404853E+03</pdfrwt>
<pdfrwt beam="2">  1       21 0.49150849E-01 0.45404853E+03</pdfrwt>
<totfact> 0.66592758E+04</totfact>
</mgrwt>
</event>
<event>
 7    0  0.4712189E-002  0.4575095E+03  0.7546771E-02  0.1025506E+00
         21   -1    0    0  502  501  0.00000000000E+00  0.00000000000E+00  0.11241738415E+04  0.11241738415E+04  0.00000000000E+00 0. -1.
         21   -1    0    0  501  502 -0.00000000000E+00 -0.00000000000E+00 -0.46548621278E+02  0.46548621278E+02  0.00000000000E+00 0. -1.
      99926    2    1    2    0    0  0.00000000000E+00 -0.14210854715E-13  0.10776252202E+04  0.11707224628E+04  0.45750952951E+03 0.  0.
      99925    2    3    3    0    0  0.93402234621E+02 -0.66525328744E+02  0.63316863079E+03  0.69497172469E+03  0.26255206400E+03 0.  0.
         25    1    4    4    0    0  0.30098845681E+02 -0.66160723725E+02  0.28448344257E+03  0.31915751452E+03  0.12509000000E+03 0.  0.
         25    1    3    3    0    0 -0.93402234621E+02  0.66525328744E+02  0.44445658942E+03  0.47575073808E+03  0.12509000000E+03 0.  0.
         25    1    4    4    0    0  0.63303388941E+02 -0.36460501826E+00  0.34868518821E+03  0.37581421017E+03  0.12509000000E+03 0.  0.
<mgrwt>
<rscale>  2 0.45750953E+03</rscale>
<asrwt>0</asrwt>
<pdfrwt beam="1">  1       21 0.16531966E+00 0.45750953E+03</pdfrwt>
<pdfrwt beam="2">  1       21 0.68453862E-02 0.45750953E+03</pdfrwt>
<totfact> 0.32458603E+04</totfact>
</mgrwt>
</event>
<event>
 7    0  0.4712189E-002  0.4570888E+03  0.7546771E-02  0.1025629E+00
         21   -1    0    0  502  501  0.00000000000E+00  0.00000000000E+00  0.71991696200E+02  0.71991696200E+02  0.00000000000E+00 0. -1.
         21   -1    0    0  501  502 -0.00000000000E+00 -0.00000000000E+00 -0.72553563513E+03  0.72553563513E+03  0.00000000000E+00 0. -1.
      99926    2    1    2    0    0  0.00000000000E+00  0.00000000000E+00 -0.65354393893E+03  0.79752733133E+03  0.45708879237E+03 0.  0.
      99925    2    3    3    0    0  0.10862888600E+03 -0.33538637097E+02 -0.44165074915E+03  0.52647142008E+03  0.26304314642E+03 0.  0.
         25    1    4    4    0    0  0.25526954088E+02 -0.38163564725E+02 -0.16956124597E+03  0.21565390627E+03  0.12509000000E+03 0.  0.
         25    1    3    3    0    0 -0.10862888600E+03  0.33538637097E+02 -0.21189318978E+03  0.27105591125E+03  0.12509000000E+03 0.  0.
         25    1    4    4    0    0  0.83101931908E+02  0.46249276285E+01 -0.27208950319E+03  0.31081751380E+03  0.12509000000E+03 0.  0.
<mgrwt>
<rscale>  2 0.45708879E+03</rscale>
<asrwt>0</asrwt>
<pdfrwt beam="1">  1       21 0.10587014E-01 0.45708879E+03</pdfrwt>
<pdfrwt beam="2">  1       21 0.10669642E+00 0.45708879E+03</pdfrwt>
<totfact> 0.47107661E+04</totfact>
</mgrwt>
</event>
<event>
 7    0  0.4712189E-002  0.4564336E+03  0.7546771E-02  0.1025821E+00
         21   -1    0    0  502  501  0.00000000000E+00  0.00000000000E+00  0.71104943465E+02  0.71104943465E+02  0.00000000000E+00 0.  1.
         21   -1    0    0  501  502 -0.00000000000E+00 -0.00000000000E+00 -0.73247931416E+03  0.73247931416E+03  0.00000000000E+00 0.  1.
      99926    2    1    2    0    0  0.00000000000E+00  0.00000000000E+00 -0.66137437069E+03  0.80358425762E+03  0.45643356679E+03 0.  0.
      99925    2    3    3    0    0  0.83502089591E+02  0.78527788526E+02 -0.41343746691E+03  0.50315218728E+03  0.26285427898E+03 0.  0.
         25    1    4    4    0    0  0.16922831309E+02  0.59441660788E+02 -0.24741603987E+03  0.28404559166E+03  0.12509000000E+03 0.  0.
         25    1    3    3    0    0 -0.83502089591E+02 -0.78527788526E+02 -0.24793690378E+03  0.30043207035E+03  0.12509000000E+03 0.  0.
         25    1    4    4    0    0  0.66579258283E+02  0.19086127738E+02 -0.16602142705E+03  0.21910659562E+03  0.12509000000E+03 0.  0.
<mgrwt>
<rscale>  2 0.45643357E+03</rscale>
<asrwt>0</asrwt>
<pdfrwt beam="1">  1       21 0.10456610E-01 0.45643357E+03</pdfrwt>
<pdfrwt beam="2">  1       21 0.10771754E+00 0.45643357E+03</pdfrwt>
<totfact> 0.47060263E+04</totfact>
</mgrwt>
</event>
<event>
 7    0  0.4712189E-002  0.4525462E+03  0.7546771E-02  0.1026965E+00
         21   -1    0    0  502  501  0.00000000000E+00  0.00000000000E+00  0.30421948375E+03  0.30421948375E+03  0.00000000000E+00 0.  1.
         21   -1    0    0  501  502 -0.00000000000E+00 -0.00000000000E+00 -0.16829792960E+03  0.16829792960E+03  0.00000000000E+00 0.  1.
      99926    2    1    2    0    0  0.00000000000E+00  0.35527136788E-14  0.13592155415E+03  0.47251741335E+03  0.45254617116E+03 0.  0.
      99925    2    3    3    0    0 -0.79672143097E+02  0.31750726062E+02  0.15908354934E+03  0.31909073668E+03  0.26297445423E+03 0.  0.
         25    1    4    4    0    0 -0.69005543769E+02 -0.53385595670E+01  0.10534517703E+03  0.17758203657E+03  0.12509000000E+03 0.  0.
         25    1    3    3    0    0  0.79672143097E+02 -0.31750726062E+02 -0.23161995181E+02  0.15342667666E+03  0.12509000000E+03 0.  0.
         25    1    4    4    0    0 -0.10666599328E+02  0.37089285629E+02  0.53738372301E+02  0.14150870011E+03  0.12509000000E+03 0.  0.
<mgrwt>
<rscale>  2 0.45254617E+03</rscale>
<asrwt>0</asrwt>
<pdfrwt beam="1">  1       21 0.44738160E-01 0.45254617E+03</pdfrwt>
<pdfrwt beam="2">  1       21 0.24749695E-01 0.45254617E+03</pdfrwt>
<totfact> 0.68574557E+04</totfact>
</mgrwt>
</event>
<event>
 7    0  0.4712189E-002  0.4495218E+03  0.7546771E-02  0.1027865E+00
         21   -1    0    0  502  501  0.00000000000E+00  0.00000000000E+00  0.37208686482E+02  0.37208686482E+02  0.00000000000E+00 0.  1.
         21   -1    0    0  501  502 -0.00000000000E+00 -0.00000000000E+00 -0.13576791093E+04  0.13576791093E+04  0.00000000000E+00 0.  1.
      99926    2    1    2    0    0  0.00000000000E+00  0.00000000000E+00 -0.13204704228E+04  0.13948877958E+04  0.44952177399E+03 0.  0.
      99925    2    3    3    0    0 -0.62943451145E+02 -0.70458374555E+02 -0.99482036838E+03  0.10334715169E+04  0.26357076908E+03 0.  0.
         25    1    4    4    0    0 -0.43567312876E+02 -0.54480676756E+01 -0.57875848845E+03  0.59374800063E+03  0.12509000000E+03 0.  0.
         25    1    3    3    0    0  0.62943451145E+02  0.70458374555E+02 -0.32565005446E+03  0.36141627890E+03  0.12509000000E+03 0.  0.
         25    1    4    4    0    0 -0.19376138269E+02 -0.65010306880E+02 -0.41606187993E+03  0.43972351627E+03  0.12509000000E+03 0.  0.
<mgrwt>
<rscale>  2 0.44952177E+03</rscale>
<asrwt>0</asrwt>
<pdfrwt beam="1">  1       21 0.54718663E-02 0.44952177E+03</pdfrwt>
<pdfrwt beam="2">  1       21 0.19965867E+00 0.44952177E+03</pdfrwt>
<totfact> 0.27626111E+04</totfact>
</mgrwt>
</event>
<event>
 7    0  0.4712189E-002  0.4541449E+03  0.7546771E-02  0.1026493E+00
         21   -1    0    0  502  501  0.00000000000E+00  0.00000000000E+00  0.21721636364E+02  0.21721636364E+02  0.00000000000E+00 0.  1.
         21   -1    0    0  501  502 -0.00000000000E+00 -0.00000000000E+00 -0.23737572914E+04  0.23737572914E+04  0.00000000000E+00 0.  1.
      99926    2    1    2    0    0  0.35527136788E-14  0.00000000000E+00 -0.23520356550E+04  0.23954789278E+04  0.45414487865E+03 0.  0.
      99925    2    3    3    0    0  0.28559842632E+02  0.46410328562E+02 -0.96291063455E+03  0.99966897872E+03  0.26300493090E+03 0.  0.
         25    1    3    3    0    0 -0.28559842632E+02 -0.46410328562E+02 -0.13891250205E+04  0.13958099490E+04  0.12509000000E+03 0.  0.
         25    1    4    4    0    0  0.28834944310E+02  0.26118985844E+02 -0.34810038776E+03  0.37193419242E+03  0.12509000000E+03 0.  0.
         25    1    4    4    0    0 -0.27510167756E+00  0.20291342717E+02 -0.61481024679E+03  0.62773478630E+03  0.12509000000E+03 0.  0.
<mgrwt>
<rscale>  2 0.45414488E+03</rscale>
<asrwt>0</asrwt>
<pdfrwt beam="1">  1       21 0.31943577E-02 0.45414488E+03</pdfrwt>
<pdfrwt beam="2">  1       21 0.34908201E+00 0.45414488E+03</pdfrwt>
<totfact> 0.83162284E+03</totfact>
</mgrwt>
</event>
<event>
 7    0  0.4712189E-002  0.4500464E+03  0.7546771E-02  0.1027708E+00
         21   -1    0    0  502  501  0.00000000000E+00  0.00000000000E+00  0.73650913467E+03  0.73650913467E+03  0.00000000000E+00 0.  1.
         21   -1    0    0  501  502 -0.00000000000E+00 -0.00000000000E+00 -0.68750604270E+02  0.68750604270E+02  0.00000000000E+00 0.  1.
      99926    2    1    2    0    0  0.00000000000E+00  0.00000000000E+00  0.66775853040E+03  0.80525973894E+03  0.45004643342E+03 0.  0.
      99925    2    3    3    0    0 -0.10195387301E+03 -0.36907074446E+02  0.42437855898E+03  0.51091632904E+03  0.26302397151E+03 0.  0.
         25    1    4    4    0    0 -0.77813811643E+02 -0.20200083841E+02  0.28427158962E+03  0.32081283864E+03  0.12509000000E+03 0.  0.
         25    1    4    4    0    0 -0.24140061369E+02 -0.16706990605E+02  0.14010696936E+03  0.19010349040E+03  0.12509000000E+03 0.  0.
         25    1    3    3    0    0  0.10195387301E+03  0.36907074446E+02  0.24337997142E+03  0.29434340990E+03  0.12509000000E+03 0.  0.
<mgrwt>
<rscale>  2 0.45004643E+03</rscale>
<asrwt>0</asrwt>
<pdfrwt beam="1">  1       21 0.10831016E+00 0.45004643E+03</pdfrwt>
<pdfrwt beam="2">  1       21 0.10110383E-01 0.45004643E+03</pdfrwt>
<totfact> 0.49404135E+04</totfact>
</mgrwt>
</event>
<event>
 7    0  0.4712189E-002  0.4565271E+03  0.7546771E-02  0.1025793E+00
         21   -1    0    0  502  501  0.00000000000E+00  0.00000000000E+00  0.94328900084E+02  0.94328900084E+02  0.00000000000E+00 0.  1.
         21   -1    0    0  501  502 -0.00000000000E+00 -0.00000000000E+00 -0.55236772920E+03  0.55236772920E+03  0.00000000000E+00 0.  1.
      99926    2    1    2    0    0 -0.35527136788E-14 -0.71054273576E-14 -0.45803882911E+03  0.64669662928E+03  0.45652706530E+03 0.  0.
      99925    2    3    3    0    0  0.29553720538E+02  0.41116390452E+02 -0.14222488291E+03  0.30325822625E+03  0.26300884872E+03 0.  0.
         25    1    4    4    0    0  0.47644517490E+02  0.53108821078E+00 -0.85942669184E+02  0.15907209871E+03  0.12509000000E+03 0.  0.
         25    1    4    4    0    0 -0.18090796952E+02  0.40585302241E+02 -0.56282213725E+02  0.14418612754E+03  0.12509000000E+03 0.  0.
         25    1    3    3    0    0 -0.29553720538E+02 -0.41116390452E+02 -0.31581394620E+03  0.34343840303E+03  0.12509000000E+03 0.  0.
<mgrwt>
<rscale>  2 0.45652707E+03</rscale>
<asrwt>0</asrwt>
<pdfrwt beam="1">  1       21 0.13871897E-01 0.45652707E+03</pdfrwt>
<pdfrwt beam="2">  1       21 0.81230547E-01 0.45652707E+03</pdfrwt>
<totfact> 0.55223824E+04</totfact>
</mgrwt>
</event>
<event>
 7    0  0.4712189E-002  0.4260723E+03  0.7546771E-02  0.1035108E+00
         21   -1    0    0  502  501  0.00000000000E+00  0.00000000000E+00  0.15003335660E+02  0.15003335660E+02  0.00000000000E+00 0. -1.
         21   -1    0    0  501  502 -0.00000000000E+00 -0.00000000000E+00 -0.30249547076E+04  0.30249547076E+04  0.00000000000E+00 0. -1.
      99926    2    1    2    0    0  0.35527136788E-14  0.00000000000E+00 -0.30099513720E+04  0.30399580433E+04  0.42607234520E+03 0.  0.
      99925    2    3    3    0    0  0.26131444172E+02  0.73379266956E+01 -0.25093551537E+04  0.25232562150E+04  0.26310062987E+03 0.  0.
         25    1    4    4    0    0 -0.80152401720E+01 -0.98828531134E+01 -0.15384039569E+04  0.15435336594E+04  0.12509000000E+03 0.  0.
         25    1    4    4    0    0  0.34146684344E+02  0.17220779809E+02 -0.97095119679E+03  0.97972255560E+03  0.12509000000E+03 0.  0.
         25    1    3    3    0    0 -0.26131444172E+02 -0.73379266956E+01 -0.50059621823E+03  0.51670182828E+03  0.12509000000E+03 0.  0.
<mgrwt>
<rscale>  2 0.42607235E+03</rscale>
<asrwt>0</asrwt>
<pdfrwt beam="1">  1       21 0.22063710E-02 0.42607235E+03</pdfrwt>
<pdfrwt beam="2">  1       21 0.44484666E+00 0.42607235E+03</pdfrwt>
<totfact> 0.38211212E+03</totfact>
</mgrwt>
</event>
<event>
 7    0  0.4712189E-002  0.4461287E+03  0.7546771E-02  0.1028883E+00
         21   -1    0    0  502  501  0.00000000000E+00  0.00000000000E+00  0.99716623529E+03  0.99716623529E+03  0.00000000000E+00 0.  1.
         21   -1    0    0  501  502 -0.00000000000E+00 -0.00000000000E+00 -0.49899105734E+02  0.49899105734E+02  0.00000000000E+00 0.  1.
      99926    2    1    2    0    0  0.00000000000E+00  0.00000000000E+00  0.94726712955E+03  0.10470653410E+04  0.44612869627E+03 0.  0.
      99925    2    3    3    0    0 -0.24044693211E+02 -0.56339629055E+02  0.80020963577E+03  0.84451728339E+03  0.26291002203E+03 0.  0.
         25    1    4    4    0    0 -0.22947455545E+02 -0.43279305311E+02  0.52523200735E+03  0.54214006827E+03  0.12509000000E+03 0.  0.
         25    1    4    4    0    0 -0.10972376658E+01 -0.13060323744E+02  0.27497762843E+03  0.30237721512E+03  0.12509000000E+03 0.  0.
         25    1    3    3    0    0  0.24044693211E+02  0.56339629055E+02  0.14705749378E+03  0.20254805763E+03  0.12509000000E+03 0.  0.
<mgrwt>
<rscale>  2 0.44612870E+03</rscale>
<asrwt>0</asrwt>
<pdfrwt beam="1">  1       21 0.14664208E+00 0.44612870E+03</pdfrwt>
<pdfrwt beam="2">  1       21 0.73381044E-02 0.44612870E+03</pdfrwt>
<totfact> 0.40090156E+04</totfact>
</mgrwt>
</event>
<event>
 7    0  0.4712189E-002  0.4559286E+03  0.7546771E-02  0.1025969E+00
         21   -1    0    0  502  501  0.00000000000E+00  0.00000000000E+00  0.96308785692E+02  0.96308785692E+02  0.00000000000E+00 0.  1.
         21   -1    0    0  501  502 -0.00000000000E+00 -0.00000000000E+00 -0.53959483152E+03  0.53959483152E+03  0.00000000000E+00 0.  1.
      99926    2    1    2    0    0  0.00000000000E+00  0.00000000000E+00 -0.44328604583E+03  0.63590361722E+03  0.45592860401E+03 0.  0.
      99925    2    3    3    0    0 -0.93515871298E+02  0.18343966833E+02 -0.36593482918E+03  0.46065397208E+03  0.26308185699E+03 0.  0.
         25    1    3    3    0    0  0.93515871298E+02 -0.18343966833E+02 -0.77351216652E+02  0.17524964514E+03  0.12509000000E+03 0.  0.
         25    1    4    4    0    0 -0.35797111516E+02 -0.19146380397E+02 -0.13024663987E+03  0.18509379345E+03  0.12509000000E+03 0.  0.
         25    1    4    4    0    0 -0.57718759782E+02  0.37490347229E+02 -0.23568818931E+03  0.27556017863E+03  0.12509000000E+03 0.  0.
<mgrwt>
<rscale>  2 0.45592860E+03</rscale>
<asrwt>0</asrwt>
<pdfrwt beam="1">  1       21 0.14163057E-01 0.45592860E+03</pdfrwt>
<pdfrwt beam="2">  1       21 0.79352179E-01 0.45592860E+03</pdfrwt>
<totfact> 0.56108618E+04</totfact>
</mgrwt>
</event>
<event>
 7    0  0.4712189E-002  0.4607802E+03  0.7546771E-02  0.1024555E+00
         21   -1    0    0  502  501  0.00000000000E+00  0.00000000000E+00  0.18543219500E+03  0.18543219500E+03  0.00000000000E+00 0. -1.
         21   -1    0    0  501  502 -0.00000000000E+00 -0.00000000000E+00 -0.28624807024E+03  0.28624807024E+03  0.00000000000E+00 0. -1.
      99926    2    1    2    0    0  0.71054273576E-14 -0.17763568394E-14 -0.10081587524E+03  0.47168026524E+03  0.46078024254E+03 0.  0.
      99925    2    3    3    0    0 -0.56002609977E+02  0.13154969654E+02 -0.16915946814E+03  0.31796721979E+03  0.26301878573E+03 0.  0.
         25    1    4    4    0    0 -0.62776314390E+02  0.35512533347E+01 -0.11487775122E+03  0.18110185774E+03  0.12509000000E+03 0.  0.
         25    1    4    4    0    0  0.67737044129E+01  0.96037163192E+01 -0.54281716916E+02  0.13686536205E+03  0.12509000000E+03 0.  0.
         25    1    3    3    0    0  0.56002609977E+02 -0.13154969654E+02  0.68343592905E+02  0.15371304545E+03  0.12509000000E+03 0.  0.
<mgrwt>
<rscale>  2 0.46078024E+03</rscale>
<asrwt>0</asrwt>
<pdfrwt beam="1">  1       21 0.27269440E-01 0.46078024E+03</pdfrwt>
<pdfrwt beam="2">  1       21 0.42095304E-01 0.46078024E+03</pdfrwt>
<totfact> 0.64311242E+04</totfact>
</mgrwt>
</event>
<event>
 7    0  0.4712189E-002  0.4554966E+03  0.7546771E-02  0.1026095E+00
         21   -1    0    0  502  501  0.00000000000E+00  0.00000000000E+00  0.74052717230E+02  0.74052717230E+02  0.00000000000E+00 0.  1.
         21   -1    0    0  501  502 -0.00000000000E+00 -0.00000000000E+00 -0.70043723563E+03  0.70043723563E+03  0.00000000000E+00 0.  1.
      99926    2    1    2    0    0  0.00000000000E+00 -0.88817841970E-15 -0.62638451840E+03  0.77448995286E+03  0.45549656661E+03 0.  0.
      99925    2    3    3    0    0  0.63138879475E+02 -0.72725252886E+01 -0.55422311984E+03  0.61671104658E+03  0.26292554209E+03 0.  0.
         25    1    4    4    0    0  0.20140065675E+02 -0.42404898638E+02 -0.26924610727E+03  0.30057407083E+03  0.12509000000E+03 0.  0.
         25    1    4    4    0    0  0.42998813800E+02  0.35132373350E+02 -0.28497701256E+03  0.31613697575E+03  0.12509000000E+03 0.  0.
         25    1    3    3    0    0 -0.63138879475E+02  0.72725252886E+01 -0.72161398567E+02  0.15777890629E+03  0.12509000000E+03 0.  0.
<mgrwt>
<rscale>  2 0.45549657E+03</rscale>
<asrwt>0</asrwt>
<pdfrwt beam="1">  1       21 0.10890105E-01 0.45549657E+03</pdfrwt>
<pdfrwt beam="2">  1       21 0.10300548E+00 0.45549657E+03</pdfrwt>
<totfact> 0.48832839E+04</totfact>
</mgrwt>
</event>
<event>
 7    0  0.4712189E-002  0.4548141E+03  0.7546771E-02  0.1026296E+00
         21   -1    0    0  502  501  0.00000000000E+00  0.00000000000E+00  0.82703056928E+03  0.82703056928E+03  0.00000000000E+00 0. -1.
         21   -1    0    0  501  502 -0.00000000000E+00 -0.00000000000E+00 -0.62529700343E+02  0.62529700343E+02  0.00000000000E+00 0. -1.
      99926    2    1    2    0    0  0.00000000000E+00  0.00000000000E+00  0.76450086894E+03  0.88956026962E+03  0.45481413202E+03 0.  0.
      99925    2    3    3    0    0  0.70822598025E+02  0.64953527559E+02  0.59710406545E+03  0.65955157620E+03  0.26313535596E+03 0.  0.
         25    1    3    3    0    0 -0.70822598025E+02 -0.64953527559E+02  0.16739680349E+03  0.23000869343E+03  0.12509000000E+03 0.  0.
         25    1    4    4    0    0  0.75086104312E+02  0.29045095509E+02  0.28827276517E+03  0.32439210205E+03  0.12509000000E+03 0.  0.
         25    1    4    4    0    0 -0.42635062877E+01  0.35908432050E+02  0.30883130028E+03  0.33515947414E+03  0.12509000000E+03 0.  0.
<mgrwt>
<rscale>  2 0.45481413E+03</rscale>
<asrwt>0</asrwt>
<pdfrwt beam="1">  1       21 0.12162214E+00 0.45481413E+03</pdfrwt>
<pdfrwt beam="2">  1       21 0.91955447E-02 0.45481413E+03</pdfrwt>
<totfact> 0.43751794E+04</totfact>
</mgrwt>
</event>
<event>
 7    0  0.4712189E-002  0.4226325E+03  0.7546771E-02  0.1036213E+00
         21   -1    0    0  502  501  0.00000000000E+00  0.00000000000E+00  0.25381036189E+03  0.25381036189E+03  0.00000000000E+00 0.  1.
         21   -1    0    0  501  502 -0.00000000000E+00 -0.00000000000E+00 -0.17593671282E+03  0.17593671282E+03  0.00000000000E+00 0.  1.
      99926    2    1    2    0    0  0.00000000000E+00  0.00000000000E+00  0.77873649074E+02  0.42974707471E+03  0.42263251532E+03 0.  0.
      99925    2    3    3    0    0  0.16717726919E+02  0.74081586573E+02  0.73244328175E+02  0.28333497625E+03  0.26295705599E+03 0.  0.
         25    1    4    4    0    0  0.11624152795E+02 -0.25667249237E+01  0.47318443653E+02  0.13426932716E+03  0.12509000000E+03 0.  0.
         25    1    3    3    0    0 -0.16717726919E+02 -0.74081586573E+02  0.46293208990E+01  0.14641209846E+03  0.12509000000E+03 0.  0.
         25    1    4    4    0    0  0.50935741243E+01  0.76648311497E+02  0.25925884522E+02  0.14906564910E+03  0.12509000000E+03 0.  0.
<mgrwt>
<rscale>  2 0.42263252E+03</rscale>
<asrwt>0</asrwt>
<pdfrwt beam="1">  1       21 0.37325053E-01 0.42263252E+03</pdfrwt>
<pdfrwt beam="2">  1       21 0.25873046E-01 0.42263252E+03</pdfrwt>
<totfact> 0.91983783E+04</totfact>
</mgrwt>
</event>
<event>
 7    0  0.4712189E-002  0.4536220E+03  0.7546771E-02  0.1026647E+00
         21   -1    0    0  502  501  0.00000000000E+00  0.00000000000E+00  0.16620644962E+03  0.16620644962E+03  0.00000000000E+00 0.  1.
         21   -1    0    0  501  502 -0.00000000000E+00 -0.00000000000E+00 -0.30951398283E+03  0.30951398283E+03  0.00000000000E+00 0.  1.
      99926    2    1    2    0    0  0.00000000000E+00  0.00000000000E+00 -0.14330753321E+03  0.47572043245E+03  0.45362195800E+03 0.  0.
      99925    2    3    3    0    0  0.85892763174E+02  0.24635569661E+02 -0.16094929798E+03  0.32098447018E+03  0.26294842748E+03 0.  0.
         25    1    3    3    0    0 -0.85892763174E+02 -0.24635569661E+02  0.17641764771E+02  0.15473596228E+03  0.12509000000E+03 0.  0.
         25    1    4    4    0    0  0.32017703411E+02  0.51284924357E+02 -0.80870932904E+02  0.16075724770E+03  0.12509000000E+03 0.  0.
         25    1    4    4    0    0  0.53875059763E+02 -0.26649354696E+02 -0.80078365077E+02  0.16022722248E+03  0.12509000000E+03 0.  0.
<mgrwt>
<rscale>  2 0.45362196E+03</rscale>
<asrwt>0</asrwt>
<pdfrwt beam="1">  1       21 0.24442125E-01 0.45362196E+03</pdfrwt>
<pdfrwt beam="2">  1       21 0.45516762E-01 0.45362196E+03</pdfrwt>
<totfact> 0.67750905E+04</totfact>
</mgrwt>
</event>
<event>
 7    0  0.4712189E-002  0.4573727E+03  0.7546771E-02  0.1025546E+00
         21   -1    0    0  502  501  0.00000000000E+00  0.00000000000E+00  0.82921022695E+02  0.82921022695E+02  0.00000000000E+00 0. -1.
         21   -1    0    0  501  502 -0.00000000000E+00 -0.00000000000E+00 -0.63068985217E+03  0.63068985217E+03  0.00000000000E+00 0. -1.
      99926    2    1    2    0    0  0.00000000000E+00  0.14210854715E-13 -0.54776882947E+03  0.71361087486E+03  0.45737270380E+03 0.  0.
      99925    2    3    3    0    0  0.16797007977E+02  0.11220223173E+03 -0.37798321901E+03  0.47414032991E+03  0.26280460100E+03 0.  0.
         25    1    4    4    0    0  0.22755005193E+02  0.48009464999E+02 -0.24684110244E+03  0.28178136372E+03  0.12509000000E+03 0.  0.
         25    1    3    3    0    0 -0.16797007977E+02 -0.11220223173E+03 -0.16978561046E+03  0.23947054495E+03  0.12509000000E+03 0.  0.
         25    1    4    4    0    0 -0.59579972161E+01  0.64192766727E+02 -0.13114211658E+03  0.19235896618E+03  0.12509000000E+03 0.  0.
<mgrwt>
<rscale>  2 0.45737270E+03</rscale>
<asrwt>0</asrwt>
<pdfrwt beam="1">  1       21 0.12194267E-01 0.45737270E+03</pdfrwt>
<pdfrwt beam="2">  1       21 0.92748512E-01 0.45737270E+03</pdfrwt>
<totfact> 0.51207664E+04</totfact>
</mgrwt>
</event>
<event>
 7    0  0.4712189E-002  0.4542366E+03  0.7546771E-02  0.1026466E+00
         21   -1    0    0  502  501  0.00000000000E+00  0.00000000000E+00  0.22716436664E+03  0.22716436664E+03  0.00000000000E+00 0. -1.
         21   -1    0    0  501  502 -0.00000000000E+00 -0.00000000000E+00 -0.22707225048E+03  0.22707225048E+03  0.00000000000E+00 0. -1.
      99926    2    1    2    0    0 -0.14224732503E-14  0.35527136788E-14  0.92116158502E-01  0.45423661712E+03  0.45423660778E+03 0.  0.
      99925    2    3    3    0    0  0.80674855781E-02  0.27030876144E+02  0.10796156155E+03  0.28686280292E+03  0.26439345794E+03 0.  0.
         25    1    3    3    0    0 -0.80674855781E-02 -0.27030876144E+02 -0.10786944539E+03  0.16737381420E+03  0.12509000000E+03 0.  0.
         25    1    4    4    0    0 -0.37525819439E+02 -0.63512758201E+01  0.59009819801E+02  0.14345101172E+03  0.12509000000E+03 0.  0.
         25    1    4    4    0    0  0.37533886925E+02  0.33382151964E+02  0.48951741748E+02  0.14341179121E+03  0.12509000000E+03 0.  0.
<mgrwt>
<rscale>  2 0.45423661E+03</rscale>
<asrwt>0</asrwt>
<pdfrwt beam="1">  1       21 0.33406525E-01 0.45423661E+03</pdfrwt>
<pdfrwt beam="2">  1       21 0.33392978E-01 0.45423661E+03</pdfrwt>
<totfact> 0.69021206E+04</totfact>
</mgrwt>
</event>
<event>
 7    0  0.4712189E-002  0.4159374E+03  0.7546771E-02  0.1038397E+00
         21   -1    0    0  502  501  0.00000000000E+00  0.00000000000E+00  0.40377551232E+02  0.40377551232E+02  0.00000000000E+00 0. -1.
         21   -1    0    0  501  502 -0.00000000000E+00 -0.00000000000E+00 -0.10711641538E+04  0.10711641538E+04  0.00000000000E+00 0. -1.
      99926    2    1    2    0    0  0.71054273576E-14 -0.35527136788E-14 -0.10307866026E+04  0.11115417050E+04  0.41593742558E+03 0.  0.
      99925    2    3    3    0    0  0.56510308586E+02  0.23351018510E+02 -0.58061253156E+03  0.64032743599E+03  0.26300119474E+03 0.  0.
         25    1    4    4    0    0 -0.68463345944E+01 -0.28626940384E+01 -0.31116405273E+03  0.33544842096E+03  0.12509000000E+03 0.  0.
         25    1    3    3    0    0 -0.56510308586E+02 -0.23351018510E+02 -0.45017407102E+03  0.47121426905E+03  0.12509000000E+03 0.  0.
         25    1    4    4    0    0  0.63356643181E+02  0.26213712548E+02 -0.26944847883E+03  0.30487901502E+03  0.12509000000E+03 0.  0.
<mgrwt>
<rscale>  2 0.41593743E+03</rscale>
<asrwt>0</asrwt>
<pdfrwt beam="1">  1       21 0.59378752E-02 0.41593743E+03</pdfrwt>
<pdfrwt beam="2">  1       21 0.15752414E+00 0.41593743E+03</pdfrwt>
<totfact> 0.48175586E+04</totfact>
</mgrwt>
</event>
<event>
 7    0  0.4712189E-002  0.4485737E+03  0.7546771E-02  0.1028148E+00
         21   -1    0    0  502  501  0.00000000000E+00  0.00000000000E+00  0.69011394089E+03  0.69011394089E+03  0.00000000000E+00 0.  1.
         21   -1    0    0  501  502 -0.00000000000E+00 -0.00000000000E+00 -0.72893156639E+02  0.72893156639E+02  0.00000000000E+00 0.  1.
      99926    2    1    2    0    0  0.00000000000E+00  0.35527136788E-14  0.61722078425E+03  0.76300709753E+03  0.44857366660E+03 0.  0.
      99925    2    3    3    0    0 -0.96528011175E+02  0.30200267333E+02  0.33086790828E+03  0.43456350912E+03  0.26294896395E+03 0.  0.
         25    1    4    4    0    0 -0.14222811697E+02 -0.10992623173E+02  0.14422708133E+03  0.19176048922E+03  0.12509000000E+03 0.  0.
         25    1    4    4    0    0 -0.82305199477E+02  0.41192890506E+02  0.18664082696E+03  0.24280301991E+03  0.12509000000E+03 0.  0.
         25    1    3    3    0    0  0.96528011175E+02 -0.30200267333E+02  0.28635287597E+03  0.32844358841E+03  0.12509000000E+03 0.  0.
<mgrwt>
<rscale>  2 0.44857367E+03</rscale>
<asrwt>0</asrwt>
<pdfrwt beam="1">  1       21 0.10148734E+00 0.44857367E+03</pdfrwt>
<pdfrwt beam="2">  1       21 0.10719582E-01 0.44857367E+03</pdfrwt>
<totfact> 0.52189612E+04</totfact>
</mgrwt>
</event>
<event>
 7    0  0.4712189E-002  0.4226718E+03  0.7546771E-02  0.1036200E+00
         21   -1    0    0  502  501  0.00000000000E+00  0.00000000000E+00  0.58374589201E+03  0.58374589201E+03  0.00000000000E+00 0. -1.
         21   -1    0    0  501  502 -0.00000000000E+00 -0.00000000000E+00 -0.76510782928E+02  0.76510782928E+02  0.00000000000E+00 0. -1.
      99926    2    1    2    0    0  0.35527136788E-14  0.00000000000E+00  0.50723510908E+03  0.66025667494E+03  0.42267176499E+03 0.  0.
      99925    2    3    3    0    0  0.25294646860E+02 -0.70687707187E+02  0.36896318420E+03  0.45925119139E+03  0.26294724640E+03 0.  0.
         25    1    4    4    0    0 -0.17853980254E+02 -0.61570877326E+02  0.19979867879E+03  0.24428826761E+03  0.12509000000E+03 0.  0.
         25    1    4    4    0    0  0.43148627114E+02 -0.91168298607E+01  0.16916450541E+03  0.21496292378E+03  0.12509000000E+03 0.  0.
         25    1    3    3    0    0 -0.25294646860E+02  0.70687707187E+02  0.13827192488E+03  0.20100548355E+03  0.12509000000E+03 0.  0.
<mgrwt>
<rscale>  2 0.42267176E+03</rscale>
<asrwt>0</asrwt>
<pdfrwt beam="1">  1       21 0.85844982E-01 0.42267176E+03</pdfrwt>
<pdfrwt beam="2">  1       21 0.11251586E-01 0.42267176E+03</pdfrwt>
<totfact> 0.71707625E+04</totfact>
</mgrwt>
</event>
<event>
 7    0  0.4712189E-002  0.4551861E+03  0.7546771E-02  0.1026187E+00
         21   -1    0    0  502  501  0.00000000000E+00  0.00000000000E+00  0.10332225790E+04  0.10332225790E+04  0.00000000000E+00 0.  1.
         21   -1    0    0  501  502 -0.00000000000E+00 -0.00000000000E+00 -0.50133037704E+02  0.50133037704E+02  0.00000000000E+00 0.  1.
      99926    2    1    2    0    0 -0.14210854715E-13  0.00000000000E+00  0.98308954128E+03  0.10833556167E+04  0.45518605650E+03 0.  0.
      99925    2    3    3    0    0  0.89647626255E+02  0.18097661463E+02  0.77789344505E+03  0.82622302783E+03  0.26298680124E+03 0.  0.
         25    1    3    3    0    0 -0.89647626255E+02 -0.18097661463E+02  0.20519609623E+03  0.25713258886E+03  0.12509000000E+03 0.  0.
         25    1    4    4    0    0  0.74752929416E+02 -0.18197775765E+02  0.38667901348E+03  0.41362703860E+03  0.12509000000E+03 0.  0.
         25    1    4    4    0    0  0.14894696839E+02  0.36295437228E+02  0.39121443157E+03  0.41259598922E+03  0.12509000000E+03 0.  0.
<mgrwt>
<rscale>  2 0.45518606E+03</rscale>
<asrwt>0</asrwt>
<pdfrwt beam="1">  1       21 0.15194448E+00 0.45518606E+03</pdfrwt>
<pdfrwt beam="2">  1       21 0.73725062E-02 0.45518606E+03</pdfrwt>
<totfact> 0.36024426E+04</totfact>
</mgrwt>
</event>
<event>
 7    0  0.4712189E-002  0.4503993E+03  0.7546771E-02  0.1027603E+00
         21   -1    0    0  502  501  0.00000000000E+00  0.00000000000E+00  0.17748723775E+04  0.17748723775E+04  0.00000000000E+00 0.  1.
         21   -1    0    0  501  502 -0.00000000000E+00 -0.00000000000E+00 -0.28573816688E+02  0.28573816688E+02  0.00000000000E+00 0.  1.
      99926    2    1    2    0    0 -0.71054273576E-14  0.00000000000E+00  0.17462985608E+04  0.18034461942E+04  0.45039928046E+03 0.  0.
      99925    2    3    3    0    0 -0.59262791215E+02  0.56350622510E+02  0.81788770281E+03  0.86308365748E+03  0.26322164487E+03 0.  0.
         25    1    3    3    0    0  0.59262791215E+02 -0.56350622510E+02  0.92841085803E+03  0.94036253673E+03  0.12509000000E+03 0.  0.
         25    1    4    4    0    0 -0.69157215152E+02  0.43768695835E+02  0.45063984819E+03  0.47478647834E+03  0.12509000000E+03 0.  0.
         25    1    4    4    0    0  0.98944239371E+01  0.12581926675E+02  0.36724785462E+03  0.38829717914E+03  0.12509000000E+03 0.  0.
<mgrwt>
<rscale>  2 0.45039928E+03</rscale>
<asrwt>0</asrwt>
<pdfrwt beam="1">  1       21 0.26101057E+00 0.45039928E+03</pdfrwt>
<pdfrwt beam="2">  1       21 0.42020331E-02 0.45039928E+03</pdfrwt>
<totfact> 0.17821349E+04</totfact>
</mgrwt>
</event>
<event>
 7    0  0.4712189E-002  0.4584698E+03  0.7546771E-02  0.1025226E+00
         21   -1    0    0  502  501  0.00000000000E+00  0.00000000000E+00  0.81589888530E+03  0.81589888530E+03  0.00000000000E+00 0.  1.
         21   -1    0    0  501  502 -0.00000000000E+00 -0.00000000000E+00 -0.64405831548E+02  0.64405831548E+02  0.00000000000E+00 0.  1.
      99926    2    1    2    0    0  0.00000000000E+00  0.00000000000E+00  0.75149305375E+03  0.88030471684E+03  0.45846982961E+03 0.  0.
      99925    2    3    3    0    0  0.10510817999E+03 -0.22961481601E+02  0.38604012293E+03  0.47933300727E+03  0.26297945967E+03 0.  0.
         25    1    3    3    0    0 -0.10510817999E+03  0.22961481601E+02  0.36545293081E+03  0.40097170957E+03  0.12509000000E+03 0.  0.
         25    1    4    4    0    0  0.40739459072E+02 -0.50257535529E+02  0.19233118952E+03  0.23837851825E+03  0.12509000000E+03 0.  0.
         25    1    4    4    0    0  0.64368720918E+02  0.27296053928E+02  0.19370893342E+03  0.24095448902E+03  0.12509000000E+03 0.  0.
<mgrwt>
<rscale>  2 0.45846983E+03</rscale>
<asrwt>0</asrwt>
<pdfrwt beam="1">  1       21 0.11998512E+00 0.45846983E+03</pdfrwt>
<pdfrwt beam="2">  1       21 0.94714463E-02 0.45846983E+03</pdfrwt>
<totfact> 0.42917980E+04</totfact>
</mgrwt>
</event>
<event>
 7    0  0.4712189E-002  0.4545435E+03  0.7546771E-02  0.1026376E+00
         21   -1    0    0  502  501  0.00000000000E+00  0.00000000000E+00  0.10491240728E+03  0.10491240728E+03  0.00000000000E+00 0.  1.
         21   -1    0    0  501  502 -0.00000000000E+00 -0.00000000000E+00 -0.49233869239E+03  0.49233869239E+03  0.00000000000E+00 0.  1.
      99926    2    1    2    0    0  0.00000000000E+00 -0.71054273576E-14 -0.38742628511E+03  0.59725109968E+03  0.45454345191E+03 0.  0.
      99925    2    3    3    0    0  0.68975122245E+02  0.51356798291E+02 -0.33966206733E+03  0.43811588415E+03  0.26302113935E+03 0.  0.
         25    1    4    4    0    0  0.18004814876E+02  0.24513163052E+02 -0.10542785410E+03  0.16639594058E+03  0.12509000000E+03 0.  0.
         25    1    3    3    0    0 -0.68975122245E+02 -0.51356798291E+02 -0.47764217776E+02  0.15913521552E+03  0.12509000000E+03 0.  0.
         25    1    4    4    0    0  0.50970307369E+02  0.26843635240E+02 -0.23423421324E+03  0.27171994357E+03  0.12509000000E+03 0.  0.
<mgrwt>
<rscale>  2 0.45454345E+03</rscale>
<asrwt>0</asrwt>
<pdfrwt beam="1">  1       21 0.15428296E-01 0.45454345E+03</pdfrwt>
<pdfrwt beam="2">  1       21 0.72402746E-01 0.45454345E+03</pdfrwt>
<totfact> 0.59060567E+04</totfact>
</mgrwt>
</event>
<event>
 7    0  0.4712189E-002  0.4519192E+03  0.7546771E-02  0.1027151E+00
         21   -1    0    0  502  501  0.00000000000E+00  0.00000000000E+00  0.25845710411E+03  0.25845710411E+03  0.00000000000E+00 0. -1.
         21   -1    0    0  501  502 -0.00000000000E+00 -0.00000000000E+00 -0.19754818464E+03  0.19754818464E+03  0.00000000000E+00 0. -1.
      99926    2    1    2    0    0  0.00000000000E+00  0.00000000000E+00  0.60908919470E+02  0.45600528875E+03  0.45191915969E+03 0.  0.
      99925    2    3    3    0    0  0.69490659647E+02 -0.83958346291E+02  0.55671144872E+02  0.29001463217E+03  0.26292823129E+03 0.  0.
         25    1    3    3    0    0 -0.69490659647E+02  0.83958346291E+02  0.52377745977E+01  0.16599065658E+03  0.12509000000E+03 0.  0.
         25    1    4    4    0    0 -0.13301662078E+01 -0.30358919255E+02  0.44465453266E+02  0.13619147534E+03  0.12509000000E+03 0.  0.
         25    1    4    4    0    0  0.70820825855E+02 -0.53599427036E+02  0.11205691606E+02  0.15382315683E+03  0.12509000000E+03 0.  0.
<mgrwt>
<rscale>  2 0.45191916E+03</rscale>
<asrwt>0</asrwt>
<pdfrwt beam="1">  1       21 0.38008398E-01 0.45191916E+03</pdfrwt>
<pdfrwt beam="2">  1       21 0.29051203E-01 0.45191916E+03</pdfrwt>
<totfact> 0.70181177E+04</totfact>
</mgrwt>
</event>
<event>
 7    0  0.4712189E-002  0.4545923E+03  0.7546771E-02  0.1026361E+00
         21   -1    0    0  502  501  0.00000000000E+00  0.00000000000E+00  0.11135968296E+03  0.11135968296E+03  0.00000000000E+00 0.  1.
         21   -1    0    0  501  502 -0.00000000000E+00 -0.00000000000E+00 -0.46393398653E+03  0.46393398653E+03  0.00000000000E+00 0.  1.
      99926    2    1    2    0    0  0.00000000000E+00  0.00000000000E+00 -0.35257430357E+03  0.57529366949E+03  0.45459230813E+03 0.  0.
      99925    2    3    3    0    0  0.80927731506E+02 -0.59006618719E+02 -0.15610971454E+03  0.32176473303E+03  0.26292816826E+03 0.  0.
         25    1    4    4    0    0  0.85464540457E+01 -0.78061551452E+00 -0.64163978008E+02  0.14084805789E+03  0.12509000000E+03 0.  0.
         25    1    4    4    0    0  0.72381277461E+02 -0.58226003204E+02 -0.91945736535E+02  0.18091667514E+03  0.12509000000E+03 0.  0.
         25    1    3    3    0    0 -0.80927731506E+02  0.59006618719E+02 -0.19646458903E+03  0.25352893646E+03  0.12509000000E+03 0.  0.
<mgrwt>
<rscale>  2 0.45459231E+03</rscale>
<asrwt>0</asrwt>
<pdfrwt beam="1">  1       21 0.16376424E-01 0.45459231E+03</pdfrwt>
<pdfrwt beam="2">  1       21 0.68225586E-01 0.45459231E+03</pdfrwt>
<totfact> 0.60419903E+04</totfact>
</mgrwt>
</event>
<event>
 7    0  0.4712189E-002  0.4541816E+03  0.7546771E-02  0.1026482E+00
         21   -1    0    0  502  501  0.00000000000E+00  0.00000000000E+00  0.80396812025E+03  0.80396812025E+03  0.00000000000E+00 0.  1.
         21   -1    0    0  501  502 -0.00000000000E+00 -0.00000000000E+00 -0.64144613446E+02  0.64144613446E+02  0.00000000000E+00 0.  1.
      99926    2    1    2    0    0 -0.35527136788E-14 -0.35527136788E-14  0.73982350680E+03  0.86811273369E+03  0.45418156852E+03 0.  0.
      99925    2    3    3    0    0 -0.18298781172E+02  0.26800257483E+02  0.26023677853E+03  0.37141963205E+03  0.26301380757E+03 0.  0.
         25    1    4    4    0    0  0.31236140852E+02  0.85293034127E+01  0.12915958453E+03  0.18269688527E+03  0.12509000000E+03 0.  0.
         25    1    3    3    0    0  0.18298781172E+02 -0.26800257483E+02  0.47958672827E+03  0.49669310165E+03  0.12509000000E+03 0.  0.
         25    1    4    4    0    0 -0.49534922024E+02  0.18270954070E+02  0.13107719401E+03  0.18872274678E+03  0.12509000000E+03 0.  0.
<mgrwt>
<rscale>  2 0.45418157E+03</rscale>
<asrwt>0</asrwt>
<pdfrwt beam="1">  1       21 0.11823060E+00 0.45418157E+03</pdfrwt>
<pdfrwt beam="2">  1       21 0.94330319E-02 0.45418157E+03</pdfrwt>
<totfact> 0.44927223E+04</totfact>
</mgrwt>
</event>
<event>
 7    0  0.4712189E-002  0.4293392E+03  0.7546771E-02  0.1034069E+00
         21   -1    0    0  502  501  0.00000000000E+00  0.00000000000E+00  0.14133304951E+03  0.14133304951E+03  0.00000000000E+00 0.  1.
         21   -1    0    0  501  502 -0.00000000000E+00 -0.00000000000E+00 -0.32605990984E+03  0.32605990984E+03  0.00000000000E+00 0.  1.
      99926    2    1    2    0    0  0.00000000000E+00  0.00000000000E+00 -0.18472686033E+03  0.46739295936E+03  0.42933921965E+03 0.  0.
      99925    2    3    3    0    0  0.53381515118E+02  0.68258706563E+02 -0.12044066091E+03  0.30219895004E+03  0.26326681414E+03 0.  0.
         25    1    4    4    0    0  0.14295570730E+02 -0.66446157262E+01 -0.59466987942E+02  0.13939994625E+03  0.12509000000E+03 0.  0.
         25    1    4    4    0    0  0.39085944389E+02  0.74903322290E+02 -0.60973672970E+02  0.16279900379E+03  0.12509000000E+03 0.  0.
         25    1    3    3    0    0 -0.53381515118E+02 -0.68258706563E+02 -0.64286199420E+02  0.16519400932E+03  0.12509000000E+03 0.  0.
<mgrwt>
<rscale>  2 0.42933922E+03</rscale>
<asrwt>0</asrwt>
<pdfrwt beam="1">  1       21 0.20784272E-01 0.42933922E+03</pdfrwt>
<pdfrwt beam="2">  1       21 0.47949987E-01 0.42933922E+03</pdfrwt>
<totfact> 0.83357737E+04</totfact>
</mgrwt>
</event>
<event>
 7    0  0.4712189E-002  0.4495623E+03  0.7546771E-02  0.1027853E+00
         21   -1    0    0  502  501  0.00000000000E+00  0.00000000000E+00  0.11031338334E+04  0.11031338334E+04  0.00000000000E+00 0. -1.
         21   -1    0    0  501  502 -0.00000000000E+00 -0.00000000000E+00 -0.45802745628E+02  0.45802745628E+02  0.00000000000E+00 0. -1.
      99926    2    1    2    0    0  0.00000000000E+00 -0.71054273576E-14  0.10573310878E+04  0.11489365790E+04  0.44956226872E+03 0.  0.
      99925    2    3    3    0    0 -0.47753855461E+02  0.41606824790E+02  0.89216623559E+03  0.93228364211E+03  0.26302212612E+03 0.  0.
         25    1    4    4    0    0 -0.58952920438E+02  0.41927038345E+02  0.45046930991E+03  0.47307867279E+03  0.12509000000E+03 0.  0.
         25    1    4    4    0    0  0.11199064977E+02 -0.32021355535E+00  0.44169692568E+03  0.45920496932E+03  0.12509000000E+03 0.  0.
         25    1    3    3    0    0  0.47753855461E+02 -0.41606824790E+02  0.16516485217E+03  0.21665293691E+03  0.12509000000E+03 0.  0.
<mgrwt>
<rscale>  2 0.44956227E+03</rscale>
<asrwt>0</asrwt>
<pdfrwt beam="1">  1       21 0.16222555E+00 0.44956227E+03</pdfrwt>
<pdfrwt beam="2">  1       21 0.67356986E-02 0.44956227E+03</pdfrwt>
<totfact> 0.35289937E+04</totfact>
</mgrwt>
</event>
<event>
 7    0  0.4712189E-002  0.4456614E+03  0.7546771E-02  0.1029024E+00
         21   -1    0    0  502  501  0.00000000000E+00  0.00000000000E+00  0.30224194003E+03  0.30224194003E+03  0.00000000000E+00 0.  1.
         21   -1    0    0  501  502 -0.00000000000E+00 -0.00000000000E+00 -0.16428398967E+03  0.16428398967E+03  0.00000000000E+00 0.  1.
      99926    2    1    2    0    0  0.00000000000E+00 -0.71054273576E-14  0.13795795036E+03  0.46652592970E+03  0.44566135912E+03 0.  0.
      99925    2    3    3    0    0  0.48991752604E+02 -0.43839414625E+02  0.32256955223E+01  0.27127641064E+03  0.26316990664E+03 0.  0.
         25    1    3    3    0    0 -0.48991752604E+02  0.43839414625E+02  0.13473225484E+03  0.19524951906E+03  0.12509000000E+03 0.  0.
         25    1    4    4    0    0  0.40169533099E+02 -0.14473586734E+01 -0.30057978707E+02  0.13478381364E+03  0.12509000000E+03 0.  0.
         25    1    4    4    0    0  0.88222195055E+01 -0.42392055951E+02  0.33283674229E+02  0.13649259700E+03  0.12509000000E+03 0.  0.
<mgrwt>
<rscale>  2 0.44566136E+03</rscale>
<asrwt>0</asrwt>
<pdfrwt beam="1">  1       21 0.44447344E-01 0.44566136E+03</pdfrwt>
<pdfrwt beam="2">  1       21 0.24159410E-01 0.44566136E+03</pdfrwt>
<totfact> 0.72952397E+04</totfact>
</mgrwt>
</event>
<event>
 7    0  0.4712189E-002  0.4497069E+03  0.7546771E-02  0.1027809E+00
         21   -1    0    0  502  501  0.00000000000E+00  0.00000000000E+00  0.60180146649E+03  0.60180146649E+03  0.00000000000E+00 0. -1.
         21   -1    0    0  501  502 -0.00000000000E+00 -0.00000000000E+00 -0.84012892815E+02  0.84012892815E+02  0.00000000000E+00 0. -1.
      99926    2    1    2    0    0  0.00000000000E+00  0.00000000000E+00  0.51778857368E+03  0.68581435931E+03  0.44970693613E+03 0.  0.
      99925    2    3    3    0    0  0.33601517713E+02  0.54267055311E+02  0.19440281154E+03  0.33325254269E+03  0.26304149633E+03 0.  0.
         25    1    4    4    0    0  0.19507363978E+02  0.59172930765E+02  0.13373496118E+03  0.19342833538E+03  0.12509000000E+03 0.  0.
         25    1    3    3    0    0 -0.33601517713E+02 -0.54267055311E+02  0.32338576213E+03  0.35256181661E+03  0.12509000000E+03 0.  0.
         25    1    4    4    0    0  0.14094153736E+02 -0.49058754543E+01  0.60667850364E+02  0.13982420732E+03  0.12509000000E+03 0.  0.
<mgrwt>
<rscale>  2 0.44970694E+03</rscale>
<asrwt>0</asrwt>
<pdfrwt beam="1">  1       21 0.88500213E-01 0.44970694E+03</pdfrwt>
<pdfrwt beam="2">  1       21 0.12354838E-01 0.44970694E+03</pdfrwt>
<totfact> 0.55976522E+04</totfact>
</mgrwt>
</event>
<event>
 7    0  0.4712189E-002  0.4458693E+03  0.7546771E-02  0.1028961E+00
         21   -1    0    0  502  501  0.00000000000E+00  0.00000000000E+00  0.52873349144E+02  0.52873349144E+02  0.00000000000E+00 0.  1.
         21   -1    0    0  501  502 -0.00000000000E+00 -0.00000000000E+00 -0.93997951500E+03  0.93997951500E+03  0.00000000000E+00 0.  1.
      99926    2    1    2    0    0  0.71054273576E-14 -0.17763568394E-14 -0.88710616586E+03  0.99285286415E+03  0.44586933101E+03 0.  0.
      99925    2    3    3    0    0  0.36574560943E+02  0.88922565689E+01 -0.34784975690E+03  0.43799995261E+03  0.26349143132E+03 0.  0.
         25    1    4    4    0    0  0.49939770021E+02  0.17572732985E+02 -0.14130448027E+03  0.19600317808E+03  0.12509000000E+03 0.  0.
         25    1    3    3    0    0 -0.36574560943E+02 -0.88922565689E+01 -0.53925640896E+03  0.55485291153E+03  0.12509000000E+03 0.  0.
         25    1    4    4    0    0 -0.13365209078E+02 -0.86804764162E+01 -0.20654527663E+03  0.24199677453E+03  0.12509000000E+03 0.  0.
<mgrwt>
<rscale>  2 0.44586933E+03</rscale>
<asrwt>0</asrwt>
<pdfrwt beam="1">  1       21 0.77754926E-02 0.44586933E+03</pdfrwt>
<pdfrwt beam="2">  1       21 0.13823228E+00 0.44586933E+03</pdfrwt>
<totfact> 0.42389158E+04</totfact>
</mgrwt>
</event>
<event>
 7    0  0.4712189E-002  0.4560510E+03  0.7546771E-02  0.1025933E+00
         21   -1    0    0  502  501  0.00000000000E+00  0.00000000000E+00  0.97769355871E+02  0.97769355871E+02  0.00000000000E+00 0. -1.
         21   -1    0    0  501  502 -0.00000000000E+00 -0.00000000000E+00 -0.53181936746E+03  0.53181936746E+03  0.00000000000E+00 0. -1.
      99926    2    1    2    0    0  0.71054273576E-14  0.00000000000E+00 -0.43405001159E+03  0.62958872333E+03  0.45605103660E+03 0.  0.
      99925    2    3    3    0    0  0.41930618250E+02 -0.73808504737E+02 -0.16754479394E+03  0.32319288254E+03  0.26301427572E+03 0.  0.
         25    1    4    4    0    0  0.34860928308E+02 -0.38360588439E+02 -0.40639336441E+02  0.14137143571E+03  0.12509000000E+03 0.  0.
         25    1    4    4    0    0  0.70696899414E+01 -0.35447916298E+02 -0.12690545750E+03  0.18182144683E+03  0.12509000000E+03 0.  0.
         25    1    3    3    0    0 -0.41930618250E+02  0.73808504737E+02 -0.26650521765E+03  0.30639584079E+03  0.12509000000E+03 0.  0.
<mgrwt>
<rscale>  2 0.45605104E+03</rscale>
<asrwt>0</asrwt>
<pdfrwt beam="1">  1       21 0.14377847E-01 0.45605104E+03</pdfrwt>
<pdfrwt beam="2">  1       21 0.78208729E-01 0.45605104E+03</pdfrwt>
<totfact> 0.56423374E+04</totfact>
</mgrwt>
</event>
<event>
 7    0  0.4712189E-002  0.4569495E+03  0.7546771E-02  0.1025670E+00
         21   -1    0    0  502  501  0.00000000000E+00  0.00000000000E+00  0.12402293646E+03  0.12402293646E+03  0.00000000000E+00 0.  1.
         21   -1    0    0  501  502 -0.00000000000E+00 -0.00000000000E+00 -0.42089554728E+03  0.42089554728E+03  0.00000000000E+00 0.  1.
      99926    2    1    2    0    0  0.00000000000E+00  0.00000000000E+00 -0.29687261082E+03  0.54491848375E+03  0.45694945768E+03 0.  0.
      99925    2    3    3    0    0 -0.41903782526E+02 -0.61958258402E+02 -0.82177002720E+02  0.28542577670E+03  0.26290694448E+03 0.  0.
         25    1    4    4    0    0 -0.16887050980E+02 -0.35224354681E+02  0.55303418691E+00  0.13104862304E+03  0.12509000000E+03 0.  0.
         25    1    4    4    0    0 -0.25016731546E+02 -0.26733903720E+02 -0.82730036907E+02  0.15437715366E+03  0.12509000000E+03 0.  0.
         25    1    3    3    0    0  0.41903782526E+02  0.61958258402E+02 -0.21469560810E+03  0.25949270705E+03  0.12509000000E+03 0.  0.
<mgrwt>
<rscale>  2 0.45694946E+03</rscale>
<asrwt>0</asrwt>
<pdfrwt beam="1">  1       21 0.18238667E-01 0.45694946E+03</pdfrwt>
<pdfrwt beam="2">  1       21 0.61896405E-01 0.45694946E+03</pdfrwt>
<totfact> 0.61253183E+04</totfact>
</mgrwt>
</event>
<event>
 7    0  0.4712189E-002  0.4556464E+03  0.7546771E-02  0.1026051E+00
         21   -1    0    0  502  501  0.00000000000E+00  0.00000000000E+00  0.89930848226E+02  0.89930848226E+02  0.00000000000E+00 0. -1.
         21   -1    0    0  501  502 -0.00000000000E+00 -0.00000000000E+00 -0.57714808526E+03  0.57714808526E+03  0.00000000000E+00 0. -1.
      99926    2    1    2    0    0  0.17763568394E-14  0.14210854715E-13 -0.48721723703E+03  0.66707893349E+03  0.45564642810E+03 0.  0.
      99925    2    3    3    0    0 -0.13368336698E+02 -0.88580390937E+02 -0.40911131257E+03  0.49452968944E+03  0.26298735631E+03 0.  0.
         25    1    4    4    0    0 -0.25861813531E+01 -0.83569098248E+02 -0.19539714500E+03  0.24661312798E+03  0.12509000000E+03 0.  0.
         25    1    4    4    0    0 -0.10782155345E+02 -0.50112926897E+01 -0.21371416756E+03  0.24791656146E+03  0.12509000000E+03 0.  0.
         25    1    3    3    0    0  0.13368336698E+02  0.88580390937E+02 -0.78105924468E+02  0.17254924405E+03  0.12509000000E+03 0.  0.
<mgrwt>
<rscale>  2 0.45564643E+03</rscale>
<asrwt>0</asrwt>
<pdfrwt beam="1">  1       21 0.13225125E-01 0.45564643E+03</pdfrwt>
<pdfrwt beam="2">  1       21 0.84874720E-01 0.45564643E+03</pdfrwt>
<totfact> 0.54448957E+04</totfact>
</mgrwt>
</event>
<event>
 7    0  0.4712189E-002  0.4495001E+03  0.7546771E-02  0.1027871E+00
         21   -1    0    0  502  501  0.00000000000E+00  0.00000000000E+00  0.11646436404E+03  0.11646436404E+03  0.00000000000E+00 0. -1.
         21   -1    0    0  501  502 -0.00000000000E+00 -0.00000000000E+00 -0.43371700884E+03  0.43371700884E+03  0.00000000000E+00 0. -1.
      99926    2    1    2    0    0  0.71054273576E-14 -0.35527136788E-14 -0.31725264480E+03  0.55018137289E+03  0.44950005833E+03 0.  0.
      99925    2    3    3    0    0  0.62811546558E+02  0.30030585773E+02 -0.30154794953E+03  0.40616306844E+03  0.26304019814E+03 0.  0.
         25    1    3    3    0    0 -0.62811546558E+02 -0.30030585773E+02 -0.15704695273E+02  0.14401830445E+03  0.12509000000E+03 0.  0.
         25    1    4    4    0    0 -0.22792073275E+01 -0.81219902933E+01 -0.15322672487E+03  0.19798257203E+03  0.12509000000E+03 0.  0.
         25    1    4    4    0    0  0.65090753885E+02  0.38152576066E+02 -0.14832122466E+03  0.20818049641E+03  0.12509000000E+03 0.  0.
<mgrwt>
<rscale>  2 0.44950006E+03</rscale>
<asrwt>0</asrwt>
<pdfrwt beam="1">  1       21 0.17127112E-01 0.44950006E+03</pdfrwt>
<pdfrwt beam="2">  1       21 0.63781913E-01 0.44950006E+03</pdfrwt>
<totfact> 0.64620894E+04</totfact>
</mgrwt>
</event>
<event>
 7    0  0.4712189E-002  0.4525326E+03  0.7546771E-02  0.1026969E+00
         21   -1    0    0  502  501  0.00000000000E+00  0.00000000000E+00  0.42550177222E+02  0.42550177222E+02  0.00000000000E+00 0. -1.
         21   -1    0    0  501  502 -0.00000000000E+00 -0.00000000000E+00 -0.12032014706E+04  0.12032014706E+04  0.00000000000E+00 0. -1.
      99926    2    1    2    0    0  0.39968028887E-14  0.00000000000E+00 -0.11606512934E+04  0.12457516479E+04  0.45253258804E+03 0.  0.
      99925    2    3    3    0    0 -0.30908643388E+01 -0.23206652412E+02 -0.43350447303E+03  0.50755241415E+03  0.26293577697E+03 0.  0.
         25    1    3    3    0    0  0.30908643388E+01  0.23206652412E+02 -0.72714682039E+03  0.73819923372E+03  0.12509000000E+03 0.  0.
         25    1    4    4    0    0 -0.36304961793E+02 -0.30586681351E+02 -0.23647767372E+03  0.27170350310E+03  0.12509000000E+03 0.  0.
         25    1    4    4    0    0  0.33214097454E+02  0.73800289394E+01 -0.19702679931E+03  0.23584891105E+03  0.12509000000E+03 0.  0.
<mgrwt>
<rscale>  2 0.45253259E+03</rscale>
<asrwt>0</asrwt>
<pdfrwt beam="1">  1       21 0.62573799E-02 0.45253259E+03</pdfrwt>
<pdfrwt beam="2">  1       21 0.17694137E+00 0.45253259E+03</pdfrwt>
<totfact> 0.31329227E+04</totfact>
</mgrwt>
</event>
<event>
 7    0  0.4712189E-002  0.4484704E+03  0.7546771E-02  0.1028179E+00
         21   -1    0    0  502  501  0.00000000000E+00  0.00000000000E+00  0.23483228735E+04  0.23483228735E+04  0.00000000000E+00 0. -1.
         21   -1    0    0  501  502 -0.00000000000E+00 -0.00000000000E+00 -0.21411633425E+02  0.21411633425E+02  0.00000000000E+00 0. -1.
      99926    2    1    2    0    0  0.00000000000E+00 -0.14210854715E-13  0.23269112401E+04  0.23697345069E+04  0.44847041610E+03 0.  0.
      99925    2    3    3    0    0  0.12693945552E+02 -0.10602088274E+03  0.14452043363E+04  0.14728197194E+04  0.26302241033E+03 0.  0.
         25    1    4    4    0    0 -0.12971576776E+02 -0.42651409866E+02  0.87745439592E+03  0.88744640942E+03  0.12509000000E+03 0.  0.
         25    1    4    4    0    0  0.25665522329E+02 -0.63369472876E+02  0.56774994041E+03  0.58537331000E+03  0.12509000000E+03 0.  0.
         25    1    3    3    0    0 -0.12693945552E+02  0.10602088274E+03  0.88170690375E+03  0.89691478751E+03  0.12509000000E+03 0.  0.
<mgrwt>
<rscale>  2 0.44847042E+03</rscale>
<asrwt>0</asrwt>
<pdfrwt beam="1">  1       21 0.34534142E+00 0.44847042E+03</pdfrwt>
<pdfrwt beam="2">  1       21 0.31487712E-02 0.44847042E+03</pdfrwt>
<totfact> 0.90065330E+03</totfact>
</mgrwt>
</event>
<event>
 7    0  0.4712189E-002  0.4514718E+03  0.7546771E-02  0.1027284E+00
         21   -1    0    0  502  501  0.00000000000E+00  0.00000000000E+00  0.25079652160E+03  0.25079652160E+03  0.00000000000E+00 0.  1.
         21   -1    0    0  501  502 -0.00000000000E+00 -0.00000000000E+00 -0.20317940575E+03  0.20317940575E+03  0.00000000000E+00 0.  1.
      99926    2    1    2    0    0  0.00000000000E+00  0.00000000000E+00  0.47617115852E+02  0.45397592735E+03  0.45147176311E+03 0.  0.
      99925    2    3    3    0    0 -0.27161964660E+02  0.28623949098E+02  0.13310357102E+03  0.29741110083E+03  0.26302034045E+03 0.  0.
         25    1    4    4    0    0 -0.78765228663E+01  0.53555411788E+02  0.57878848135E+02  0.14808001521E+03  0.12509000000E+03 0.  0.
         25    1    3    3    0    0  0.27161964660E+02 -0.28623949098E+02 -0.85486455169E+02  0.15656482652E+03  0.12509000000E+03 0.  0.
         25    1    4    4    0    0 -0.19285441794E+02 -0.24931462690E+02  0.75224722885E+02  0.14933108561E+03  0.12509000000E+03 0.  0.
<mgrwt>
<rscale>  2 0.45147176E+03</rscale>
<asrwt>0</asrwt>
<pdfrwt beam="1">  1       21 0.36881841E-01 0.45147176E+03</pdfrwt>
<pdfrwt beam="2">  1       21 0.29879324E-01 0.45147176E+03</pdfrwt>
<totfact> 0.70587051E+04</totfact>
</mgrwt>
</event>
<event>
 7    0  0.4712189E-002  0.4559039E+03  0.7546771E-02  0.1025976E+00
         21   -1    0    0  502  501  0.00000000000E+00  0.00000000000E+00  0.19196034929E+03  0.19196034929E+03  0.00000000000E+00 0. -1.
         21   -1    0    0  501  502 -0.00000000000E+00 -0.00000000000E+00 -0.27069181515E+03  0.27069181515E+03  0.00000000000E+00 0. -1.
      99926    2    1    2    0    0  0.00000000000E+00  0.00000000000E+00 -0.78731465864E+02  0.46265216444E+03  0.45590391701E+03 0.  0.
      99925    2    3    3    0    0 -0.29618801692E+02 -0.10719373718E+03 -0.75411470380E+02  0.29524158779E+03  0.26289339017E+03 0.  0.
         25    1    3    3    0    0  0.29618801692E+02  0.10719373718E+03 -0.33199954833E+01  0.16741057665E+03  0.12509000000E+03 0.  0.
         25    1    4    4    0    0 -0.53852724823E+02 -0.45652290863E+02 -0.44877322091E+02  0.15048498187E+03  0.12509000000E+03 0.  0.
         25    1    4    4    0    0  0.24233923131E+02 -0.61541446315E+02 -0.30534148290E+02  0.14475660592E+03  0.12509000000E+03 0.  0.
<mgrwt>
<rscale>  2 0.45590392E+03</rscale>
<asrwt>0</asrwt>
<pdfrwt beam="1">  1       21 0.28229463E-01 0.45590392E+03</pdfrwt>
<pdfrwt beam="2">  1       21 0.39807619E-01 0.45590392E+03</pdfrwt>
<totfact> 0.67498416E+04</totfact>
</mgrwt>
</event>
<event>
 7    0  0.4712189E-002  0.4532631E+03  0.7546771E-02  0.1026753E+00
         21   -1    0    0  502  501  0.00000000000E+00  0.00000000000E+00  0.33852326634E+03  0.33852326634E+03  0.00000000000E+00 0. -1.
         21   -1    0    0  501  502 -0.00000000000E+00 -0.00000000000E+00 -0.15172327209E+03  0.15172327209E+03  0.00000000000E+00 0. -1.
      99926    2    1    2    0    0  0.00000000000E+00  0.00000000000E+00  0.18679999425E+03  0.49024653843E+03  0.45326309202E+03 0.  0.
      99925    2    3    3    0    0  0.20305529540E+02 -0.62963330820E+02  0.21485978590E+03  0.34598443126E+03  0.26299012057E+03 0.  0.
         25    1    4    4    0    0  0.12963914495E+02 -0.70291636383E+02  0.96056524122E+02  0.17315698412E+03  0.12509000000E+03 0.  0.
         25    1    3    3    0    0 -0.20305529540E+02  0.62963330820E+02 -0.28059791650E+02  0.14426210717E+03  0.12509000000E+03 0.  0.
         25    1    4    4    0    0  0.73416150452E+01  0.73283055631E+01  0.11880326178E+03  0.17282744714E+03  0.12509000000E+03 0.  0.
<mgrwt>
<rscale>  2 0.45326309E+03</rscale>
<asrwt>0</asrwt>
<pdfrwt beam="1">  1       21 0.49782833E-01 0.45326309E+03</pdfrwt>
<pdfrwt beam="2">  1       21 0.22312246E-01 0.45326309E+03</pdfrwt>
<totfact> 0.66878880E+04</totfact>
</mgrwt>
</event>
<event>
 7    0  0.4712189E-002  0.4635491E+03  0.7546771E-02  0.1023757E+00
         21   -1    0    0  502  501  0.00000000000E+00  0.00000000000E+00  0.27444970810E+03  0.27444970810E+03  0.00000000000E+00 0. -1.
         21   -1    0    0  501  502 -0.00000000000E+00 -0.00000000000E+00 -0.19573513450E+03  0.19573513450E+03  0.00000000000E+00 0. -1.
      99926    2    1    2    0    0  0.00000000000E+00  0.00000000000E+00  0.78714573602E+02  0.47018484260E+03  0.46354913668E+03 0.  0.
      99925    2    3    3    0    0  0.99059921414E+02  0.68912387453E+02  0.41514542815E+02  0.29244026303E+03  0.26312746911E+03 0.  0.
         25    1    4    4    0    0  0.85694678245E+02  0.15122080685E+02  0.15464178591E+02  0.15316299854E+03  0.12509000000E+03 0.  0.
         25    1    4    4    0    0  0.13365243169E+02  0.53790306768E+02  0.26050364223E+02  0.13927726449E+03  0.12509000000E+03 0.  0.
         25    1    3    3    0    0 -0.99059921414E+02 -0.68912387453E+02  0.37200030787E+02  0.17774457957E+03  0.12509000000E+03 0.  0.
<mgrwt>
<rscale>  2 0.46354914E+03</rscale>
<asrwt>0</asrwt>
<pdfrwt beam="1">  1       21 0.40360251E-01 0.46354914E+03</pdfrwt>
<pdfrwt beam="2">  1       21 0.28784578E-01 0.46354914E+03</pdfrwt>
<totfact> 0.63033077E+04</totfact>
</mgrwt>
</event>
<event>
 7    0  0.4712189E-002  0.4590189E+03  0.7546771E-02  0.1025066E+00
         21   -1    0    0  502  501  0.00000000000E+00  0.00000000000E+00  0.62303254582E+03  0.62303254582E+03  0.00000000000E+00 0. -1.
         21   -1    0    0  501  502 -0.00000000000E+00 -0.00000000000E+00 -0.84545473748E+02  0.84545473748E+02  0.00000000000E+00 0. -1.
      99926    2    1    2    0    0  0.17763568394E-14 -0.14210854715E-13  0.53848707207E+03  0.70757801957E+03  0.45901887433E+03 0.  0.
      99925    2    3    3    0    0 -0.11270512484E+02  0.92466981783E+02  0.22735958117E+03  0.35954786159E+03  0.26249784465E+03 0.  0.
         25    1    4    4    0    0  0.12457477616E+02  0.68348168171E+02  0.15572336363E+03  0.21148034169E+03  0.12509000000E+03 0.  0.
         25    1    3    3    0    0  0.11270512484E+02 -0.92466981783E+02  0.31112749090E+03  0.34803015798E+03  0.12509000000E+03 0.  0.
         25    1    4    4    0    0 -0.23727990101E+02  0.24118813612E+02  0.71636217540E+02  0.14806751989E+03  0.12509000000E+03 0.  0.
<mgrwt>
<rscale>  2 0.45901887E+03</rscale>
<asrwt>0</asrwt>
<pdfrwt beam="1">  1       21 0.91622431E-01 0.45901887E+03</pdfrwt>
<pdfrwt beam="2">  1       21 0.12433158E-01 0.45901887E+03</pdfrwt>
<totfact> 0.50865812E+04</totfact>
</mgrwt>
</event>
<event>
 7    0  0.4712189E-002  0.4560548E+03  0.7546771E-02  0.1025932E+00
         21   -1    0    0  502  501  0.00000000000E+00  0.00000000000E+00  0.46558106955E+03  0.46558106955E+03  0.00000000000E+00 0. -1.
         21   -1    0    0  501  502 -0.00000000000E+00 -0.00000000000E+00 -0.11168084697E+03  0.11168084697E+03  0.00000000000E+00 0. -1.
      99926    2    1    2    0    0  0.00000000000E+00  0.00000000000E+00  0.35390022258E+03  0.57726191653E+03  0.45605476944E+03 0.  0.
      99925    2    3    3    0    0  0.60966792640E+02  0.40721258022E+02  0.11179578744E+03  0.29506121441E+03  0.26303545674E+03 0.  0.
         25    1    4    4    0    0  0.11041095306E+02  0.46730198998E+02  0.29792279334E+02  0.13726144867E+03  0.12509000000E+03 0.  0.
         25    1    3    3    0    0 -0.60966792640E+02 -0.40721258022E+02  0.24210443514E+03  0.28220070211E+03  0.12509000000E+03 0.  0.
         25    1    4    4    0    0  0.49925697334E+02 -0.60089409760E+01  0.82003508105E+02  0.15779976574E+03  0.12509000000E+03 0.  0.
<mgrwt>
<rscale>  2 0.45605477E+03</rscale>
<asrwt>0</asrwt>
<pdfrwt beam="1">  1       21 0.68467803E-01 0.45605477E+03</pdfrwt>
<pdfrwt beam="2">  1       21 0.16423654E-01 0.45605477E+03</pdfrwt>
<totfact> 0.59601554E+04</totfact>
</mgrwt>
</event>
<event>
 7    0  0.4712189E-002  0.4523127E+03  0.7546771E-02  0.1027035E+00
         21   -1    0    0  502  501  0.00000000000E+00  0.00000000000E+00  0.10350995981E+04  0.10350995981E+04  0.00000000000E+00 0.  1.
         21   -1    0    0  501  502 -0.00000000000E+00 -0.00000000000E+00 -0.49412332313E+02  0.49412332313E+02  0.00000000000E+00 0.  1.
      99926    2    1    2    0    0  0.71054273576E-14  0.00000000000E+00  0.98568726580E+03  0.10845119304E+04  0.45231265876E+03 0.  0.
      99925    2    3    3    0    0  0.39631512098E+02  0.20425834579E+02  0.37799450532E+03  0.46247827321E+03  0.26271360009E+03 0.  0.
         25    1    4    4    0    0  0.39591339847E+02  0.14325716207E+02  0.25398151666E+03  0.28622861359E+03  0.12509000000E+03 0.  0.
         25    1    4    4    0    0  0.40172251266E-01  0.61001183721E+01  0.12401298866E+03  0.17624965961E+03  0.12509000000E+03 0.  0.
         25    1    3    3    0    0 -0.39631512098E+02 -0.20425834579E+02  0.60769276049E+03  0.62203365722E+03  0.12509000000E+03 0.  0.
<mgrwt>
<rscale>  2 0.45231266E+03</rscale>
<asrwt>0</asrwt>
<pdfrwt beam="1">  1       21 0.15222052E+00 0.45231266E+03</pdfrwt>
<pdfrwt beam="2">  1       21 0.72665201E-02 0.45231266E+03</pdfrwt>
<totfact> 0.36801544E+04</totfact>
</mgrwt>
</event>
<event>
 7    0  0.4712189E-002  0.4461897E+03  0.7546771E-02  0.1028864E+00
         21   -1    0    0  502  501  0.00000000000E+00  0.00000000000E+00  0.11033137417E+04  0.11033137417E+04  0.00000000000E+00 0.  1.
         21   -1    0    0  501  502 -0.00000000000E+00 -0.00000000000E+00 -0.45110749187E+02  0.45110749187E+02  0.00000000000E+00 0.  1.
      99926    2    1    2    0    0  0.00000000000E+00  0.00000000000E+00  0.10582029925E+04  0.11484244909E+04  0.44618968825E+03 0.  0.
      99925    2    3    3    0    0  0.51854651217E+02 -0.90334001587E+02  0.69754448714E+03  0.75273369962E+03  0.26304101260E+03 0.  0.
         25    1    4    4    0    0  0.16800434907E+02 -0.35294841811E+01  0.29174817623E+03  0.31789812567E+03  0.12509000000E+03 0.  0.
         25    1    3    3    0    0 -0.51854651217E+02  0.90334001587E+02  0.36065850537E+03  0.39569079126E+03  0.12509000000E+03 0.  0.
         25    1    4    4    0    0  0.35054216309E+02 -0.86804517406E+02  0.40579631090E+03  0.43483557394E+03  0.12509000000E+03 0.  0.
<mgrwt>
<rscale>  2 0.44618969E+03</rscale>
<asrwt>0</asrwt>
<pdfrwt beam="1">  1       21 0.16225200E+00 0.44618969E+03</pdfrwt>
<pdfrwt beam="2">  1       21 0.66339344E-02 0.44618969E+03</pdfrwt>
<totfact> 0.36261691E+04</totfact>
</mgrwt>
</event>
<event>
 7    0  0.4712189E-002  0.4804188E+03  0.7546771E-02  0.1019020E+00
         21   -1    0    0  502  501  0.00000000000E+00  0.00000000000E+00  0.72817211881E+03  0.72817211881E+03  0.00000000000E+00 0.  1.
         21   -1    0    0  501  502 -0.00000000000E+00 -0.00000000000E+00 -0.79240282218E+02  0.79240282218E+02  0.00000000000E+00 0.  1.
      99926    2    1    2    0    0  0.00000000000E+00 -0.14210854715E-13  0.64893183659E+03  0.80741240103E+03  0.48041883476E+03 0.  0.
      99925    2    3    3    0    0  0.72481430251E+02 -0.11440905070E+03  0.41079801749E+03  0.50625096174E+03  0.26304379193E+03 0.  0.
         25    1    4    4    0    0  0.82918261300E+01 -0.39824321688E+02  0.23346372650E+03  0.26796930919E+03  0.12509000000E+03 0.  0.
         25    1    4    4    0    0  0.64189604121E+02 -0.74584729013E+02  0.17733429099E+03  0.23828165254E+03  0.12509000000E+03 0.  0.
         25    1    3    3    0    0 -0.72481430251E+02  0.11440905070E+03  0.23813381910E+03  0.30116143929E+03  0.12509000000E+03 0.  0.
<mgrwt>
<rscale>  2 0.48041883E+03</rscale>
<asrwt>0</asrwt>
<pdfrwt beam="1">  1       21 0.10708413E+00 0.48041883E+03</pdfrwt>
<pdfrwt beam="2">  1       21 0.11652983E-01 0.48041883E+03</pdfrwt>
<totfact> 0.39022490E+04</totfact>
</mgrwt>
</event>
<event>
 7    0  0.4712189E-002  0.4535705E+03  0.7546771E-02  0.1026663E+00
         21   -1    0    0  502  501  0.00000000000E+00  0.00000000000E+00  0.62918045465E+03  0.62918045465E+03  0.00000000000E+00 0.  1.
         21   -1    0    0  501  502 -0.00000000000E+00 -0.00000000000E+00 -0.81743706047E+02  0.81743706047E+02  0.00000000000E+00 0.  1.
      99926    2    1    2    0    0  0.00000000000E+00  0.00000000000E+00  0.54743674860E+03  0.71092416069E+03  0.45357046701E+03 0.  0.
      99925    2    3    3    0    0  0.53194297483E+02  0.75580968537E+02  0.24642457580E+03  0.37210569549E+03  0.26305030121E+03 0.  0.
         25    1    4    4    0    0 -0.13982016582E+01  0.44461951829E+02  0.81511362772E+02  0.15578969956E+03  0.12509000000E+03 0.  0.
         25    1    4    4    0    0  0.54592499141E+02  0.31119016708E+02  0.16491321303E+03  0.21631599593E+03  0.12509000000E+03 0.  0.
         25    1    3    3    0    0 -0.53194297483E+02 -0.75580968537E+02  0.30101217280E+03  0.33881846520E+03  0.12509000000E+03 0.  0.
<mgrwt>
<rscale>  2 0.45357047E+03</rscale>
<asrwt>0</asrwt>
<pdfrwt beam="1">  1       21 0.92526535E-01 0.45357047E+03</pdfrwt>
<pdfrwt beam="2">  1       21 0.12021134E-01 0.45357047E+03</pdfrwt>
<totfact> 0.52906391E+04</totfact>
</mgrwt>
</event>
<event>
 7    0  0.4712189E-002  0.4643253E+03  0.7546771E-02  0.1023534E+00
         21   -1    0    0  502  501  0.00000000000E+00  0.00000000000E+00  0.13805350771E+03  0.13805350771E+03  0.00000000000E+00 0.  1.
         21   -1    0    0  501  502 -0.00000000000E+00 -0.00000000000E+00 -0.39042461917E+03  0.39042461917E+03  0.00000000000E+00 0.  1.
      99926    2    1    2    0    0 -0.44408920985E-15 -0.35527136788E-14 -0.25237111146E+03  0.52847812688E+03  0.46432526605E+03 0.  0.
      99925    2    3    3    0    0 -0.14845282933E+01  0.26758499181E+02 -0.29271489027E+03  0.39433883475E+03  0.26287428270E+03 0.  0.
         25    1    4    4    0    0  0.33336869236E+02  0.32832641715E+02 -0.13404798304E+03  0.18922393895E+03  0.12509000000E+03 0.  0.
         25    1    3    3    0    0  0.14845282933E+01 -0.26758499181E+02  0.40343778810E+02  0.13413929212E+03  0.12509000000E+03 0.  0.
         25    1    4    4    0    0 -0.34821397529E+02 -0.60741425336E+01 -0.15866690723E+03  0.20511489581E+03  0.12509000000E+03 0.  0.
<mgrwt>
<rscale>  2 0.46432527E+03</rscale>
<asrwt>0</asrwt>
<pdfrwt beam="1">  1       21 0.20301987E-01 0.46432527E+03</pdfrwt>
<pdfrwt beam="2">  1       21 0.57415384E-01 0.46432527E+03</pdfrwt>
<totfact> 0.58838052E+04</totfact>
</mgrwt>
</event>
<event>
 7    0  0.4712189E-002  0.4564055E+03  0.7546771E-02  0.1025829E+00
         21   -1    0    0  502  501  0.00000000000E+00  0.00000000000E+00  0.92802906794E+02  0.92802906794E+02  0.00000000000E+00 0. -1.
         21   -1    0    0  501  502 -0.00000000000E+00 -0.00000000000E+00 -0.56115145935E+03  0.56115145935E+03  0.00000000000E+00 0. -1.
      99926    2    1    2    0    0  0.00000000000E+00 -0.14210854715E-13 -0.46834855256E+03  0.65395436615E+03  0.45640546263E+03 0.  0.
      99925    2    3    3    0    0  0.85971122545E+02  0.70690062054E+02 -0.33267252048E+03  0.43844656451E+03  0.26301381193E+03 0.  0.
         25    1    4    4    0    0  0.68093759545E+02  0.69753824233E+02 -0.17045020235E+03  0.23281566885E+03  0.12509000000E+03 0.  0.
         25    1    3    3    0    0 -0.85971122545E+02 -0.70690062054E+02 -0.13567603208E+03  0.21550780164E+03  0.12509000000E+03 0.  0.
         25    1    4    4    0    0  0.17877363000E+02  0.93623782043E+00 -0.16222231813E+03  0.20563089566E+03  0.12509000000E+03 0.  0.
<mgrwt>
<rscale>  2 0.45640546E+03</rscale>
<asrwt>0</asrwt>
<pdfrwt beam="1">  1       21 0.13647486E-01 0.45640546E+03</pdfrwt>
<pdfrwt beam="2">  1       21 0.82522276E-01 0.45640546E+03</pdfrwt>
<totfact> 0.54863486E+04</totfact>
</mgrwt>
</event>
<event>
 7    0  0.4712189E-002  0.4607730E+03  0.7546771E-02  0.1024557E+00
         21   -1    0    0  502  501  0.00000000000E+00  0.00000000000E+00  0.10625469125E+03  0.10625469125E+03  0.00000000000E+00 0. -1.
         21   -1    0    0  501  502 -0.00000000000E+00 -0.00000000000E+00 -0.49953505527E+03  0.49953505527E+03  0.00000000000E+00 0. -1.
      99926    2    1    2    0    0  0.00000000000E+00  0.00000000000E+00 -0.39328036402E+03  0.60578974652E+03  0.46077301600E+03 0.  0.
      99925    2    3    3    0    0 -0.97304637802E+02 -0.61249934526E+02 -0.28425464974E+03  0.40391388989E+03  0.26291819551E+03 0.  0.
         25    1    4    4    0    0 -0.84046977989E+02 -0.10225822421E+02 -0.15653645231E+03  0.21753075864E+03  0.12509000000E+03 0.  0.
         25    1    3    3    0    0  0.97304637802E+02  0.61249934526E+02 -0.10902571428E+03  0.20187585663E+03  0.12509000000E+03 0.  0.
         25    1    4    4    0    0 -0.13257659813E+02 -0.51024112105E+02 -0.12771819743E+03  0.18638313125E+03  0.12509000000E+03 0.  0.
<mgrwt>
<rscale>  2 0.46077302E+03</rscale>
<asrwt>0</asrwt>
<pdfrwt beam="1">  1       21 0.15625690E-01 0.46077302E+03</pdfrwt>
<pdfrwt beam="2">  1       21 0.73461037E-01 0.46077302E+03</pdfrwt>
<totfact> 0.55737414E+04</totfact>
</mgrwt>
</event>
<event>
 7    0  0.4712189E-002  0.4578975E+03  0.7546771E-02  0.1025393E+00
         21   -1    0    0  502  501  0.00000000000E+00  0.00000000000E+00  0.21519761568E+03  0.21519761568E+03  0.00000000000E+00 0. -1.
         21   -1    0    0  501  502 -0.00000000000E+00 -0.00000000000E+00 -0.24357855764E+03  0.24357855764E+03  0.00000000000E+00 0. -1.
      99926    2    1    2    0    0  0.00000000000E+00  0.00000000000E+00 -0.28380941958E+02  0.45877617333E+03  0.45789747689E+03 0.  0.
      99925    2    3    3    0    0  0.22591464737E+02 -0.86904197530E+02 -0.91850709068E+02  0.29222698160E+03  0.26248303220E+03 0.  0.
         25    1    4    4    0    0  0.46480934420E+01 -0.70321025242E+02 -0.17413912548E+02  0.14462850277E+03  0.12509000000E+03 0.  0.
         25    1    3    3    0    0 -0.22591464737E+02  0.86904197530E+02  0.63469767110E+02  0.16654919173E+03  0.12509000000E+03 0.  0.
         25    1    4    4    0    0  0.17943371295E+02 -0.16583172288E+02 -0.74436796520E+02  0.14759847883E+03  0.12509000000E+03 0.  0.
<mgrwt>
<rscale>  2 0.45789748E+03</rscale>
<asrwt>0</asrwt>
<pdfrwt beam="1">  1       21 0.31646708E-01 0.45789748E+03</pdfrwt>
<pdfrwt beam="2">  1       21 0.35820376E-01 0.45789748E+03</pdfrwt>
<totfact> 0.66714348E+04</totfact>
</mgrwt>
</event>
<event>
 7    0  0.4712189E-002  0.4586685E+03  0.7546771E-02  0.1025168E+00
         21   -1    0    0  502  501  0.00000000000E+00  0.00000000000E+00  0.10295574803E+03  0.10295574803E+03  0.00000000000E+00 0.  1.
         21   -1    0    0  501  502 -0.00000000000E+00 -0.00000000000E+00 -0.51084281230E+03  0.51084281230E+03  0.00000000000E+00 0.  1.
      99926    2    1    2    0    0 -0.71054273576E-14  0.35527136788E-14 -0.40788706428E+03  0.61379856033E+03  0.45866852460E+03 0.  0.
      99925    2    3    3    0    0  0.51739844113E+02  0.26431609560E+02 -0.12040918636E+03  0.29494643184E+03  0.26290565616E+03 0.  0.
         25    1    3    3    0    0 -0.51739844113E+02 -0.26431609560E+02 -0.28747787791E+03  0.31885212849E+03  0.12509000000E+03 0.  0.
         25    1    4    4    0    0  0.36917350423E+01  0.32832079516E+02 -0.89381434562E+02  0.15725178313E+03  0.12509000000E+03 0.  0.
         25    1    4    4    0    0  0.48048109071E+02 -0.64004699566E+01 -0.31027751800E+02  0.13769464871E+03  0.12509000000E+03 0.  0.
<mgrwt>
<rscale>  2 0.45866852E+03</rscale>
<asrwt>0</asrwt>
<pdfrwt beam="1">  1       21 0.15140551E-01 0.45866852E+03</pdfrwt>
<pdfrwt beam="2">  1       21 0.75123944E-01 0.45866852E+03</pdfrwt>
<totfact> 0.56190968E+04</totfact>
</mgrwt>
</event>
<event>
 7    0  0.4712189E-002  0.4304702E+03  0.7546771E-02  0.1033712E+00
         21   -1    0    0  502  501  0.00000000000E+00  0.00000000000E+00  0.18079327808E+03  0.18079327808E+03  0.00000000000E+00 0. -1.
         21   -1    0    0  501  502 -0.00000000000E+00 -0.00000000000E+00 -0.25623820574E+03  0.25623820574E+03  0.00000000000E+00 0. -1.
      99926    2    1    2    0    0 -0.71054273576E-14  0.00000000000E+00 -0.75444927667E+02  0.43703148382E+03  0.43047018566E+03 0.  0.
      99925    2    3    3    0    0  0.53008472402E+02  0.51090254255E+01  0.22777444200E+02  0.26930807245E+03  0.26300575209E+03 0.  0.
         25    1    3    3    0    0 -0.53008472402E+02 -0.51090254255E+01 -0.98222371867E+02  0.16772341137E+03  0.12509000000E+03 0.  0.
         25    1    4    4    0    0 -0.88543182616E+01 -0.26571264205E+01  0.31313160429E+02  0.12928063037E+03  0.12509000000E+03 0.  0.
         25    1    4    4    0    0  0.61862790664E+02  0.77661518459E+01 -0.85357162286E+01  0.14002744208E+03  0.12509000000E+03 0.  0.
<mgrwt>
<rscale>  2 0.43047019E+03</rscale>
<asrwt>0</asrwt>
<pdfrwt beam="1">  1       21 0.26587247E-01 0.43047019E+03</pdfrwt>
<pdfrwt beam="2">  1       21 0.37682089E-01 0.43047019E+03</pdfrwt>
<totfact> 0.85408376E+04</totfact>
</mgrwt>
</event>
<event>
 7    0  0.4712189E-002  0.4603696E+03  0.7546771E-02  0.1024674E+00
         21   -1    0    0  502  501  0.00000000000E+00  0.00000000000E+00  0.35761031541E+03  0.35761031541E+03  0.00000000000E+00 0. -1.
         21   -1    0    0  501  502 -0.00000000000E+00 -0.00000000000E+00 -0.14816421698E+03  0.14816421698E+03  0.00000000000E+00 0. -1.
      99926    2    1    2    0    0  0.71054273576E-14  0.35527136788E-14  0.20944609843E+03  0.50577453239E+03  0.46036964437E+03 0.  0.
      99925    2    3    3    0    0  0.62590296200E+02  0.22705691300E+02  0.23913820206E+02  0.27231612504E+03  0.26296598176E+03 0.  0.
         25    1    3    3    0    0 -0.62590296200E+02 -0.22705691300E+02  0.18553227823E+03  0.23345840734E+03  0.12509000000E+03 0.  0.
         25    1    4    4    0    0  0.20589577619E+02 -0.11643177086E+02 -0.20431410627E+02  0.12893581705E+03  0.12509000000E+03 0.  0.
         25    1    4    4    0    0  0.42000718582E+02  0.34348868386E+02  0.44345230833E+02  0.14338030799E+03  0.12509000000E+03 0.  0.
<mgrwt>
<rscale>  2 0.46036964E+03</rscale>
<asrwt>0</asrwt>
<pdfrwt beam="1">  1       21 0.52589752E-01 0.46036964E+03</pdfrwt>
<pdfrwt beam="2">  1       21 0.21788855E-01 0.46036964E+03</pdfrwt>
<totfact> 0.62174280E+04</totfact>
</mgrwt>
</event>
<event>
 7    0  0.4712189E-002  0.4505694E+03  0.7546771E-02  0.1027552E+00
         21   -1    0    0  502  501  0.00000000000E+00  0.00000000000E+00  0.56524519983E+03  0.56524519983E+03  0.00000000000E+00 0. -1.
         21   -1    0    0  501  502 -0.00000000000E+00 -0.00000000000E+00 -0.89789684919E+02  0.89789684919E+02  0.00000000000E+00 0. -1.
      99926    2    1    2    0    0  0.35527136788E-14  0.00000000000E+00  0.47545551491E+03  0.65503488475E+03  0.45056936600E+03 0.  0.
      99925    2    3    3    0    0  0.23104849020E+02 -0.56894459631E+02  0.43100965704E+03  0.50876883959E+03  0.26325955650E+03 0.  0.
         25    1    4    4    0    0  0.52340040511E+02 -0.29217113662E+02  0.23127629127E+03  0.26968379739E+03  0.12509000000E+03 0.  0.
         25    1    4    4    0    0 -0.29235191491E+02 -0.27677345969E+02  0.19973336577E+03  0.23908504220E+03  0.12509000000E+03 0.  0.
         25    1    3    3    0    0 -0.23104849020E+02  0.56894459631E+02  0.44445857874E+02  0.14626604516E+03  0.12509000000E+03 0.  0.
<mgrwt>
<rscale>  2 0.45056937E+03</rscale>
<asrwt>0</asrwt>
<pdfrwt beam="1">  1       21 0.83124292E-01 0.45056937E+03</pdfrwt>
<pdfrwt beam="2">  1       21 0.13204366E-01 0.45056937E+03</pdfrwt>
<totfact> 0.57391759E+04</totfact>
</mgrwt>
</event>
<event>
 7    0  0.4712189E-002  0.4561437E+03  0.7546771E-02  0.1025906E+00
         21   -1    0    0  502  501  0.00000000000E+00  0.00000000000E+00  0.57429838523E+02  0.57429838523E+02  0.00000000000E+00 0.  1.
         21   -1    0    0  501  502 -0.00000000000E+00 -0.00000000000E+00 -0.90574482268E+03  0.90574482268E+03  0.00000000000E+00 0.  1.
      99926    2    1    2    0    0  0.00000000000E+00  0.00000000000E+00 -0.84831498415E+03  0.96317466120E+03  0.45614374449E+03 0.  0.
      99925    2    3    3    0    0  0.57288026820E+02 -0.98391140018E+02 -0.55988744799E+03  0.62880856518E+03  0.26260906834E+03 0.  0.
         25    1    4    4    0    0  0.13570027034E+02 -0.15743755532E+02 -0.29855605703E+03  0.32436898551E+03  0.12509000000E+03 0.  0.
         25    1    3    3    0    0 -0.57288026820E+02  0.98391140018E+02 -0.28842753617E+03  0.33436609602E+03  0.12509000000E+03 0.  0.
         25    1    4    4    0    0  0.43717999786E+02 -0.82647384485E+02 -0.26133139096E+03  0.30443957967E+03  0.12509000000E+03 0.  0.
<mgrwt>
<rscale>  2 0.45614374E+03</rscale>
<asrwt>0</asrwt>
<pdfrwt beam="1">  1       21 0.84455643E-02 0.45614374E+03</pdfrwt>
<pdfrwt beam="2">  1       21 0.13319777E+00 0.45614374E+03</pdfrwt>
<totfact> 0.40250761E+04</totfact>
</mgrwt>
</event>
<event>
 7    0  0.4712189E-002  0.4542102E+03  0.7546771E-02  0.1026474E+00
         21   -1    0    0  502  501  0.00000000000E+00  0.00000000000E+00  0.22283508430E+03  0.22283508430E+03  0.00000000000E+00 0. -1.
         21   -1    0    0  501  502 -0.00000000000E+00 -0.00000000000E+00 -0.23145690177E+03  0.23145690177E+03  0.00000000000E+00 0. -1.
      99926    2    1    2    0    0  0.00000000000E+00  0.00000000000E+00 -0.86218174691E+01  0.45429198608E+03  0.45421016378E+03 0.  0.
      99925    2    3    3    0    0 -0.41167683341E+02 -0.10464460305E+03 -0.66657349728E+01  0.28607603720E+03  0.26296348785E+03 0.  0.
         25    1    4    4    0    0 -0.34250769016E+02 -0.14331680237E+02  0.92883870527E+01  0.13081396894E+03  0.12509000000E+03 0.  0.
         25    1    3    3    0    0  0.41167683341E+02  0.10464460305E+03 -0.19560824964E+01  0.16821594888E+03  0.12509000000E+03 0.  0.
         25    1    4    4    0    0 -0.69169143245E+01 -0.90312922809E+02 -0.15954122025E+02  0.15526206826E+03  0.12509000000E+03 0.  0.
<mgrwt>
<rscale>  2 0.45421016E+03</rscale>
<asrwt>0</asrwt>
<pdfrwt beam="1">  1       21 0.32769865E-01 0.45421016E+03</pdfrwt>
<pdfrwt beam="2">  1       21 0.34037780E-01 0.45421016E+03</pdfrwt>
<totfact> 0.69031712E+04</totfact>
</mgrwt>
</event>
<event>
 7    0  0.4712189E-002  0.4559745E+03  0.7546771E-02  0.1025955E+00
         21   -1    0    0  502  501  0.00000000000E+00  0.00000000000E+00  0.41220713987E+03  0.41220713987E+03  0.00000000000E+00 0.  1.
         21   -1    0    0  501  502 -0.00000000000E+00 -0.00000000000E+00 -0.12609727486E+03  0.12609727486E+03  0.00000000000E+00 0.  1.
      99926    2    1    2    0    0 -0.17763568394E-14  0.14210854715E-13  0.28610986502E+03  0.53830441473E+03  0.45597454760E+03 0.  0.
      99925    2    3    3    0    0 -0.73382836467E+01  0.10836617177E+03  0.13861123179E+03  0.31649270968E+03  0.26297810577E+03 0.  0.
         25    1    4    4    0    0  0.18119156956E+02  0.59352869770E+02  0.10758776421E+03  0.17627734428E+03  0.12509000000E+03 0.  0.
         25    1    4    4    0    0 -0.25457440603E+02  0.49013302000E+02  0.31023467581E+02  0.14021536541E+03  0.12509000000E+03 0.  0.
         25    1    3    3    0    0  0.73382836467E+01 -0.10836617177E+03  0.14749863323E+03  0.22181170505E+03  0.12509000000E+03 0.  0.
<mgrwt>
<rscale>  2 0.45597455E+03</rscale>
<asrwt>0</asrwt>
<pdfrwt beam="1">  1       21 0.60618697E-01 0.45597455E+03</pdfrwt>
<pdfrwt beam="2">  1       21 0.18543717E-01 0.45597455E+03</pdfrwt>
<totfact> 0.62165185E+04</totfact>
</mgrwt>
</event>
<event>
 7    0  0.4712189E-002  0.4567715E+03  0.7546771E-02  0.1025722E+00
         21   -1    0    0  502  501  0.00000000000E+00  0.00000000000E+00  0.50935553947E+03  0.50935553947E+03  0.00000000000E+00 0. -1.
         21   -1    0    0  501  502 -0.00000000000E+00 -0.00000000000E+00 -0.10240401595E+03  0.10240401595E+03  0.00000000000E+00 0. -1.
      99926    2    1    2    0    0  0.14210854715E-13 -0.71054273576E-14  0.40695152352E+03  0.61175955542E+03  0.45677150870E+03 0.  0.
      99925    2    3    3    0    0 -0.99017575955E+02  0.39357411471E+02  0.31290007743E+03  0.42242739017E+03  0.26303033157E+03 0.  0.
         25    1    4    4    0    0 -0.31050281423E+02  0.21407455437E+02  0.20417232172E+03  0.24239687329E+03  0.12509000000E+03 0.  0.
         25    1    3    3    0    0  0.99017575955E+02 -0.39357411471E+02  0.94051446088E+02  0.18933216525E+03  0.12509000000E+03 0.  0.
         25    1    4    4    0    0 -0.67967294532E+02  0.17949956035E+02  0.10872775571E+03  0.18003051688E+03  0.12509000000E+03 0.  0.
<mgrwt>
<rscale>  2 0.45677151E+03</rscale>
<asrwt>0</asrwt>
<pdfrwt beam="1">  1       21 0.74905226E-01 0.45677151E+03</pdfrwt>
<pdfrwt beam="2">  1       21 0.15059414E-01 0.45677151E+03</pdfrwt>
<totfact> 0.57156253E+04</totfact>
</mgrwt>
</event>
<event>
 7    0  0.4712189E-002  0.4585100E+03  0.7546771E-02  0.1025214E+00
         21   -1    0    0  502  501  0.00000000000E+00  0.00000000000E+00  0.76533519620E+03  0.76533519620E+03  0.00000000000E+00 0.  1.
         21   -1    0    0  501  502 -0.00000000000E+00 -0.00000000000E+00 -0.68672974845E+02  0.68672974845E+02  0.00000000000E+00 0.  1.
      99926    2    1    2    0    0  0.00000000000E+00  0.00000000000E+00  0.69666222135E+03  0.83400817104E+03  0.45850995486E+03 0.  0.
      99925    2    3    3    0    0  0.93285236730E+02  0.45606294556E+02  0.53276943198E+03  0.60316098348E+03  0.26301679576E+03 0.  0.
         25    1    3    3    0    0 -0.93285236730E+02 -0.45606294556E+02  0.16389278938E+03  0.23084718756E+03  0.12509000000E+03 0.  0.
         25    1    4    4    0    0  0.62021578187E+02  0.14738011266E+02  0.35214425671E+03  0.37910021204E+03  0.12509000000E+03 0.  0.
         25    1    4    4    0    0  0.31263658544E+02  0.30868283290E+02  0.18062517527E+03  0.22406077144E+03  0.12509000000E+03 0.  0.
<mgrwt>
<rscale>  2 0.45850995E+03</rscale>
<asrwt>0</asrwt>
<pdfrwt beam="1">  1       21 0.11254929E+00 0.45850995E+03</pdfrwt>
<pdfrwt beam="2">  1       21 0.10098967E-01 0.45850995E+03</pdfrwt>
<totfact> 0.44913750E+04</totfact>
</mgrwt>
</event>
<event>
 7    0  0.4712189E-002  0.4566540E+03  0.7546771E-02  0.1025756E+00
         21   -1    0    0  502  501  0.00000000000E+00  0.00000000000E+00  0.19554568962E+03  0.19554568962E+03  0.00000000000E+00 0. -1.
         21   -1    0    0  501  502 -0.00000000000E+00 -0.00000000000E+00 -0.26660381810E+03  0.26660381810E+03  0.00000000000E+00 0. -1.
      99926    2    1    2    0    0  0.71054273576E-14  0.00000000000E+00 -0.71058128476E+02  0.46214950772E+03  0.45665403739E+03 0.  0.
      99925    2    3    3    0    0  0.49157918280E+02  0.37970503128E+02 -0.14203823198E+03  0.30548444068E+03  0.26322542453E+03 0.  0.
         25    1    3    3    0    0 -0.49157918280E+02 -0.37970503128E+02  0.70980103503E+02  0.15666506704E+03  0.12509000000E+03 0.  0.
         25    1    4    4    0    0  0.26145865794E+02 -0.21517781359E+02 -0.59387632999E+02  0.14255181607E+03  0.12509000000E+03 0.  0.
         25    1    4    4    0    0  0.23012052486E+02  0.59488284487E+02 -0.82650598980E+02  0.16293262461E+03  0.12509000000E+03 0.  0.
<mgrwt>
<rscale>  2 0.45665404E+03</rscale>
<asrwt>0</asrwt>
<pdfrwt beam="1">  1       21 0.28756719E-01 0.45665404E+03</pdfrwt>
<pdfrwt beam="2">  1       21 0.39206444E-01 0.45665404E+03</pdfrwt>
<totfact> 0.67134284E+04</totfact>
</mgrwt>
</event>
<event>
 7    0  0.4712189E-002  0.4530807E+03  0.7546771E-02  0.1026807E+00
         21   -1    0    0  502  501  0.00000000000E+00  0.00000000000E+00  0.38530996911E+03  0.38530996911E+03  0.00000000000E+00 0.  1.
         21   -1    0    0  501  502 -0.00000000000E+00 -0.00000000000E+00 -0.13319282567E+03  0.13319282567E+03  0.00000000000E+00 0.  1.
      99926    2    1    2    0    0  0.35527136788E-14 -0.71054273576E-14  0.25211714344E+03  0.51850279479E+03  0.45308067072E+03 0.  0.
      99925    2    3    3    0    0  0.25833707595E+02 -0.43687808071E+02  0.45485865611E+02  0.27168302633E+03  0.26299562317E+03 0.  0.
         25    1    3    3    0    0 -0.25833707595E+02  0.43687808071E+02  0.20663127783E+03  0.24681976845E+03  0.12509000000E+03 0.  0.
         25    1    4    4    0    0  0.34428547783E+02 -0.41001301537E+02 -0.57970128825E+01  0.13618937216E+03  0.12509000000E+03 0.  0.
         25    1    4    4    0    0 -0.85948401876E+01 -0.26865065337E+01  0.51282878494E+02  0.13549365418E+03  0.12509000000E+03 0.  0.
<mgrwt>
<rscale>  2 0.45308067E+03</rscale>
<asrwt>0</asrwt>
<pdfrwt beam="1">  1       21 0.56663231E-01 0.45308067E+03</pdfrwt>
<pdfrwt beam="2">  1       21 0.19587180E-01 0.45308067E+03</pdfrwt>
<totfact> 0.64973159E+04</totfact>
</mgrwt>
</event>
<event>
 7    0  0.4712189E-002  0.4562957E+03  0.7546771E-02  0.1025861E+00
         21   -1    0    0  502  501  0.00000000000E+00  0.00000000000E+00  0.66932386351E+03  0.66932386351E+03  0.00000000000E+00 0. -1.
         21   -1    0    0  501  502 -0.00000000000E+00 -0.00000000000E+00 -0.77767199425E+02  0.77767199425E+02  0.00000000000E+00 0. -1.
      99926    2    1    2    0    0 -0.71054273576E-14 -0.71054273576E-14  0.59155666409E+03  0.74709106294E+03  0.45629570401E+03 0.  0.
      99925    2    3    3    0    0  0.61941694968E+02  0.45109930800E+02  0.51088288360E+03  0.57967706594E+03  0.26296863043E+03 0.  0.
         25    1    4    4    0    0  0.51462599950E+02  0.32577763182E+02  0.33923566796E+03  0.36665795554E+03  0.12509000000E+03 0.  0.
         25    1    4    4    0    0  0.10479095018E+02  0.12532167618E+02  0.17164721564E+03  0.21301911040E+03  0.12509000000E+03 0.  0.
         25    1    3    3    0    0 -0.61941694968E+02 -0.45109930800E+02  0.80673780488E+02  0.16741399700E+03  0.12509000000E+03 0.  0.
<mgrwt>
<rscale>  2 0.45629570E+03</rscale>
<asrwt>0</asrwt>
<pdfrwt beam="1">  1       21 0.98429977E-01 0.45629570E+03</pdfrwt>
<pdfrwt beam="2">  1       21 0.11436353E-01 0.45629570E+03</pdfrwt>
<totfact> 0.49909424E+04</totfact>
</mgrwt>
</event>
<event>
 7    0  0.4712189E-002  0.4438236E+03  0.7546771E-02  0.1029580E+00
         21   -1    0    0  502  501  0.00000000000E+00  0.00000000000E+00  0.10519653841E+04  0.10519653841E+04  0.00000000000E+00 0.  1.
         21   -1    0    0  501  502 -0.00000000000E+00 -0.00000000000E+00 -0.46812230384E+02  0.46812230384E+02  0.00000000000E+00 0.  1.
      99926    2    1    2    0    0  0.14210854715E-13 -0.71054273576E-14  0.10051531537E+04  0.10987776144E+04  0.44382359520E+03 0.  0.
      99925    2    3    3    0    0 -0.91928250191E+02 -0.37484767665E+02  0.57795589161E+03  0.64270643600E+03  0.26302592884E+03 0.  0.
         25    1    4    4    0    0 -0.22889668483E+02 -0.50309439137E+02  0.25601695078E+03  0.29025361975E+03  0.12509000000E+03 0.  0.
         25    1    4    4    0    0 -0.69038581708E+02  0.12824671471E+02  0.32193894083E+03  0.35245281626E+03  0.12509000000E+03 0.  0.
         25    1    3    3    0    0  0.91928250191E+02  0.37484767665E+02  0.42719726206E+03  0.45607117844E+03  0.12509000000E+03 0.  0.
<mgrwt>
<rscale>  2 0.44382360E+03</rscale>
<asrwt>0</asrwt>
<pdfrwt beam="1">  1       21 0.15470078E+00 0.44382360E+03</pdfrwt>
<pdfrwt beam="2">  1       21 0.68841522E-02 0.44382360E+03</pdfrwt>
<totfact> 0.38811722E+04</totfact>
</mgrwt>
</event>
<event>
 7    0  0.4712189E-002  0.4270987E+03  0.7546771E-02  0.1034780E+00
         21   -1    0    0  502  501  0.00000000000E+00  0.00000000000E+00  0.25214973418E+03  0.25214973418E+03  0.00000000000E+00 0. -1.
         21   -1    0    0  501  502 -0.00000000000E+00 -0.00000000000E+00 -0.18085813473E+03  0.18085813473E+03  0.00000000000E+00 0. -1.
      99926    2    1    2    0    0  0.00000000000E+00  0.00000000000E+00  0.71291599445E+02  0.43300786891E+03  0.42709872675E+03 0.  0.
      99925    2    3    3    0    0  0.81543019271E+02  0.15170453467E+02  0.61008324682E+02  0.28256631717E+03  0.26313931913E+03 0.  0.
         25    1    3    3    0    0 -0.81543019271E+02 -0.15170453467E+02  0.10283274762E+02  0.15044155174E+03  0.12509000000E+03 0.  0.
         25    1    4    4    0    0  0.93963521478E+00  0.15380576560E+02  0.40302797585E+02  0.13232259309E+03  0.12509000000E+03 0.  0.
         25    1    4    4    0    0  0.80603384057E+02 -0.21012309271E+00  0.20705527097E+02  0.15024372408E+03  0.12509000000E+03 0.  0.
<mgrwt>
<rscale>  2 0.42709873E+03</rscale>
<asrwt>0</asrwt>
<pdfrwt beam="1">  1       21 0.37080843E-01 0.42709873E+03</pdfrwt>
<pdfrwt beam="2">  1       21 0.26596785E-01 0.42709873E+03</pdfrwt>
<totfact> 0.88252504E+04</totfact>
</mgrwt>
</event>
<event>
 7    0  0.4712189E-002  0.4583560E+03  0.7546771E-02  0.1025259E+00
         21   -1    0    0  502  501  0.00000000000E+00  0.00000000000E+00  0.26371886711E+02  0.26371886711E+02  0.00000000000E+00 0. -1.
         21   -1    0    0  501  502 -0.00000000000E+00 -0.00000000000E+00 -0.19916119373E+04  0.19916119373E+04  0.00000000000E+00 0. -1.
      99926    2    1    2    0    0  0.17763568394E-14  0.35527136788E-14 -0.19652400506E+04  0.20179838240E+04  0.45835603796E+03 0.  0.
      99925    2    3    3    0    0  0.99178109665E+01  0.20552444236E+02 -0.17346819818E+04  0.17546868489E+04  0.26321776851E+03 0.  0.
         25    1    4    4    0    0  0.38045810277E+02  0.78484308499E+01 -0.71515870374E+03  0.72705471677E+03  0.12509000000E+03 0.  0.
         25    1    3    3    0    0 -0.99178109665E+01 -0.20552444236E+02 -0.23055806881E+03  0.26329697516E+03  0.12509000000E+03 0.  0.
         25    1    4    4    0    0 -0.28127999310E+02  0.12704013386E+02 -0.10195232781E+04  0.10276321321E+04  0.12509000000E+03 0.  0.
<mgrwt>
<rscale>  2 0.45835604E+03</rscale>
<asrwt>0</asrwt>
<pdfrwt beam="1">  1       21 0.38782176E-02 0.45835604E+03</pdfrwt>
<pdfrwt beam="2">  1       21 0.29288418E+00 0.45835604E+03</pdfrwt>
<totfact> 0.13074312E+04</totfact>
</mgrwt>
</event>
<event>
 7    0  0.4712189E-002  0.4232071E+03  0.7546771E-02  0.1036028E+00
         21   -1    0    0  502  501  0.00000000000E+00  0.00000000000E+00  0.11751777157E+03  0.11751777157E+03  0.00000000000E+00 0.  1.
         21   -1    0    0  501  502 -0.00000000000E+00 -0.00000000000E+00 -0.38101524301E+03  0.38101524301E+03  0.00000000000E+00 0.  1.
      99926    2    1    2    0    0  0.00000000000E+00  0.17763568394E-14 -0.26349747144E+03  0.49853301458E+03  0.42320709963E+03 0.  0.
      99925    2    3    3    0    0  0.78559142765E+02 -0.11589806512E+02 -0.16039915587E+03  0.31802641276E+03  0.26288219317E+03 0.  0.
         25    1    3    3    0    0 -0.78559142765E+02  0.11589806512E+02 -0.10309831558E+03  0.18050660182E+03  0.12509000000E+03 0.  0.
         25    1    4    4    0    0  0.25595925634E+02 -0.29333757220E+01 -0.33742449936E+02  0.13209775596E+03  0.12509000000E+03 0.  0.
         25    1    4    4    0    0  0.52963217131E+02 -0.86564307895E+01 -0.12665670593E+03  0.18592865680E+03  0.12509000000E+03 0.  0.
<mgrwt>
<rscale>  2 0.42320710E+03</rscale>
<asrwt>0</asrwt>
<pdfrwt beam="1">  1       21 0.17282026E-01 0.42320710E+03</pdfrwt>
<pdfrwt beam="2">  1       21 0.56031652E-01 0.42320710E+03</pdfrwt>
<totfact> 0.84829168E+04</totfact>
</mgrwt>
</event>
<event>
 7    0  0.4712189E-002  0.4542381E+03  0.7546771E-02  0.1026466E+00
         21   -1    0    0  502  501  0.00000000000E+00  0.00000000000E+00  0.10823145276E+03  0.10823145276E+03  0.00000000000E+00 0. -1.
         21   -1    0    0  501  502 -0.00000000000E+00 -0.00000000000E+00 -0.47659964232E+03  0.47659964232E+03  0.00000000000E+00 0. -1.
      99926    2    1    2    0    0 -0.35527136788E-14  0.00000000000E+00 -0.36836818956E+03  0.58483109508E+03  0.45423813874E+03 0.  0.
      99925    2    3    3    0    0  0.14902601397E+02  0.85190438624E+02 -0.13949209059E+03  0.31003794535E+03  0.26303229052E+03 0.  0.
         25    1    3    3    0    0 -0.14902601397E+02 -0.85190438624E+02 -0.22887609896E+03  0.27479314973E+03  0.12509000000E+03 0.  0.
         25    1    4    4    0    0 -0.22606928503E+02  0.48286432463E+02 -0.99714871973E+02  0.16862151870E+03  0.12509000000E+03 0.  0.
         25    1    4    4    0    0  0.37509529899E+02  0.36904006161E+02 -0.39777218622E+02  0.14141642665E+03  0.12509000000E+03 0.  0.
<mgrwt>
<rscale>  2 0.45423814E+03</rscale>
<asrwt>0</asrwt>
<pdfrwt beam="1">  1       21 0.15916391E-01 0.45423814E+03</pdfrwt>
<pdfrwt beam="2">  1       21 0.70088181E-01 0.45423814E+03</pdfrwt>
<totfact> 0.59982214E+04</totfact>
</mgrwt>
</event>
<event>
 7    0  0.4712189E-002  0.4636321E+03  0.7546771E-02  0.1023733E+00
         21   -1    0    0  502  501  0.00000000000E+00  0.00000000000E+00  0.85288086759E+02  0.85288086759E+02  0.00000000000E+00 0. -1.
         21   -1    0    0  501  502 -0.00000000000E+00 -0.00000000000E+00 -0.63008433529E+03  0.63008433529E+03  0.00000000000E+00 0. -1.
      99926    2    1    2    0    0  0.00000000000E+00  0.71054273576E-14 -0.54479624853E+03  0.71537242204E+03  0.46363212768E+03 0.  0.
      99925    2    3    3    0    0 -0.97596692787E+02  0.58254682178E+02 -0.27593672434E+03  0.39780089579E+03  0.26303185057E+03 0.  0.
         25    1    4    4    0    0 -0.44000472524E+02 -0.10572552932E+02 -0.14528301653E+03  0.19698345984E+03  0.12509000000E+03 0.  0.
         25    1    3    3    0    0  0.97596692787E+02 -0.58254682178E+02 -0.26885952419E+03  0.31757152625E+03  0.12509000000E+03 0.  0.
         25    1    4    4    0    0 -0.53596220263E+02  0.68827235109E+02 -0.13065370781E+03  0.20081743595E+03  0.12509000000E+03 0.  0.
<mgrwt>
<rscale>  2 0.46363213E+03</rscale>
<asrwt>0</asrwt>
<pdfrwt beam="1">  1       21 0.12542366E-01 0.46363213E+03</pdfrwt>
<pdfrwt beam="2">  1       21 0.92659457E-01 0.46363213E+03</pdfrwt>
<totfact> 0.48685061E+04</totfact>
</mgrwt>
</event>
<event>
 7    0  0.4712189E-002  0.4559497E+03  0.7546771E-02  0.1025963E+00
         21   -1    0    0  502  501  0.00000000000E+00  0.00000000000E+00  0.23251425768E+02  0.23251425768E+02  0.00000000000E+00 0. -1.
         21   -1    0    0  501  502 -0.00000000000E+00 -0.00000000000E+00 -0.22352403874E+04  0.22352403874E+04  0.00000000000E+00 0. -1.
      99926    2    1    2    0    0  0.00000000000E+00  0.00000000000E+00 -0.22119889616E+04  0.22584918131E+04  0.45594967240E+03 0.  0.
      99925    2    3    3    0    0 -0.88678761176E+02 -0.69240302065E+02 -0.14856406838E+04  0.15129131983E+04  0.26290675564E+03 0.  0.
         25    1    4    4    0    0 -0.45990592986E+02 -0.66630784382E+02 -0.64846329850E+03  0.66536227250E+03  0.12509000000E+03 0.  0.
         25    1    4    4    0    0 -0.42688168190E+02 -0.26095176832E+01 -0.83717738526E+03  0.84755092578E+03  0.12509000000E+03 0.  0.
         25    1    3    3    0    0  0.88678761176E+02  0.69240302065E+02 -0.72634827783E+03  0.74557861485E+03  0.12509000000E+03 0.  0.
<mgrwt>
<rscale>  2 0.45594967E+03</rscale>
<asrwt>0</asrwt>
<pdfrwt beam="1">  1       21 0.34193273E-02 0.45594967E+03</pdfrwt>
<pdfrwt beam="2">  1       21 0.32871183E+00 0.45594967E+03</pdfrwt>
<totfact> 0.98569096E+03</totfact>
</mgrwt>
</event>
<event>
 7    0  0.4712189E-002  0.4609830E+03  0.7546771E-02  0.1024497E+00
         21   -1    0    0  502  501  0.00000000000E+00  0.00000000000E+00  0.50378964471E+03  0.50378964471E+03  0.00000000000E+00 0. -1.
         21   -1    0    0  501  502 -0.00000000000E+00 -0.00000000000E+00 -0.10545339187E+03  0.10545339187E+03  0.00000000000E+00 0. -1.
      99926    2    1    2    0    0  0.17763568394E-14  0.00000000000E+00  0.39833625284E+03  0.60924303658E+03  0.46098297940E+03 0.  0.
      99925    2    3    3    0    0 -0.15248141701E+02  0.31790154572E+02  0.99442072922E+02  0.28331611434E+03  0.26293758770E+03 0.  0.
         25    1    4    4    0    0 -0.13050674828E+02 -0.97766850369E+01  0.15670134691E+02  0.12711791732E+03  0.12509000000E+03 0.  0.
         25    1    3    3    0    0  0.15248141701E+02 -0.31790154572E+02  0.29889417991E+03  0.32592692224E+03  0.12509000000E+03 0.  0.
         25    1    4    4    0    0 -0.21974668726E+01  0.41566839609E+02  0.83771938231E+02  0.15619819701E+03  0.12509000000E+03 0.  0.
<mgrwt>
<rscale>  2 0.46098298E+03</rscale>
<asrwt>0</asrwt>
<pdfrwt beam="1">  1       21 0.74086712E-01 0.46098298E+03</pdfrwt>
<pdfrwt beam="2">  1       21 0.15507852E-01 0.46098298E+03</pdfrwt>
<totfact> 0.55445622E+04</totfact>
</mgrwt>
</event>
<event>
 7    0  0.4712189E-002  0.4543647E+03  0.7546771E-02  0.1026428E+00
         21   -1    0    0  502  501  0.00000000000E+00  0.00000000000E+00  0.14122446296E+03  0.14122446296E+03  0.00000000000E+00 0.  1.
         21   -1    0    0  501  502 -0.00000000000E+00 -0.00000000000E+00 -0.36545954680E+03  0.36545954680E+03  0.00000000000E+00 0.  1.
      99926    2    1    2    0    0  0.00000000000E+00  0.00000000000E+00 -0.22423508384E+03  0.50668400976E+03  0.45436473556E+03 0.  0.
      99925    2    3    3    0    0 -0.49054347843E+02 -0.96653318615E+02 -0.17507698847E+03  0.33402185559E+03  0.26300276630E+03 0.  0.
         25    1    3    3    0    0  0.49054347843E+02  0.96653318615E+02 -0.49158095366E+02  0.17266215417E+03  0.12509000000E+03 0.  0.
         25    1    4    4    0    0  0.89032024952E+01 -0.70961569825E+02 -0.93826652421E+02  0.17194696918E+03  0.12509000000E+03 0.  0.
         25    1    4    4    0    0 -0.57957550338E+02 -0.25691748790E+02 -0.81250336050E+02  0.16207488641E+03  0.12509000000E+03 0.  0.
<mgrwt>
<rscale>  2 0.45436474E+03</rscale>
<asrwt>0</asrwt>
<pdfrwt beam="1">  1       21 0.20768304E-01 0.45436474E+03</pdfrwt>
<pdfrwt beam="2">  1       21 0.53744050E-01 0.45436474E+03</pdfrwt>
<totfact> 0.65131371E+04</totfact>
</mgrwt>
</event>
<event>
 7    0  0.4712189E-002  0.4553360E+03  0.7546771E-02  0.1026143E+00
         21   -1    0    0  502  501  0.00000000000E+00  0.00000000000E+00  0.14041566066E+04  0.14041566066E+04  0.00000000000E+00 0. -1.
         21   -1    0    0  501  502 -0.00000000000E+00 -0.00000000000E+00 -0.36913771158E+02  0.36913771158E+02  0.00000000000E+00 0. -1.
      99926    2    1    2    0    0  0.14210854715E-13  0.00000000000E+00  0.13672428355E+04  0.14410703778E+04  0.45533598868E+03 0.  0.
      99925    2    3    3    0    0  0.11015459800E+03 -0.14132586505E+01  0.94698737720E+03  0.98896619613E+03  0.26293157239E+03 0.  0.
         25    1    4    4    0    0  0.23744001857E+02 -0.32306127540E+01  0.53106209154E+03  0.54612147701E+03  0.12509000000E+03 0.  0.
         25    1    3    3    0    0 -0.11015459800E+03  0.14132586505E+01  0.42025545826E+03  0.45210418165E+03  0.12509000000E+03 0.  0.
         25    1    4    4    0    0  0.86410596147E+02  0.18173541036E+01  0.41592528566E+03  0.44284471912E+03  0.12509000000E+03 0.  0.
<mgrwt>
<rscale>  2 0.45533599E+03</rscale>
<asrwt>0</asrwt>
<pdfrwt beam="1">  1       21 0.20649358E+00 0.45533599E+03</pdfrwt>
<pdfrwt beam="2">  1       21 0.54284967E-02 0.45533599E+03</pdfrwt>
<totfact> 0.25191996E+04</totfact>
</mgrwt>
</event>
<event>
 6    0  0.4712189E-002  0.4713697E+03  0.7546771E-02  0.1021534E+00
         21   -1    0    0  502  501  0.00000000000E+00  0.00000000000E+00  0.66021170684E+03  0.66021170684E+03  0.00000000000E+00 0.  1.
         21   -1    0    0  501  502 -0.00000000000E+00 -0.00000000000E+00 -0.84135672367E+02  0.84135672367E+02  0.00000000000E+00 0.  1.
      99926    2    1    2    0    0  0.00000000000E+00  0.00000000000E+00  0.57607603447E+03  0.74434737921E+03  0.47136973114E+03 0.  0.
         25    1    3    3    0    0  0.55772831175E+02  0.13810787987E+02  0.27488017988E+03  0.30742148258E+03  0.12509000000E+03 0.  0.
         25    1    3    3    0    0 -0.37923773061E+02  0.45794655749E+02  0.45913844617E+02  0.14591419494E+03  0.12509000000E+03 0.  0.
         25    1    3    3    0    0 -0.17849058114E+02 -0.59605443736E+02  0.25528200998E+03  0.29101170169E+03  0.12509000000E+03 0.  0.
<mgrwt>
<rscale>  2 0.47136973E+03</rscale>
<asrwt>0</asrwt>
<pdfrwt beam="1">  1       21 0.97089954E-01 0.47136973E+03</pdfrwt>
<pdfrwt beam="2">  1       21 0.12372893E-01 0.47136973E+03</pdfrwt>
<totfact> 0.44545480E+04</totfact>
</mgrwt>
</event>
<event>
 7    0  0.4712189E-002  0.4529225E+03  0.7546771E-02  0.1026854E+00
         21   -1    0    0  502  501  0.00000000000E+00  0.00000000000E+00  0.30680023548E+02  0.30680023548E+02  0.00000000000E+00 0. -1.
         21   -1    0    0  501  502 -0.00000000000E+00 -0.00000000000E+00 -0.16715989821E+04  0.16715989821E+04  0.00000000000E+00 0. -1.
      99926    2    1    2    0    0 -0.17763568394E-14  0.14210854715E-13 -0.16409189586E+04  0.17022790057E+04  0.45292249286E+03 0.  0.
      99925    2    3    3    0    0  0.81700048195E+01 -0.11086396126E+03 -0.10286363926E+04  0.10675388891E+04  0.26303780086E+03 0.  0.
         25    1    4    4    0    0  0.30275103852E+02 -0.66004655694E+02 -0.42118439447E+03  0.44532796760E+03  0.12509000000E+03 0.  0.
         25    1    4    4    0    0 -0.22105099032E+02 -0.44859305562E+02 -0.60745199810E+03  0.62221092147E+03  0.12509000000E+03 0.  0.
         25    1    3    3    0    0 -0.81700048195E+01  0.11086396126E+03 -0.61228256602E+03  0.63474011661E+03  0.12509000000E+03 0.  0.
<mgrwt>
<rscale>  2 0.45292249E+03</rscale>
<asrwt>0</asrwt>
<pdfrwt beam="1">  1       21 0.45117676E-02 0.45292249E+03</pdfrwt>
<pdfrwt beam="2">  1       21 0.24582341E+00 0.45292249E+03</pdfrwt>
<totfact> 0.19527380E+04</totfact>
</mgrwt>
</event>
<event>
 7    0  0.4712189E-002  0.4482047E+03  0.7546771E-02  0.1028259E+00
         21   -1    0    0  502  501  0.00000000000E+00  0.00000000000E+00  0.15077587887E+03  0.15077587887E+03  0.00000000000E+00 0. -1.
         21   -1    0    0  501  502 -0.00000000000E+00 -0.00000000000E+00 -0.33308956130E+03  0.33308956130E+03  0.00000000000E+00 0. -1.
      99926    2    1    2    0    0 -0.71054273576E-14  0.00000000000E+00 -0.18231368243E+03  0.48386544017E+03  0.44820473602E+03 0.  0.
      99925    2    3    3    0    0  0.49472232509E+02  0.78359275694E+02 -0.58479042549E+02  0.28494283208E+03  0.26303030483E+03 0.  0.
         25    1    4    4    0    0  0.48072182946E+02  0.75550799452E+01 -0.16749337164E+02  0.13526293802E+03  0.12509000000E+03 0.  0.
         25    1    3    3    0    0 -0.49472232509E+02 -0.78359275694E+02 -0.12383463988E+03  0.19892260809E+03  0.12509000000E+03 0.  0.
         25    1    4    4    0    0  0.14000495628E+01  0.70804195749E+02 -0.41729705385E+02  0.14967989406E+03  0.12509000000E+03 0.  0.
<mgrwt>
<rscale>  2 0.44820474E+03</rscale>
<asrwt>0</asrwt>
<pdfrwt beam="1">  1       21 0.22172924E-01 0.44820474E+03</pdfrwt>
<pdfrwt beam="2">  1       21 0.48983758E-01 0.44820474E+03</pdfrwt>
<totfact> 0.70127110E+04</totfact>
</mgrwt>
</event>
<event>
 7    0  0.4712189E-002  0.4575483E+03  0.7546771E-02  0.1025495E+00
         21   -1    0    0  502  501  0.00000000000E+00  0.00000000000E+00  0.71333783617E+02  0.71333783617E+02  0.00000000000E+00 0.  1.
         21   -1    0    0  501  502 -0.00000000000E+00 -0.00000000000E+00 -0.73370033154E+03  0.73370033154E+03  0.00000000000E+00 0.  1.
      99926    2    1    2    0    0 -0.35527136788E-14  0.00000000000E+00 -0.66236654792E+03  0.80503411515E+03  0.45754833926E+03 0.  0.
      99925    2    3    3    0    0  0.42793014595E+01  0.34864241448E+02 -0.60961082971E+03  0.66480394131E+03  0.26287846798E+03 0.  0.
         25    1    4    4    0    0 -0.30332974810E+02  0.30664631398E+01 -0.25080064844E+03  0.28191836747E+03  0.12509000000E+03 0.  0.
         25    1    3    3    0    0 -0.42793014595E+01 -0.34864241448E+02 -0.52755718210E+02  0.14023017384E+03  0.12509000000E+03 0.  0.
         25    1    4    4    0    0  0.34612276270E+02  0.31797778308E+02 -0.35881018127E+03  0.38288557384E+03  0.12509000000E+03 0.  0.
<mgrwt>
<rscale>  2 0.45754834E+03</rscale>
<asrwt>0</asrwt>
<pdfrwt beam="1">  1       21 0.10490262E-01 0.45754834E+03</pdfrwt>
<pdfrwt beam="2">  1       21 0.10789711E+00 0.45754834E+03</pdfrwt>
<totfact> 0.46583681E+04</totfact>
</mgrwt>
</event>
<event>
 7    0  0.4712189E-002  0.4558642E+03  0.7546771E-02  0.1025988E+00
         21   -1    0    0  502  501  0.00000000000E+00  0.00000000000E+00  0.63535871411E+02  0.63535871411E+02  0.00000000000E+00 0.  1.
         21   -1    0    0  501  502 -0.00000000000E+00 -0.00000000000E+00 -0.81769636643E+03  0.81769636643E+03  0.00000000000E+00 0.  1.
      99926    2    1    2    0    0  0.00000000000E+00  0.00000000000E+00 -0.75416049502E+03  0.88123223784E+03  0.45586423940E+03 0.  0.
      99925    2    3    3    0    0  0.69052184383E+02  0.86644373286E+02 -0.42012474781E+03  0.50773144788E+03  0.26269938685E+03 0.  0.
         25    1    4    4    0    0  0.18962841025E+02  0.56716619220E+02 -0.14923652549E+03  0.20370422891E+03  0.12509000000E+03 0.  0.
         25    1    4    4    0    0  0.50089343358E+02  0.29927754066E+02 -0.27088822232E+03  0.30402721897E+03  0.12509000000E+03 0.  0.
         25    1    3    3    0    0 -0.69052184383E+02 -0.86644373286E+02 -0.33403574721E+03  0.37350078996E+03  0.12509000000E+03 0.  0.
<mgrwt>
<rscale>  2 0.45586424E+03</rscale>
<asrwt>0</asrwt>
<pdfrwt beam="1">  1       21 0.93435109E-02 0.45586424E+03</pdfrwt>
<pdfrwt beam="2">  1       21 0.12024946E+00 0.45586424E+03</pdfrwt>
<totfact> 0.43758188E+04</totfact>
</mgrwt>
</event>
<event>
 7    0  0.4712189E-002  0.4370082E+03  0.7546771E-02  0.1031669E+00
         21   -1    0    0  502  501  0.00000000000E+00  0.00000000000E+00  0.10545911436E+04  0.10545911436E+04  0.00000000000E+00 0.  1.
         21   -1    0    0  501  502 -0.00000000000E+00 -0.00000000000E+00 -0.45272563309E+02  0.45272563309E+02  0.00000000000E+00 0.  1.
      99926    2    1    2    0    0  0.00000000000E+00  0.33306690739E-15  0.10093185803E+04  0.10998637069E+04  0.43700821189E+03 0.  0.
      99925    2    3    3    0    0  0.86746303608E+01 -0.63625393927E+00  0.40965674228E+03  0.48723210301E+03  0.26363008492E+03 0.  0.
         25    1    3    3    0    0 -0.86746303608E+01  0.63625393927E+00  0.59966183803E+03  0.61263160392E+03  0.12509000000E+03 0.  0.
         25    1    4    4    0    0  0.15454655998E+02 -0.40034299689E+02  0.19595741248E+03  0.23640729081E+03  0.12509000000E+03 0.  0.
         25    1    4    4    0    0 -0.67800256373E+01  0.39398045750E+02  0.21369932981E+03  0.25082481220E+03  0.12509000000E+03 0.  0.
<mgrwt>
<rscale>  2 0.43700821E+03</rscale>
<asrwt>0</asrwt>
<pdfrwt beam="1">  1       21 0.15508692E+00 0.43700821E+03</pdfrwt>
<pdfrwt beam="2">  1       21 0.66577306E-02 0.43700821E+03</pdfrwt>
<totfact> 0.40951690E+04</totfact>
</mgrwt>
</event>
<event>
 7    0  0.4712189E-002  0.4415891E+03  0.7546771E-02  0.1030260E+00
         21   -1    0    0  502  501  0.00000000000E+00  0.00000000000E+00  0.20754477744E+03  0.20754477744E+03  0.00000000000E+00 0. -1.
         21   -1    0    0  501  502 -0.00000000000E+00 -0.00000000000E+00 -0.23489020830E+03  0.23489020830E+03  0.00000000000E+00 0. -1.
      99926    2    1    2    0    0  0.00000000000E+00  0.00000000000E+00 -0.27345430857E+02  0.44243498574E+03  0.44158911221E+03 0.  0.
      99925    2    3    3    0    0 -0.94756660454E+02  0.24924666518E+02 -0.30339438169E+02  0.28351193556E+03  0.26430753374E+03 0.  0.
         25    1    3    3    0    0  0.94756660454E+02 -0.24924666518E+02  0.29940073121E+01  0.15892305019E+03  0.12509000000E+03 0.  0.
         25    1    4    4    0    0 -0.88575898230E+02  0.27258366784E+02 -0.53033474904E+01  0.15577015729E+03  0.12509000000E+03 0.  0.
         25    1    4    4    0    0 -0.61807622243E+01 -0.23337002660E+01 -0.25036090679E+02  0.12774177827E+03  0.12509000000E+03 0.  0.
<mgrwt>
<rscale>  2 0.44158911E+03</rscale>
<asrwt>0</asrwt>
<pdfrwt beam="1">  1       21 0.30521291E-01 0.44158911E+03</pdfrwt>
<pdfrwt beam="2">  1       21 0.34542677E-01 0.44158911E+03</pdfrwt>
<totfact> 0.77436387E+04</totfact>
</mgrwt>
</event>
<event>
 7    0  0.4712189E-002  0.4536322E+03  0.7546771E-02  0.1026644E+00
         21   -1    0    0  502  501  0.00000000000E+00  0.00000000000E+00  0.25099833067E+03  0.25099833067E+03  0.00000000000E+00 0. -1.
         21   -1    0    0  501  502 -0.00000000000E+00 -0.00000000000E+00 -0.20496372498E+03  0.20496372498E+03  0.00000000000E+00 0. -1.
      99926    2    1    2    0    0  0.00000000000E+00 -0.44408920985E-15  0.46034605687E+02  0.45596205565E+03  0.45363224232E+03 0.  0.
      99925    2    3    3    0    0  0.11105486795E+03  0.34324021114E+01  0.15376393539E+02  0.28586679072E+03  0.26294186331E+03 0.  0.
         25    1    4    4    0    0  0.27566546622E+02  0.42618805308E+01  0.38237122808E+02  0.13374477103E+03  0.12509000000E+03 0.  0.
         25    1    3    3    0    0 -0.11105486795E+03 -0.34324021114E+01  0.30658212148E+02  0.17009526493E+03  0.12509000000E+03 0.  0.
         25    1    4    4    0    0  0.83488321324E+02 -0.82947841934E+00 -0.22860729269E+02  0.15212201969E+03  0.12509000000E+03 0.  0.
<mgrwt>
<rscale>  2 0.45363224E+03</rscale>
<asrwt>0</asrwt>
<pdfrwt beam="1">  1       21 0.36911519E-01 0.45363224E+03</pdfrwt>
<pdfrwt beam="2">  1       21 0.30141724E-01 0.45363224E+03</pdfrwt>
<totfact> 0.69227740E+04</totfact>
</mgrwt>
</event>
<event>
 7    0  0.4712189E-002  0.4440921E+03  0.7546771E-02  0.1029499E+00
         21   -1    0    0  502  501  0.00000000000E+00  0.00000000000E+00  0.22239443782E+03  0.22239443782E+03  0.00000000000E+00 0. -1.
         21   -1    0    0  501  502 -0.00000000000E+00 -0.00000000000E+00 -0.22169819979E+03  0.22169819979E+03  0.00000000000E+00 0. -1.
      99926    2    1    2    0    0  0.00000000000E+00 -0.35527136788E-14  0.69623802495E+00  0.44409263761E+03  0.44409209183E+03 0.  0.
      99925    2    3    3    0    0 -0.95709387967E+02  0.19272681468E+02  0.31897254398E+02  0.28237456589E+03  0.26303276874E+03 0.  0.
         25    1    3    3    0    0  0.95709387967E+02 -0.19272681468E+02 -0.31201016373E+02  0.16171807171E+03  0.12509000000E+03 0.  0.
         25    1    4    4    0    0 -0.24056657056E+02  0.20642342282E+02  0.47188151879E+02  0.13740108741E+03  0.12509000000E+03 0.  0.
         25    1    4    4    0    0 -0.71652730912E+02 -0.13696608148E+01 -0.15290897482E+02  0.14497347848E+03  0.12509000000E+03 0.  0.
<mgrwt>
<rscale>  2 0.44409209E+03</rscale>
<asrwt>0</asrwt>
<pdfrwt beam="1">  1       21 0.32705065E-01 0.44409209E+03</pdfrwt>
<pdfrwt beam="2">  1       21 0.32602676E-01 0.44409209E+03</pdfrwt>
<totfact> 0.75732081E+04</totfact>
</mgrwt>
</event>
<event>
 7    0  0.4712189E-002  0.4563367E+03  0.7546771E-02  0.1025849E+00
         21   -1    0    0  502  501  0.00000000000E+00  0.00000000000E+00  0.54174868835E+03  0.54174868835E+03  0.00000000000E+00 0. -1.
         21   -1    0    0  501  502 -0.00000000000E+00 -0.00000000000E+00 -0.96097703734E+02  0.96097703734E+02  0.00000000000E+00 0. -1.
      99926    2    1    2    0    0  0.00000000000E+00  0.00000000000E+00  0.44565098462E+03  0.63784639208E+03  0.45633673949E+03 0.  0.
      99925    2    3    3    0    0 -0.91462640603E+01 -0.11397070160E+03  0.28760073864E+03  0.40611300364E+03  0.26294602466E+03 0.  0.
         25    1    4    4    0    0 -0.92131629187E+01 -0.66209754736E+02  0.20330924960E+03  0.24789266440E+03  0.12509000000E+03 0.  0.
         25    1    4    4    0    0  0.66898858404E-01 -0.47760946865E+02  0.84291489045E+02  0.15822033923E+03  0.12509000000E+03 0.  0.
         25    1    3    3    0    0  0.91462640603E+01  0.11397070160E+03  0.15805024597E+03  0.23173338845E+03  0.12509000000E+03 0.  0.
<mgrwt>
<rscale>  2 0.45633674E+03</rscale>
<asrwt>0</asrwt>
<pdfrwt beam="1">  1       21 0.79668924E-01 0.45633674E+03</pdfrwt>
<pdfrwt beam="2">  1       21 0.14132015E-01 0.45633674E+03</pdfrwt>
<totfact> 0.55815965E+04</totfact>
</mgrwt>
</event>
<event>
 7    0  0.4712189E-002  0.4580084E+03  0.7546771E-02  0.1025360E+00
         21   -1    0    0  502  501  0.00000000000E+00  0.00000000000E+00  0.17367518541E+03  0.17367518541E+03  0.00000000000E+00 0. -1.
         21   -1    0    0  501  502 -0.00000000000E+00 -0.00000000000E+00 -0.30195977052E+03  0.30195977052E+03  0.00000000000E+00 0. -1.
      99926    2    1    2    0    0 -0.17763568394E-14 -0.13322676296E-14 -0.12828458512E+03  0.47563495593E+03  0.45800838041E+03 0.  0.
      99925    2    3    3    0    0  0.13443713068E+02 -0.17355686298E+01 -0.20011660012E+03  0.33075192691E+03  0.26299512902E+03 0.  0.
         25    1    4    4    0    0  0.30493037075E+01  0.38625874859E+02 -0.89130214387E+02  0.15840757456E+03  0.12509000000E+03 0.  0.
         25    1    4    4    0    0  0.10394409361E+02 -0.40361443489E+02 -0.11098638574E+03  0.17234435235E+03  0.12509000000E+03 0.  0.
         25    1    3    3    0    0 -0.13443713068E+02  0.17355686298E+01  0.71832015004E+02  0.14488302902E+03  0.12509000000E+03 0.  0.
<mgrwt>
<rscale>  2 0.45800838E+03</rscale>
<asrwt>0</asrwt>
<pdfrwt beam="1">  1       21 0.25540469E-01 0.45800838E+03</pdfrwt>
<pdfrwt beam="2">  1       21 0.44405848E-01 0.45800838E+03</pdfrwt>
<totfact> 0.65442968E+04</totfact>
</mgrwt>
</event>
<event>
 7    0  0.4712189E-002  0.4556736E+03  0.7546771E-02  0.1026044E+00
         21   -1    0    0  502  501  0.00000000000E+00  0.00000000000E+00  0.17261924165E+02  0.17261924165E+02  0.00000000000E+00 0. -1.
         21   -1    0    0  501  502 -0.00000000000E+00 -0.00000000000E+00 -0.30071737451E+04  0.30071737451E+04  0.00000000000E+00 0. -1.
      99926    2    1    2    0    0  0.00000000000E+00  0.00000000000E+00 -0.29899118210E+04  0.30244356693E+04  0.45567358993E+03 0.  0.
      99925    2    3    3    0    0 -0.30995860367E+02 -0.10949992782E+03 -0.19017678601E+04  0.19232291650E+04  0.26294191305E+03 0.  0.
         25    1    4    4    0    0  0.17031177328E+02 -0.27712694878E+02 -0.81657253236E+03  0.82673832811E+03  0.12509000000E+03 0.  0.
         25    1    3    3    0    0  0.30995860367E+02  0.10949992782E+03 -0.10881439609E+04  0.11012065044E+04  0.12509000000E+03 0.  0.
         25    1    4    4    0    0 -0.48027037695E+02 -0.81787232942E+02 -0.10851953277E+04  0.10964908368E+04  0.12509000000E+03 0.  0.
<mgrwt>
<rscale>  2 0.45567359E+03</rscale>
<asrwt>0</asrwt>
<pdfrwt beam="1">  1       21 0.25385181E-02 0.45567359E+03</pdfrwt>
<pdfrwt beam="2">  1       21 0.44223146E+00 0.45567359E+03</pdfrwt>
<totfact> 0.30973656E+03</totfact>
</mgrwt>
</event>
<event>
 7    0  0.4712189E-002  0.4778312E+03  0.7546771E-02  0.1019733E+00
         21   -1    0    0  502  501  0.00000000000E+00  0.00000000000E+00  0.23980249110E+03  0.23980249110E+03  0.00000000000E+00 0.  1.
         21   -1    0    0  501  502 -0.00000000000E+00 -0.00000000000E+00 -0.23803195228E+03  0.23803195228E+03  0.00000000000E+00 0.  1.
      99926    2    1    2    0    0 -0.35527136788E-14  0.35527136788E-14  0.17705388245E+01  0.47783444338E+03  0.47783116315E+03 0.  0.
      99925    2    3    3    0    0 -0.20697078545E+02 -0.19789784718E+02  0.13140341184E+03  0.29542776997E+03  0.26304126290E+03 0.  0.
         25    1    4    4    0    0 -0.32134946521E+02 -0.43242788885E+02  0.77839444274E+02  0.15687281716E+03  0.12509000000E+03 0.  0.
         25    1    3    3    0    0  0.20697078545E+02  0.19789784718E+02 -0.12963287301E+03  0.18240667341E+03  0.12509000000E+03 0.  0.
         25    1    4    4    0    0  0.11437867977E+02  0.23453004167E+02  0.53563967562E+02  0.13855495281E+03  0.12509000000E+03 0.  0.
<mgrwt>
<rscale>  2 0.47783116E+03</rscale>
<asrwt>0</asrwt>
<pdfrwt beam="1">  1       21 0.35265072E-01 0.47783116E+03</pdfrwt>
<pdfrwt beam="2">  1       21 0.35004699E-01 0.47783116E+03</pdfrwt>
<totfact> 0.55988464E+04</totfact>
</mgrwt>
</event>
<event>
 7    0  0.4712189E-002  0.4583017E+03  0.7546771E-02  0.1025275E+00
         21   -1    0    0  502  501  0.00000000000E+00  0.00000000000E+00  0.14769489377E+04  0.14769489377E+04  0.00000000000E+00 0.  1.
         21   -1    0    0  501  502 -0.00000000000E+00 -0.00000000000E+00 -0.35553103651E+02  0.35553103651E+02  0.00000000000E+00 0.  1.
      99926    2    1    2    0    0  0.00000000000E+00  0.00000000000E+00  0.14413958341E+04  0.15125020414E+04  0.45830172886E+03 0.  0.
      99925    2    3    3    0    0 -0.84028210584E+02  0.79121963888E+02  0.85930280754E+03  0.90603619322E+03  0.26301947272E+03 0.  0.
         25    1    4    4    0    0 -0.59242542854E+02  0.43667871512E+02  0.56494288583E+03  0.58328769423E+03  0.12509000000E+03 0.  0.
         25    1    3    3    0    0  0.84028210584E+02 -0.79121963888E+02  0.58209302654E+03  0.60646584816E+03  0.12509000000E+03 0.  0.
         25    1    4    4    0    0 -0.24785667730E+02  0.35454092376E+02  0.29435992171E+03  0.32274849899E+03  0.12509000000E+03 0.  0.
<mgrwt>
<rscale>  2 0.45830173E+03</rscale>
<asrwt>0</asrwt>
<pdfrwt beam="1">  1       21 0.21719833E+00 0.45830173E+03</pdfrwt>
<pdfrwt beam="2">  1       21 0.52283986E-02 0.45830173E+03</pdfrwt>
<totfact> 0.22881929E+04</totfact>
</mgrwt>
</event>
<event>
 7    0  0.4712189E-002  0.4578867E+03  0.7546771E-02  0.1025396E+00
         21   -1    0    0  502  501  0.00000000000E+00  0.00000000000E+00  0.74615184412E+02  0.74615184412E+02  0.00000000000E+00 0. -1.
         21   -1    0    0  501  502 -0.00000000000E+00 -0.00000000000E+00 -0.70247185329E+03  0.70247185329E+03  0.00000000000E+00 0. -1.
      99926    2    1    2    0    0 -0.14210854715E-13  0.00000000000E+00 -0.62785666888E+03  0.77708703770E+03  0.45788674092E+03 0.  0.
      99925    2    3    3    0    0 -0.68217295992E+02  0.72187647255E+02 -0.29292807013E+03  0.40602190832E+03  0.26302524569E+03 0.  0.
         25    1    3    3    0    0  0.68217295992E+02 -0.72187647255E+02 -0.33492859874E+03  0.37106512938E+03  0.12509000000E+03 0.  0.
         25    1    4    4    0    0  0.12192378755E+01  0.53434807292E+02 -0.15774347065E+03  0.20829612527E+03  0.12509000000E+03 0.  0.
         25    1    4    4    0    0 -0.69436533867E+02  0.18752839964E+02 -0.13518459948E+03  0.19772578304E+03  0.12509000000E+03 0.  0.
<mgrwt>
<rscale>  2 0.45788674E+03</rscale>
<asrwt>0</asrwt>
<pdfrwt beam="1">  1       21 0.10972821E-01 0.45788674E+03</pdfrwt>
<pdfrwt beam="2">  1       21 0.10330469E+00 0.45788674E+03</pdfrwt>
<totfact> 0.47800713E+04</totfact>
</mgrwt>
</event>
<event>
 7    0  0.4712189E-002  0.4480631E+03  0.7546771E-02  0.1028301E+00
         21   -1    0    0  502  501  0.00000000000E+00  0.00000000000E+00  0.12209793349E+04  0.12209793349E+04  0.00000000000E+00 0. -1.
         21   -1    0    0  501  502 -0.00000000000E+00 -0.00000000000E+00 -0.41106451833E+02  0.41106451833E+02  0.00000000000E+00 0. -1.
      99926    2    1    2    0    0  0.00000000000E+00  0.00000000000E+00  0.11798728830E+04  0.12620857867E+04  0.44806306796E+03 0.  0.
      99925    2    3    3    0    0 -0.36858204720E+02 -0.65958395983E+02  0.95883748446E+03  0.99710806541E+03  0.26295652729E+03 0.  0.
         25    1    4    4    0    0 -0.50075832477E+00 -0.58551666344E+02  0.58743518279E+03  0.60345351973E+03  0.12509000000E+03 0.  0.
         25    1    3    3    0    0  0.36858204720E+02  0.65958395983E+02  0.22103539856E+03  0.26497772127E+03  0.12509000000E+03 0.  0.
         25    1    4    4    0    0 -0.36357446395E+02 -0.74067296391E+01  0.37140230167E+03  0.39365454568E+03  0.12509000000E+03 0.  0.
<mgrwt>
<rscale>  2 0.44806307E+03</rscale>
<asrwt>0</asrwt>
<pdfrwt beam="1">  1       21 0.17955576E+00 0.44806307E+03</pdfrwt>
<pdfrwt beam="2">  1       21 0.60450672E-02 0.44806307E+03</pdfrwt>
<totfact> 0.31924793E+04</totfact>
</mgrwt>
</event>
<event>
 7    0  0.4712189E-002  0.4467897E+03  0.7546771E-02  0.1028684E+00
         21   -1    0    0  502  501  0.00000000000E+00  0.00000000000E+00  0.60048762547E+03  0.60048762547E+03  0.00000000000E+00 0.  1.
         21   -1    0    0  501  502 -0.00000000000E+00 -0.00000000000E+00 -0.83107893403E+02  0.83107893403E+02  0.00000000000E+00 0.  1.
      99926    2    1    2    0    0  0.00000000000E+00 -0.44408920985E-15  0.51737973206E+03  0.68359551887E+03  0.44678971146E+03 0.  0.
      99925    2    3    3    0    0  0.10271872857E+03 -0.33027609368E+01  0.36302991440E+03  0.45991400479E+03  0.26299834149E+03 0.  0.
         25    1    4    4    0    0  0.16713294593E+02  0.14150004040E+02  0.19589283455E+03  0.23345463704E+03  0.12509000000E+03 0.  0.
         25    1    4    4    0    0  0.86005433974E+02 -0.17452764976E+02  0.16713707986E+03  0.22645936775E+03  0.12509000000E+03 0.  0.
         25    1    3    3    0    0 -0.10271872857E+03  0.33027609368E+01  0.15434981766E+03  0.22368151408E+03  0.12509000000E+03 0.  0.
<mgrwt>
<rscale>  2 0.44678971E+03</rscale>
<asrwt>0</asrwt>
<pdfrwt beam="1">  1       21 0.88307001E-01 0.44678971E+03</pdfrwt>
<pdfrwt beam="2">  1       21 0.12221749E-01 0.44678971E+03</pdfrwt>
<totfact> 0.57425997E+04</totfact>
</mgrwt>
</event>
<event>
 7    0  0.4712189E-002  0.4582515E+03  0.7546771E-02  0.1025290E+00
         21   -1    0    0  502  501  0.00000000000E+00  0.00000000000E+00  0.51219041602E+03  0.51219041602E+03  0.00000000000E+00 0.  1.
         21   -1    0    0  501  502 -0.00000000000E+00 -0.00000000000E+00 -0.10249821358E+03  0.10249821358E+03  0.00000000000E+00 0.  1.
      99926    2    1    2    0    0  0.00000000000E+00  0.14210854715E-13  0.40969220245E+03  0.61468862960E+03  0.45825147094E+03 0.  0.
      99925    2    3    3    0    0  0.38594309964E+02 -0.79033632547E+02  0.15449467577E+03  0.31718380349E+03  0.26268065122E+03 0.  0.
         25    1    4    4    0    0 -0.27011527933E+01 -0.66915946322E+02  0.57264792922E+02  0.15300916543E+03  0.12509000000E+03 0.  0.
         25    1    4    4    0    0  0.41295462757E+02 -0.12117686225E+02  0.97229882847E+02  0.16417463806E+03  0.12509000000E+03 0.  0.
         25    1    3    3    0    0 -0.38594309964E+02  0.79033632547E+02  0.25519752668E+03  0.29750482611E+03  0.12509000000E+03 0.  0.
<mgrwt>
<rscale>  2 0.45825147E+03</rscale>
<asrwt>0</asrwt>
<pdfrwt beam="1">  1       21 0.75322119E-01 0.45825147E+03</pdfrwt>
<pdfrwt beam="2">  1       21 0.15073267E-01 0.45825147E+03</pdfrwt>
<totfact> 0.56322771E+04</totfact>
</mgrwt>
</event>
<event>
 7    0  0.4712189E-002  0.4398977E+03  0.7546771E-02  0.1030778E+00
         21   -1    0    0  502  501  0.00000000000E+00  0.00000000000E+00  0.94552620451E+03  0.94552620451E+03  0.00000000000E+00 0.  1.
         21   -1    0    0  501  502 -0.00000000000E+00 -0.00000000000E+00 -0.51164631557E+02  0.51164631557E+02  0.00000000000E+00 0.  1.
      99926    2    1    2    0    0  0.00000000000E+00  0.00000000000E+00  0.89436157296E+03  0.99669083607E+03  0.43989771485E+03 0.  0.
      99925    2    3    3    0    0  0.85981630521E+02  0.42877384740E+02  0.62199083009E+03  0.68194547776E+03  0.26257519116E+03 0.  0.
         25    1    3    3    0    0 -0.85981630521E+02 -0.42877384740E+02  0.27237074286E+03  0.31474535831E+03  0.12509000000E+03 0.  0.
         25    1    4    4    0    0  0.74570940096E+02  0.26566197716E+02  0.39773981992E+03  0.42439493448E+03  0.12509000000E+03 0.  0.
         25    1    4    4    0    0  0.11410690425E+02  0.16311187024E+02  0.22425101018E+03  0.25755054328E+03  0.12509000000E+03 0.  0.
<mgrwt>
<rscale>  2 0.43989771E+03</rscale>
<asrwt>0</asrwt>
<pdfrwt beam="1">  1       21 0.13904796E+00 0.43989771E+03</pdfrwt>
<pdfrwt beam="2">  1       21 0.75242111E-02 0.43989771E+03</pdfrwt>
<totfact> 0.44294086E+04</totfact>
</mgrwt>
</event>
<event>
 7    0  0.4712189E-002  0.4681960E+03  0.7546771E-02  0.1022431E+00
         21   -1    0    0  502  501  0.00000000000E+00  0.00000000000E+00  0.77061344785E+03  0.77061344785E+03  0.00000000000E+00 0.  1.
         21   -1    0    0  501  502 -0.00000000000E+00 -0.00000000000E+00 -0.71114616046E+02  0.71114616046E+02  0.00000000000E+00 0.  1.
      99926    2    1    2    0    0  0.83266726847E-15 -0.14210854715E-13  0.69949883180E+03  0.84172806390E+03  0.46819602503E+03 0.  0.
      99925    2    3    3    0    0 -0.36077063844E+00 -0.10412743453E+03  0.31020860682E+03  0.41978370720E+03  0.26295689439E+03 0.  0.
         25    1    4    4    0    0 -0.15341063192E+02 -0.92389447080E+02  0.17440239222E+03  0.23416844506E+03  0.12509000000E+03 0.  0.
         25    1    4    4    0    0  0.14980292553E+02 -0.11737987454E+02  0.13580621460E+03  0.18561526214E+03  0.12509000000E+03 0.  0.
         25    1    3    3    0    0  0.36077063844E+00  0.10412743453E+03  0.38929022498E+03  0.42194435669E+03  0.12509000000E+03 0.  0.
<mgrwt>
<rscale>  2 0.46819603E+03</rscale>
<asrwt>0</asrwt>
<pdfrwt beam="1">  1       21 0.11332550E+00 0.46819603E+03</pdfrwt>
<pdfrwt beam="2">  1       21 0.10458032E-01 0.46819603E+03</pdfrwt>
<totfact> 0.41360527E+04</totfact>
</mgrwt>
</event>
<event>
 7    0  0.4712189E-002  0.4525935E+03  0.7546771E-02  0.1026951E+00
         21   -1    0    0  502  501  0.00000000000E+00  0.00000000000E+00  0.11457369803E+04  0.11457369803E+04  0.00000000000E+00 0.  1.
         21   -1    0    0  501  502 -0.00000000000E+00 -0.00000000000E+00 -0.44696305039E+02  0.44696305039E+02  0.00000000000E+00 0.  1.
      99926    2    1    2    0    0  0.00000000000E+00 -0.14210854715E-13  0.11010406752E+04  0.11904332853E+04  0.45259345804E+03 0.  0.
      99925    2    3    3    0    0  0.65469742376E+02  0.86348464419E+02  0.62834146590E+03  0.68959958529E+03  0.26266375042E+03 0.  0.
         25    1    3    3    0    0 -0.65469742376E+02 -0.86348464419E+02  0.47269920932E+03  0.50083370001E+03  0.12509000000E+03 0.  0.
         25    1    4    4    0    0  0.43573191386E+02  0.16528625473E+02  0.37062304295E+03  0.39392990053E+03  0.12509000000E+03 0.  0.
         25    1    4    4    0    0  0.21896550990E+02  0.69819838946E+02  0.25771842295E+03  0.29566968476E+03  0.12509000000E+03 0.  0.
<mgrwt>
<rscale>  2 0.45259346E+03</rscale>
<asrwt>0</asrwt>
<pdfrwt beam="1">  1       21 0.16849071E+00 0.45259346E+03</pdfrwt>
<pdfrwt beam="2">  1       21 0.65729868E-02 0.45259346E+03</pdfrwt>
<totfact> 0.33076431E+04</totfact>
</mgrwt>
</event>
<event>
 7    0  0.4712189E-002  0.4687018E+03  0.7546771E-02  0.1022287E+00
         21   -1    0    0  502  501  0.00000000000E+00  0.00000000000E+00  0.90096642526E+03  0.90096642526E+03  0.00000000000E+00 0. -1.
         21   -1    0    0  501  502 -0.00000000000E+00 -0.00000000000E+00 -0.60957137653E+02  0.60957137653E+02  0.00000000000E+00 0. -1.
      99926    2    1    2    0    0  0.14210854715E-13  0.34416913763E-14  0.84000928761E+03  0.96192356292E+03  0.46870175765E+03 0.  0.
      99925    2    3    3    0    0 -0.10852020879E+03 -0.96010740458E+00  0.65161911111E+03  0.71109309382E+03  0.26318883829E+03 0.  0.
         25    1    4    4    0    0 -0.60403733308E+02  0.34814667862E+02  0.38029263739E+03  0.40636273236E+03  0.12509000000E+03 0.  0.
         25    1    4    4    0    0 -0.48116475486E+02 -0.35774775266E+02  0.27132647372E+03  0.30473036147E+03  0.12509000000E+03 0.  0.
         25    1    3    3    0    0  0.10852020879E+03  0.96010740458E+00  0.18839017650E+03  0.25083046909E+03  0.12509000000E+03 0.  0.
<mgrwt>
<rscale>  2 0.46870176E+03</rscale>
<asrwt>0</asrwt>
<pdfrwt beam="1">  1       21 0.13249505E+00 0.46870176E+03</pdfrwt>
<pdfrwt beam="2">  1       21 0.89642855E-02 0.46870176E+03</pdfrwt>
<totfact> 0.36582141E+04</totfact>
</mgrwt>
</event>
<event>
 7    0  0.4712189E-002  0.4481874E+03  0.7546771E-02  0.1028264E+00
         21   -1    0    0  502  501  0.00000000000E+00  0.00000000000E+00  0.81117493803E+03  0.81117493803E+03  0.00000000000E+00 0. -1.
         21   -1    0    0  501  502 -0.00000000000E+00 -0.00000000000E+00 -0.61907727259E+02  0.61907727259E+02  0.00000000000E+00 0. -1.
      99926    2    1    2    0    0  0.14210854715E-13  0.35527136788E-14  0.74926721077E+03  0.87308266529E+03  0.44818744660E+03 0.  0.
      99925    2    3    3    0    0 -0.95781520861E+02 -0.28636931293E+02  0.54678994612E+03  0.61493789124E+03  0.26301177031E+03 0.  0.
         25    1    4    4    0    0 -0.67998767772E+02 -0.41908023933E+02  0.34451260579E+03  0.37512205819E+03  0.12509000000E+03 0.  0.
         25    1    4    4    0    0 -0.27782753089E+02  0.13271092641E+02  0.20227734033E+03  0.23981583305E+03  0.12509000000E+03 0.  0.
         25    1    3    3    0    0  0.95781520861E+02  0.28636931293E+02  0.20247726465E+03  0.25814477405E+03  0.12509000000E+03 0.  0.
<mgrwt>
<rscale>  2 0.44818745E+03</rscale>
<asrwt>0</asrwt>
<pdfrwt beam="1">  1       21 0.11929043E+00 0.44818745E+03</pdfrwt>
<pdfrwt beam="2">  1       21 0.91040780E-02 0.44818745E+03</pdfrwt>
<totfact> 0.46869401E+04</totfact>
</mgrwt>
</event>
<event>
 7    0  0.4712189E-002  0.4440202E+03  0.7546771E-02  0.1029520E+00
         21   -1    0    0  502  501  0.00000000000E+00  0.00000000000E+00  0.36757306890E+02  0.36757306890E+02  0.00000000000E+00 0.  1.
         21   -1    0    0  501  502 -0.00000000000E+00 -0.00000000000E+00 -0.13409164589E+04  0.13409164589E+04  0.00000000000E+00 0.  1.
      99926    2    1    2    0    0  0.00000000000E+00  0.00000000000E+00 -0.13041591520E+04  0.13776737658E+04  0.44402016978E+03 0.  0.
      99925    2    3    3    0    0  0.56166536495E+02 -0.31253086434E+02 -0.58111999119E+03  0.64108394003E+03  0.26297668864E+03 0.  0.
         25    1    4    4    0    0  0.55366784445E+02 -0.27468898033E+02 -0.37289408861E+03  0.39814260083E+03  0.12509000000E+03 0.  0.
         25    1    4    4    0    0  0.79975205071E+00 -0.37841884012E+01 -0.20822590259E+03  0.24294133920E+03  0.12509000000E+03 0.  0.
         25    1    3    3    0    0 -0.56166536495E+02  0.31253086434E+02 -0.72303916079E+03  0.73658982573E+03  0.12509000000E+03 0.  0.
<mgrwt>
<rscale>  2 0.44402017E+03</rscale>
<asrwt>0</asrwt>
<pdfrwt beam="1">  1       21 0.54054861E-02 0.44402017E+03</pdfrwt>
<pdfrwt beam="2">  1       21 0.19719360E+00 0.44402017E+03</pdfrwt>
<totfact> 0.29359766E+04</totfact>
</mgrwt>
</event>
<event>
 7    0  0.4712189E-002  0.4351015E+03  0.7546771E-02  0.1032260E+00
         21   -1    0    0  502  501  0.00000000000E+00  0.00000000000E+00  0.75428783157E+03  0.75428783157E+03  0.00000000000E+00 0. -1.
         21   -1    0    0  501  502 -0.00000000000E+00 -0.00000000000E+00 -0.62745725291E+02  0.62745725291E+02  0.00000000000E+00 0. -1.
      99926    2    1    2    0    0 -0.88817841970E-15  0.00000000000E+00  0.69154210628E+03  0.81703355686E+03  0.43510153790E+03 0.  0.
      99925    2    3    3    0    0 -0.54986495408E+01  0.36648533543E+02  0.60422692935E+03  0.66004693839E+03  0.26305594189E+03 0.  0.
         25    1    4    4    0    0  0.14256499721E+02  0.15902424050E+02  0.20900885217E+03  0.24451655007E+03  0.12509000000E+03 0.  0.
         25    1    3    3    0    0  0.54986495408E+01 -0.36648533543E+02  0.87315176931E+02  0.15698661847E+03  0.12509000000E+03 0.  0.
         25    1    4    4    0    0 -0.19755149262E+02  0.20746109493E+02  0.39521807718E+03  0.41553038832E+03  0.12509000000E+03 0.  0.
<mgrwt>
<rscale>  2 0.43510154E+03</rscale>
<asrwt>0</asrwt>
<pdfrwt beam="1">  1       21 0.11092468E+00 0.43510154E+03</pdfrwt>
<pdfrwt beam="2">  1       21 0.92273130E-02 0.43510154E+03</pdfrwt>
<totfact> 0.55058422E+04</totfact>
</mgrwt>
</event>
<event>
 7    0  0.4712189E-002  0.4604805E+03  0.7546771E-02  0.1024642E+00
         21   -1    0    0  502  501  0.00000000000E+00  0.00000000000E+00  0.81765829242E+02  0.81765829242E+02  0.00000000000E+00 0.  1.
         21   -1    0    0  501  502 -0.00000000000E+00 -0.00000000000E+00 -0.64832178159E+03  0.64832178159E+03  0.00000000000E+00 0.  1.
      99926    2    1    2    0    0  0.00000000000E+00  0.00000000000E+00 -0.56655595235E+03  0.73008761083E+03  0.46048047988E+03 0.  0.
      99925    2    3    3    0    0 -0.10299191219E+03 -0.22696084022E+02 -0.26984664202E+03  0.39125672508E+03  0.26294898460E+03 0.  0.
         25    1    4    4    0    0 -0.23311822394E+02  0.19936517784E+02 -0.11552480529E+03  0.17301559046E+03  0.12509000000E+03 0.  0.
         25    1    3    3    0    0  0.10299191219E+03  0.22696084022E+02 -0.29670931033E+03  0.33883088576E+03  0.12509000000E+03 0.  0.
         25    1    4    4    0    0 -0.79680089800E+02 -0.42632601806E+02 -0.15432183673E+03  0.21824113462E+03  0.12509000000E+03 0.  0.
<mgrwt>
<rscale>  2 0.46048048E+03</rscale>
<asrwt>0</asrwt>
<pdfrwt beam="1">  1       21 0.12024387E-01 0.46048048E+03</pdfrwt>
<pdfrwt beam="2">  1       21 0.95341439E-01 0.46048048E+03</pdfrwt>
<totfact> 0.49147134E+04</totfact>
</mgrwt>
</event>
<event>
 7    0  0.4712189E-002  0.4554015E+03  0.7546771E-02  0.1026123E+00
         21   -1    0    0  502  501  0.00000000000E+00  0.00000000000E+00  0.37084028486E+02  0.37084028486E+02  0.00000000000E+00 0.  1.
         21   -1    0    0  501  502 -0.00000000000E+00 -0.00000000000E+00 -0.13981121682E+04  0.13981121682E+04  0.00000000000E+00 0.  1.
      99926    2    1    2    0    0  0.00000000000E+00  0.35527136788E-14 -0.13610281397E+04  0.14351961967E+04  0.45540149965E+03 0.  0.
      99925    2    3    3    0    0 -0.10267243104E+03  0.17728575687E+02 -0.99858482055E+03  0.10378693813E+04  0.26295489800E+03 0.  0.
         25    1    3    3    0    0  0.10267243104E+03 -0.17728575687E+02 -0.36244331916E+03  0.39732681535E+03  0.12509000000E+03 0.  0.
         25    1    4    4    0    0 -0.78043907824E+02 -0.99243290099E+01 -0.43616838889E+03  0.46052113461E+03  0.12509000000E+03 0.  0.
         25    1    4    4    0    0 -0.24628523215E+02  0.27652904697E+02 -0.56241643166E+03  0.57734824673E+03  0.12509000000E+03 0.  0.
<mgrwt>
<rscale>  2 0.45540150E+03</rscale>
<asrwt>0</asrwt>
<pdfrwt beam="1">  1       21 0.54535337E-02 0.45540150E+03</pdfrwt>
<pdfrwt beam="2">  1       21 0.20560473E+00 0.45540150E+03</pdfrwt>
<totfact> 0.25329904E+04</totfact>
</mgrwt>
</event>
<event>
 7    0  0.4712189E-002  0.4541915E+03  0.7546771E-02  0.1026479E+00
         21   -1    0    0  502  501  0.00000000000E+00  0.00000000000E+00  0.50584189182E+02  0.50584189182E+02  0.00000000000E+00 0.  1.
         21   -1    0    0  501  502 -0.00000000000E+00 -0.00000000000E+00 -0.10195375886E+04  0.10195375886E+04  0.00000000000E+00 0.  1.
      99926    2    1    2    0    0 -0.14210854715E-13  0.00000000000E+00 -0.96895339937E+03  0.10701217777E+04  0.45419151140E+03 0.  0.
      99925    2    3    3    0    0 -0.81212324904E+02  0.77492529074E+02 -0.59948007400E+03  0.66421713372E+03  0.26307319859E+03 0.  0.
         25    1    3    3    0    0  0.81212324904E+02 -0.77492529074E+02 -0.36947332537E+03  0.40590464402E+03  0.12509000000E+03 0.  0.
         25    1    4    4    0    0 -0.28998921793E+02  0.10391520521E+02 -0.34388284469E+03  0.36722178603E+03  0.12509000000E+03 0.  0.
         25    1    4    4    0    0 -0.52213403110E+02  0.67101008553E+02 -0.25559722931E+03  0.29699534768E+03  0.12509000000E+03 0.  0.
<mgrwt>
<rscale>  2 0.45419151E+03</rscale>
<asrwt>0</asrwt>
<pdfrwt beam="1">  1       21 0.74388526E-02 0.45419151E+03</pdfrwt>
<pdfrwt beam="2">  1       21 0.14993197E+00 0.45419151E+03</pdfrwt>
<totfact> 0.36779122E+04</totfact>
</mgrwt>
</event>
<event>
 7    0  0.4712189E-002  0.4798209E+03  0.7546771E-02  0.1019184E+00
         21   -1    0    0  502  501  0.00000000000E+00  0.00000000000E+00  0.15673124347E+03  0.15673124347E+03  0.00000000000E+00 0. -1.
         21   -1    0    0  501  502 -0.00000000000E+00 -0.00000000000E+00 -0.36723387070E+03  0.36723387070E+03  0.00000000000E+00 0. -1.
      99926    2    1    2    0    0  0.00000000000E+00 -0.28421709430E-13 -0.21050262723E+03  0.52396511417E+03  0.47982088825E+03 0.  0.
      99925    2    3    3    0    0 -0.83852679470E+01 -0.13155716280E+03 -0.97212169549E+02  0.30981601727E+03  0.26297938863E+03 0.  0.
         25    1    3    3    0    0  0.83852679470E+01  0.13155716280E+03 -0.11329045768E+03  0.21414909690E+03  0.12509000000E+03 0.  0.
         25    1    4    4    0    0 -0.30433851953E+02 -0.78456788251E+02 -0.81139906367E+02  0.17121004489E+03  0.12509000000E+03 0.  0.
         25    1    4    4    0    0  0.22048584006E+02 -0.53100374549E+02 -0.16072263182E+02  0.13860597237E+03  0.12509000000E+03 0.  0.
<mgrwt>
<rscale>  2 0.47982089E+03</rscale>
<asrwt>0</asrwt>
<pdfrwt beam="1">  1       21 0.23048713E-01 0.47982089E+03</pdfrwt>
<pdfrwt beam="2">  1       21 0.54004980E-01 0.47982089E+03</pdfrwt>
<totfact> 0.52490686E+04</totfact>
</mgrwt>
</event>
<event>
 7    0  0.4712189E-002  0.4688938E+03  0.7546771E-02  0.1022233E+00
         21   -1    0    0  502  501  0.00000000000E+00  0.00000000000E+00  0.16446913292E+04  0.16446913292E+04  0.00000000000E+00 0. -1.
         21   -1    0    0  501  502 -0.00000000000E+00 -0.00000000000E+00 -0.33419855822E+02  0.33419855822E+02  0.00000000000E+00 0. -1.
      99926    2    1    2    0    0 -0.13322676296E-14  0.14210854715E-13  0.16112714733E+04  0.16781111850E+04  0.46889379221E+03 0.  0.
      99925    2    3    3    0    0  0.25147361949E+01  0.11800907718E+03  0.11566447705E+04  0.11920397774E+04  0.26305748362E+03 0.  0.
         25    1    4    4    0    0 -0.20763776693E+02  0.21626172228E+02  0.52937779031E+03  0.54478177165E+03  0.12509000000E+03 0.  0.
         25    1    3    3    0    0 -0.25147361949E+01 -0.11800907718E+03  0.45462670285E+03  0.48607140755E+03  0.12509000000E+03 0.  0.
         25    1    4    4    0    0  0.23278512887E+02  0.96382904948E+02  0.62726698018E+03  0.64725800578E+03  0.12509000000E+03 0.  0.
<mgrwt>
<rscale>  2 0.46889379E+03</rscale>
<asrwt>0</asrwt>
<pdfrwt beam="1">  1       21 0.24186632E+00 0.46889379E+03</pdfrwt>
<pdfrwt beam="2">  1       21 0.49146858E-02 0.46889379E+03</pdfrwt>
<totfact> 0.17729859E+04</totfact>
</mgrwt>
</event>
<event>
 7    0  0.4712189E-002  0.4517291E+03  0.7546771E-02  0.1027208E+00
         21   -1    0    0  502  501  0.00000000000E+00  0.00000000000E+00  0.52037623914E+03  0.52037623914E+03  0.00000000000E+00 0.  1.
         21   -1    0    0  501  502 -0.00000000000E+00 -0.00000000000E+00 -0.98034442701E+02  0.98034442701E+02  0.00000000000E+00 0.  1.
      99926    2    1    2    0    0 -0.14210854715E-13  0.00000000000E+00  0.42234179644E+03  0.61841068184E+03  0.45172909846E+03 0.  0.
      99925    2    3    3    0    0  0.10787253222E+03  0.20180902513E+02  0.25068543140E+03  0.37933502897E+03  0.26269397910E+03 0.  0.
         25    1    3    3    0    0 -0.10787253222E+03 -0.20180902513E+02  0.17165636504E+03  0.23907565287E+03  0.12509000000E+03 0.  0.
         25    1    4    4    0    0  0.21045526162E+02  0.23570481003E+02  0.86219363087E+02  0.15517657174E+03  0.12509000000E+03 0.  0.
         25    1    4    4    0    0  0.86827006060E+02 -0.33895784899E+01  0.16446606831E+03  0.22415845723E+03  0.12509000000E+03 0.  0.
<mgrwt>
<rscale>  2 0.45172910E+03</rscale>
<asrwt>0</asrwt>
<pdfrwt beam="1">  1       21 0.76525917E-01 0.45172910E+03</pdfrwt>
<pdfrwt beam="2">  1       21 0.14416830E-01 0.45172910E+03</pdfrwt>
<totfact> 0.59070147E+04</totfact>
</mgrwt>
</event>
<event>
 7    0  0.4712189E-002  0.4470404E+03  0.7546771E-02  0.1028608E+00
         21   -1    0    0  502  501  0.00000000000E+00  0.00000000000E+00  0.24363261906E+03  0.24363261906E+03  0.00000000000E+00 0.  1.
         21   -1    0    0  501  502 -0.00000000000E+00 -0.00000000000E+00 -0.20506811080E+03  0.20506811080E+03  0.00000000000E+00 0.  1.
      99926    2    1    2    0    0  0.00000000000E+00  0.17763568394E-14  0.38564508260E+02  0.44870072987E+03  0.44704040498E+03 0.  0.
      99925    2    3    3    0    0  0.10433420570E+03 -0.14646293670E+02  0.30072503372E+02  0.28493332577E+03  0.26302567228E+03 0.  0.
         25    1    4    4    0    0  0.93400296772E+02  0.25547234119E+01  0.24741758606E+02  0.15808163957E+03  0.12509000000E+03 0.  0.
         25    1    4    4    0    0  0.10933908931E+02 -0.17201017082E+02  0.53307447653E+01  0.12685168620E+03  0.12509000000E+03 0.  0.
         25    1    3    3    0    0 -0.10433420570E+03  0.14646293670E+02  0.84920048880E+01  0.16376740410E+03  0.12509000000E+03 0.  0.
<mgrwt>
<rscale>  2 0.44704040E+03</rscale>
<asrwt>0</asrwt>
<pdfrwt beam="1">  1       21 0.35828326E-01 0.44704040E+03</pdfrwt>
<pdfrwt beam="2">  1       21 0.30157075E-01 0.44704040E+03</pdfrwt>
<totfact> 0.73572281E+04</totfact>
</mgrwt>
</event>
<event>
 7    0  0.4712189E-002  0.4453179E+03  0.7546771E-02  0.1029128E+00
         21   -1    0    0  502  501  0.00000000000E+00  0.00000000000E+00  0.13097358092E+03  0.13097358092E+03  0.00000000000E+00 0.  1.
         21   -1    0    0  501  502 -0.00000000000E+00 -0.00000000000E+00 -0.37852674989E+03  0.37852674989E+03  0.00000000000E+00 0.  1.
      99926    2    1    2    0    0  0.00000000000E+00  0.00000000000E+00 -0.24755316897E+03  0.50950033081E+03  0.44531788155E+03 0.  0.
      99925    2    3    3    0    0  0.41111212823E+02  0.89881087065E+02 -0.12089475956E+03  0.30588647469E+03  0.26302519057E+03 0.  0.
         25    1    3    3    0    0 -0.41111212823E+02 -0.89881087065E+02 -0.12665840941E+03  0.20361385613E+03  0.12509000000E+03 0.  0.
         25    1    4    4    0    0 -0.13931525662E+02  0.23434612977E+02 -0.68123462473E+02  0.14502269730E+03  0.12509000000E+03 0.  0.
         25    1    4    4    0    0  0.55042738484E+02  0.66446474088E+02 -0.52771297088E+02  0.16086377739E+03  0.12509000000E+03 0.  0.
<mgrwt>
<rscale>  2 0.44531788E+03</rscale>
<asrwt>0</asrwt>
<pdfrwt beam="1">  1       21 0.19260821E-01 0.44531788E+03</pdfrwt>
<pdfrwt beam="2">  1       21 0.55665698E-01 0.44531788E+03</pdfrwt>
<totfact> 0.69820159E+04</totfact>
</mgrwt>
</event>
<event>
 7    0  0.4712189E-002  0.4600555E+03  0.7546771E-02  0.1024765E+00
         21   -1    0    0  502  501  0.00000000000E+00  0.00000000000E+00  0.53812857336E+02  0.53812857336E+02  0.00000000000E+00 0.  1.
         21   -1    0    0  501  502 -0.00000000000E+00 -0.00000000000E+00 -0.98327357282E+03  0.98327357282E+03  0.00000000000E+00 0.  1.
      99926    2    1    2    0    0  0.00000000000E+00  0.00000000000E+00 -0.92946071548E+03  0.10370864302E+04  0.46005547707E+03 0.  0.
      99925    2    3    3    0    0 -0.92413446963E+02 -0.69639581997E+02 -0.63344909216E+03  0.69553071610E+03  0.26289790437E+03 0.  0.
         25    1    4    4    0    0 -0.73607821623E+02 -0.60390277689E+02 -0.40132487309E+03  0.43101538128E+03  0.12509000000E+03 0.  0.
         25    1    3    3    0    0  0.92413446963E+02  0.69639581997E+02 -0.29601162332E+03  0.34155571405E+03  0.12509000000E+03 0.  0.
         25    1    4    4    0    0 -0.18805625340E+02 -0.92493043084E+01 -0.23212421907E+03  0.26451533482E+03  0.12509000000E+03 0.  0.
<mgrwt>
<rscale>  2 0.46005548E+03</rscale>
<asrwt>0</asrwt>
<pdfrwt beam="1">  1       21 0.79136556E-02 0.46005548E+03</pdfrwt>
<pdfrwt beam="2">  1       21 0.14459905E+00 0.46005548E+03</pdfrwt>
<totfact> 0.36300917E+04</totfact>
</mgrwt>
</event>
<event>
 7    0  0.4712189E-002  0.4269425E+03  0.7546771E-02  0.1034830E+00
         21   -1    0    0  502  501  0.00000000000E+00  0.00000000000E+00  0.10509763423E+04  0.10509763423E+04  0.00000000000E+00 0.  1.
         21   -1    0    0  501  502 -0.00000000000E+00 -0.00000000000E+00 -0.43359652633E+02  0.43359652633E+02  0.00000000000E+00 0.  1.
      99926    2    1    2    0    0  0.00000000000E+00  0.00000000000E+00  0.10076166897E+04  0.10943359950E+04  0.42694247448E+03 0.  0.
      99925    2    3    3    0    0  0.74149760753E+02 -0.37810762826E+02  0.61849758292E+03  0.67721607436E+03  0.26297245196E+03 0.  0.
         25    1    4    4    0    0  0.10485302574E+01  0.24399871006E+01  0.26420630481E+03  0.29233462428E+03  0.12509000000E+03 0.  0.
         25    1    3    3    0    0 -0.74149760753E+02  0.37810762826E+02  0.38911910678E+03  0.41711992061E+03  0.12509000000E+03 0.  0.
         25    1    4    4    0    0  0.73101230496E+02 -0.40250749927E+02  0.35429127811E+03  0.38488145008E+03  0.12509000000E+03 0.  0.
<mgrwt>
<rscale>  2 0.42694247E+03</rscale>
<asrwt>0</asrwt>
<pdfrwt beam="1">  1       21 0.15455533E+00 0.42694247E+03</pdfrwt>
<pdfrwt beam="2">  1       21 0.63764202E-02 0.42694247E+03</pdfrwt>
<totfact> 0.44703615E+04</totfact>
</mgrwt>
</event>
<event>
 7    0  0.4712189E-002  0.4660756E+03  0.7546771E-02  0.1023034E+00
         21   -1    0    0  502  501  0.00000000000E+00  0.00000000000E+00  0.51905767809E+02  0.51905767809E+02  0.00000000000E+00 0. -1.
         21   -1    0    0  501  502 -0.00000000000E+00 -0.00000000000E+00 -0.10462539003E+04  0.10462539003E+04  0.00000000000E+00 0. -1.
      99926    2    1    2    0    0  0.00000000000E+00 -0.71054273576E-14 -0.99434813252E+03  0.10981596681E+04  0.46607558194E+03 0.  0.
      99925    2    3    3    0    0 -0.10151809702E+03 -0.41333088526E+02 -0.75229945369E+03  0.80447715376E+03  0.26308681963E+03 0.  0.
         25    1    3    3    0    0  0.10151809702E+03  0.41333088526E+02 -0.24204867883E+03  0.29368251438E+03  0.12509000000E+03 0.  0.
         25    1    4    4    0    0 -0.29853085305E+02  0.13145908263E+02 -0.38620393263E+03  0.40726527876E+03  0.12509000000E+03 0.  0.
         25    1    4    4    0    0 -0.71665011717E+02 -0.54478996789E+02 -0.36609552106E+03  0.39721187500E+03  0.12509000000E+03 0.  0.
<mgrwt>
<rscale>  2 0.46607558E+03</rscale>
<asrwt>0</asrwt>
<pdfrwt beam="1">  1       21 0.76332013E-02 0.46607558E+03</pdfrwt>
<pdfrwt beam="2">  1       21 0.15386086E+00 0.46607558E+03</pdfrwt>
<totfact> 0.32644933E+04</totfact>
</mgrwt>
</event>
<event>
 7    0  0.4712189E-002  0.4564657E+03  0.7546771E-02  0.1025811E+00
         21   -1    0    0  502  501  0.00000000000E+00  0.00000000000E+00  0.25948723639E+03  0.25948723639E+03  0.00000000000E+00 0. -1.
         21   -1    0    0  501  502 -0.00000000000E+00 -0.00000000000E+00 -0.20074292709E+03  0.20074292709E+03  0.00000000000E+00 0. -1.
      99926    2    1    2    0    0  0.00000000000E+00  0.00000000000E+00  0.58744309301E+02  0.46023016347E+03  0.45646567176E+03 0.  0.
      99925    2    3    3    0    0  0.20764162132E+02 -0.87722423579E+02  0.10811589975E+03  0.29833070062E+03  0.26303190896E+03 0.  0.
         25    1    4    4    0    0  0.91191026978E+01 -0.62997655398E+02  0.95298227743E+02  0.16965000127E+03  0.12509000000E+03 0.  0.
         25    1    3    3    0    0 -0.20764162132E+02  0.87722423579E+02 -0.49371590446E+02  0.16189946285E+03  0.12509000000E+03 0.  0.
         25    1    4    4    0    0  0.11645059434E+02 -0.24724768180E+02  0.12817672004E+02  0.12868069935E+03  0.12509000000E+03 0.  0.
<mgrwt>
<rscale>  2 0.45646567E+03</rscale>
<asrwt>0</asrwt>
<pdfrwt beam="1">  1       21 0.38159888E-01 0.45646567E+03</pdfrwt>
<pdfrwt beam="2">  1       21 0.29521019E-01 0.45646567E+03</pdfrwt>
<totfact> 0.67372840E+04</totfact>
</mgrwt>
</event>
<event>
 7    0  0.4712189E-002  0.4535776E+03  0.7546771E-02  0.1026661E+00
         21   -1    0    0  502  501  0.00000000000E+00  0.00000000000E+00  0.10349540043E+03  0.10349540043E+03  0.00000000000E+00 0.  1.
         21   -1    0    0  501  502 -0.00000000000E+00 -0.00000000000E+00 -0.49696082240E+03  0.49696082240E+03  0.00000000000E+00 0.  1.
      99926    2    1    2    0    0  0.00000000000E+00  0.00000000000E+00 -0.39346542197E+03  0.60045622284E+03  0.45357759783E+03 0.  0.
      99925    2    3    3    0    0  0.10006538198E+03  0.37736478323E+02 -0.29096692384E+03  0.40657333890E+03  0.26306464351E+03 0.  0.
         25    1    3    3    0    0 -0.10006538198E+03 -0.37736478323E+02 -0.10249849813E+03  0.19388288394E+03  0.12509000000E+03 0.  0.
         25    1    4    4    0    0  0.69242347104E+02  0.51250324185E+01 -0.19845850444E+03  0.24465088325E+03  0.12509000000E+03 0.  0.
         25    1    4    4    0    0  0.30823034872E+02  0.32611445904E+02 -0.92508419397E+02  0.16192245564E+03  0.12509000000E+03 0.  0.
<mgrwt>
<rscale>  2 0.45357760E+03</rscale>
<asrwt>0</asrwt>
<pdfrwt beam="1">  1       21 0.15219912E-01 0.45357760E+03</pdfrwt>
<pdfrwt beam="2">  1       21 0.73082474E-01 0.45357760E+03</pdfrwt>
<totfact> 0.59313992E+04</totfact>
</mgrwt>
</event>
<event>
 7    0  0.4712189E-002  0.4353788E+03  0.7546771E-02  0.1032174E+00
         21   -1    0    0  502  501  0.00000000000E+00  0.00000000000E+00  0.47139616196E+03  0.47139616196E+03  0.00000000000E+00 0.  1.
         21   -1    0    0  501  502 -0.00000000000E+00 -0.00000000000E+00 -0.10052835829E+03  0.10052835829E+03  0.00000000000E+00 0.  1.
      99926    2    1    2    0    0  0.00000000000E+00  0.35527136788E-14  0.37086780367E+03  0.57192452025E+03  0.43537883397E+03 0.  0.
      99925    2    3    3    0    0 -0.90372508924E+02  0.22624106445E+02  0.24893663543E+03  0.37395038444E+03  0.26304068317E+03 0.  0.
         25    1    4    4    0    0 -0.54123312930E+02 -0.23623413693E+02  0.14958476594E+03  0.20374127952E+03  0.12509000000E+03 0.  0.
         25    1    3    3    0    0  0.90372508924E+02 -0.22624106445E+02  0.12193116824E+03  0.19797413581E+03  0.12509000000E+03 0.  0.
         25    1    4    4    0    0 -0.36249195994E+02  0.46247520138E+02  0.99351869489E+02  0.17020910493E+03  0.12509000000E+03 0.  0.
<mgrwt>
<rscale>  2 0.43537883E+03</rscale>
<asrwt>0</asrwt>
<pdfrwt beam="1">  1       21 0.69322964E-01 0.43537883E+03</pdfrwt>
<pdfrwt beam="2">  1       21 0.14783582E-01 0.43537883E+03</pdfrwt>
<totfact> 0.70802271E+04</totfact>
</mgrwt>
</event>
<event>
 7    0  0.4712189E-002  0.4548089E+03  0.7546771E-02  0.1026298E+00
         21   -1    0    0  502  501  0.00000000000E+00  0.00000000000E+00  0.20371827544E+03  0.20371827544E+03  0.00000000000E+00 0.  1.
         21   -1    0    0  501  502 -0.00000000000E+00 -0.00000000000E+00 -0.25384458868E+03  0.25384458868E+03  0.00000000000E+00 0.  1.
      99926    2    1    2    0    0  0.14210854715E-13  0.71054273576E-14 -0.50126313242E+02  0.45756286412E+03  0.45480889101E+03 0.  0.
      99925    2    3    3    0    0 -0.97860108803E+02 -0.54293890785E+02 -0.48567422049E+02  0.28971065021E+03  0.26277183808E+03 0.  0.
         25    1    4    4    0    0 -0.39072900606E+02 -0.66157296572E+02 -0.28497272348E+02  0.14954291051E+03  0.12509000000E+03 0.  0.
         25    1    3    3    0    0  0.97860108803E+02  0.54293890785E+02 -0.15588911935E+01  0.16785221391E+03  0.12509000000E+03 0.  0.
         25    1    4    4    0    0 -0.58787208197E+02  0.11863405787E+02 -0.20070149701E+02  0.14016773970E+03  0.12509000000E+03 0.  0.
<mgrwt>
<rscale>  2 0.45480889E+03</rscale>
<asrwt>0</asrwt>
<pdfrwt beam="1">  1       21 0.29958570E-01 0.45480889E+03</pdfrwt>
<pdfrwt beam="2">  1       21 0.37330086E-01 0.45480889E+03</pdfrwt>
<totfact> 0.68462721E+04</totfact>
</mgrwt>
</event>
<event>
 7    0  0.4712189E-002  0.4699092E+03  0.7546771E-02  0.1021946E+00
         21   -1    0    0  502  501  0.00000000000E+00  0.00000000000E+00  0.28108004357E+03  0.28108004357E+03  0.00000000000E+00 0.  1.
         21   -1    0    0  501  502 -0.00000000000E+00 -0.00000000000E+00 -0.19639835359E+03  0.19639835359E+03  0.00000000000E+00 0.  1.
      99926    2    1    2    0    0  0.00000000000E+00  0.00000000000E+00  0.84681689977E+02  0.47747839716E+03  0.46990917329E+03 0.  0.
      99925    2    3    3    0    0  0.76898151673E+02  0.92783229974E+02  0.92235480225E+02  0.30362034776E+03  0.26297505256E+03 0.  0.
         25    1    4    4    0    0  0.11193555827E+02  0.49274964446E+02  0.12089733244E+02  0.13545105228E+03  0.12509000000E+03 0.  0.
         25    1    4    4    0    0  0.65704595846E+02  0.43508265528E+02  0.80145746981E+02  0.16816929548E+03  0.12509000000E+03 0.  0.
         25    1    3    3    0    0 -0.76898151673E+02 -0.92783229974E+02 -0.75537902478E+01  0.17385804940E+03  0.12509000000E+03 0.  0.
<mgrwt>
<rscale>  2 0.46990917E+03</rscale>
<asrwt>0</asrwt>
<pdfrwt beam="1">  1       21 0.41335301E-01 0.46990917E+03</pdfrwt>
<pdfrwt beam="2">  1       21 0.28882111E-01 0.46990917E+03</pdfrwt>
<totfact> 0.59520540E+04</totfact>
</mgrwt>
</event>
<event>
 7    0  0.4712189E-002  0.4508116E+03  0.7546771E-02  0.1027480E+00
         21   -1    0    0  502  501  0.00000000000E+00  0.00000000000E+00  0.79546716091E+03  0.79546716091E+03  0.00000000000E+00 0.  1.
         21   -1    0    0  501  502 -0.00000000000E+00 -0.00000000000E+00 -0.63871617256E+02  0.63871617256E+02  0.00000000000E+00 0.  1.
      99926    2    1    2    0    0  0.00000000000E+00  0.00000000000E+00  0.73159554365E+03  0.85933877816E+03  0.45081159719E+03 0.  0.
      99925    2    3    3    0    0 -0.90135069951E+02  0.50248547891E+02  0.39392552259E+03  0.48474860394E+03  0.26297270633E+03 0.  0.
         25    1    4    4    0    0 -0.52914184455E+02  0.26346027323E+01  0.25116399847E+03  0.28554809451E+03  0.12509000000E+03 0.  0.
         25    1    4    4    0    0 -0.37220885496E+02  0.47613945159E+02  0.14276152412E+03  0.19920050944E+03  0.12509000000E+03 0.  0.
         25    1    3    3    0    0  0.90135069951E+02 -0.50248547891E+02  0.33767002106E+03  0.37459017422E+03  0.12509000000E+03 0.  0.
<mgrwt>
<rscale>  2 0.45081160E+03</rscale>
<asrwt>0</asrwt>
<pdfrwt beam="1">  1       21 0.11698046E+00 0.45081160E+03</pdfrwt>
<pdfrwt beam="2">  1       21 0.93928854E-02 0.45081160E+03</pdfrwt>
<totfact> 0.46534448E+04</totfact>
</mgrwt>
</event>
<event>
 7    0  0.4712189E-002  0.4532920E+03  0.7546771E-02  0.1026745E+00
         21   -1    0    0  502  501  0.00000000000E+00  0.00000000000E+00  0.91529721397E+03  0.91529721397E+03  0.00000000000E+00 0. -1.
         21   -1    0    0  501  502 -0.00000000000E+00 -0.00000000000E+00 -0.56122115883E+02  0.56122115883E+02  0.00000000000E+00 0. -1.
      99926    2    1    2    0    0  0.00000000000E+00  0.00000000000E+00  0.85917509809E+03  0.97141932986E+03  0.45329203086E+03 0.  0.
      99925    2    3    3    0    0  0.80150060322E+02  0.76889464940E+02  0.56278706221E+03  0.63108214719E+03  0.26305774486E+03 0.  0.
         25    1    4    4    0    0  0.45887082621E+02  0.14993502972E+02  0.34514755876E+03  0.37027661943E+03  0.12509000000E+03 0.  0.
         25    1    4    4    0    0  0.34262977701E+02  0.61895961967E+02  0.21763950345E+03  0.26080552776E+03  0.12509000000E+03 0.  0.
         25    1    3    3    0    0 -0.80150060322E+02 -0.76889464940E+02  0.29638803588E+03  0.34033718266E+03  0.12509000000E+03 0.  0.
<mgrwt>
<rscale>  2 0.45329203E+03</rscale>
<asrwt>0</asrwt>
<pdfrwt beam="1">  1       21 0.13460252E+00 0.45329203E+03</pdfrwt>
<pdfrwt beam="2">  1       21 0.82532529E-02 0.45329203E+03</pdfrwt>
<totfact> 0.40827872E+04</totfact>
</mgrwt>
</event>
<event>
 7    0  0.4712189E-002  0.4629719E+03  0.7546771E-02  0.1023923E+00
         21   -1    0    0  502  501  0.00000000000E+00  0.00000000000E+00  0.37929801169E+03  0.37929801169E+03  0.00000000000E+00 0. -1.
         21   -1    0    0  501  502 -0.00000000000E+00 -0.00000000000E+00 -0.14127610179E+03  0.14127610179E+03  0.00000000000E+00 0. -1.
      99926    2    1    2    0    0  0.00000000000E+00  0.00000000000E+00  0.23802190990E+03  0.52057411347E+03  0.46297189766E+03 0.  0.
      99925    2    3    3    0    0 -0.10335392353E+03 -0.40414581794E+02  0.20102575852E+03  0.34930941995E+03  0.26323058968E+03 0.  0.
         25    1    3    3    0    0  0.10335392353E+03  0.40414581794E+02  0.36996151377E+02  0.17126469352E+03  0.12509000000E+03 0.  0.
         25    1    4    4    0    0 -0.58406481115E+02 -0.59930461536E+02  0.92969364907E+02  0.17690050358E+03  0.12509000000E+03 0.  0.
         25    1    4    4    0    0 -0.44947442417E+02  0.19515879743E+02  0.10805639362E+03  0.17240891637E+03  0.12509000000E+03 0.  0.
<mgrwt>
<rscale>  2 0.46297190E+03</rscale>
<asrwt>0</asrwt>
<pdfrwt beam="1">  1       21 0.55779119E-01 0.46297190E+03</pdfrwt>
<pdfrwt beam="2">  1       21 0.20775897E-01 0.46297190E+03</pdfrwt>
<totfact> 0.59964352E+04</totfact>
</mgrwt>
</event>
<event>
 7    0  0.4712189E-002  0.4575974E+03  0.7546771E-02  0.1025480E+00
         21   -1    0    0  502  501  0.00000000000E+00  0.00000000000E+00  0.76680763784E+02  0.76680763784E+02  0.00000000000E+00 0.  1.
         21   -1    0    0  501  502 -0.00000000000E+00 -0.00000000000E+00 -0.68268538866E+03  0.68268538866E+03  0.00000000000E+00 0.  1.
      99926    2    1    2    0    0  0.00000000000E+00  0.00000000000E+00 -0.60600462488E+03  0.75936615245E+03  0.45759736462E+03 0.  0.
      99925    2    3    3    0    0  0.95908016548E+02 -0.65015287674E+02 -0.39358013779E+03  0.48697487857E+03  0.26232398332E+03 0.  0.
         25    1    3    3    0    0 -0.95908016548E+02  0.65015287674E+02 -0.21242448709E+03  0.27239127388E+03  0.12509000000E+03 0.  0.
         25    1    4    4    0    0  0.66088699077E+01 -0.22903323406E+02 -0.18031388254E+03  0.22074610692E+03  0.12509000000E+03 0.  0.
         25    1    4    4    0    0  0.89299146641E+02 -0.42111964267E+02 -0.21326625525E+03  0.26622877165E+03  0.12509000000E+03 0.  0.
<mgrwt>
<rscale>  2 0.45759736E+03</rscale>
<asrwt>0</asrwt>
<pdfrwt beam="1">  1       21 0.11276583E-01 0.45759736E+03</pdfrwt>
<pdfrwt beam="2">  1       21 0.10039491E+00 0.45759736E+03</pdfrwt>
<totfact> 0.48789915E+04</totfact>
</mgrwt>
</event>
<event>
 7    0  0.4712189E-002  0.4533083E+03  0.7546771E-02  0.1026740E+00
         21   -1    0    0  502  501  0.00000000000E+00  0.00000000000E+00  0.57249315622E+03  0.57249315622E+03  0.00000000000E+00 0. -1.
         21   -1    0    0  501  502 -0.00000000000E+00 -0.00000000000E+00 -0.89734023883E+02  0.89734023883E+02  0.00000000000E+00 0. -1.
      99926    2    1    2    0    0  0.00000000000E+00  0.00000000000E+00  0.48275913234E+03  0.66222718011E+03  0.45330834783E+03 0.  0.
      99925    2    3    3    0    0  0.19877290821E+02  0.10540254070E+03  0.34846110238E+03  0.44965184939E+03  0.26316694989E+03 0.  0.
         25    1    4    4    0    0  0.12415117898E+01  0.60895660877E+02  0.11532498036E+03  0.18071298254E+03  0.12509000000E+03 0.  0.
         25    1    3    3    0    0 -0.19877290821E+02 -0.10540254070E+03  0.13429802996E+03  0.21257533071E+03  0.12509000000E+03 0.  0.
         25    1    4    4    0    0  0.18635779031E+02  0.44506879821E+02  0.23313612202E+03  0.26893886685E+03  0.12509000000E+03 0.  0.
<mgrwt>
<rscale>  2 0.45330835E+03</rscale>
<asrwt>0</asrwt>
<pdfrwt beam="1">  1       21 0.84190168E-01 0.45330835E+03</pdfrwt>
<pdfrwt beam="2">  1       21 0.13196180E-01 0.45330835E+03</pdfrwt>
<totfact> 0.55741654E+04</totfact>
</mgrwt>
</event>
<event>
 7    0  0.4712189E-002  0.4553997E+03  0.7546771E-02  0.1026124E+00
         21   -1    0    0  502  501  0.00000000000E+00  0.00000000000E+00  0.10269771264E+03  0.10269771264E+03  0.00000000000E+00 0. -1.
         21   -1    0    0  501  502 -0.00000000000E+00 -0.00000000000E+00 -0.50485280746E+03  0.50485280746E+03  0.00000000000E+00 0. -1.
      99926    2    1    2    0    0  0.00000000000E+00  0.88817841970E-15 -0.40215509482E+03  0.60755052010E+03  0.45539973012E+03 0.  0.
      99925    2    3    3    0    0  0.23148500466E+02 -0.70027350772E+01 -0.40095478952E+03  0.48013843196E+03  0.26302714543E+03 0.  0.
         25    1    3    3    0    0 -0.23148500466E+02  0.70027350772E+01 -0.12003052988E+01  0.12741208814E+03  0.12509000000E+03 0.  0.
         25    1    4    4    0    0  0.25901509277E+02  0.28952058185E+02 -0.23697406221E+03  0.27076433317E+03  0.12509000000E+03 0.  0.
         25    1    4    4    0    0 -0.27530088114E+01 -0.35954793262E+02 -0.16398072731E+03  0.20937409879E+03  0.12509000000E+03 0.  0.
<mgrwt>
<rscale>  2 0.45539973E+03</rscale>
<asrwt>0</asrwt>
<pdfrwt beam="1">  1       21 0.15102605E-01 0.45539973E+03</pdfrwt>
<pdfrwt beam="2">  1       21 0.74243059E-01 0.45539973E+03</pdfrwt>
<totfact> 0.58032441E+04</totfact>
</mgrwt>
</event>
<event>
 7    0  0.4712189E-002  0.4524628E+03  0.7546771E-02  0.1026990E+00
         21   -1    0    0  502  501  0.00000000000E+00  0.00000000000E+00  0.60409276752E+03  0.60409276752E+03  0.00000000000E+00 0.  1.
         21   -1    0    0  501  502 -0.00000000000E+00 -0.00000000000E+00 -0.84723139703E+02  0.84723139703E+02  0.00000000000E+00 0.  1.
      99926    2    1    2    0    0  0.00000000000E+00  0.14210854715E-13  0.51936962782E+03  0.68881590723E+03  0.45246275399E+03 0.  0.
      99925    2    3    3    0    0 -0.77299992290E+02  0.74427180626E+02  0.28576866766E+03  0.40292849807E+03  0.26300750773E+03 0.  0.
         25    1    4    4    0    0 -0.19132798597E+02  0.56086573378E+02  0.18527689295E+03  0.23127214025E+03  0.12509000000E+03 0.  0.
         25    1    3    3    0    0  0.77299992290E+02 -0.74427180626E+02  0.23360096016E+03  0.28588740915E+03  0.12509000000E+03 0.  0.
         25    1    4    4    0    0 -0.58167193693E+02  0.18340607248E+02  0.10049177471E+03  0.17165635782E+03  0.12509000000E+03 0.  0.
<mgrwt>
<rscale>  2 0.45246275E+03</rscale>
<asrwt>0</asrwt>
<pdfrwt beam="1">  1       21 0.88837169E-01 0.45246275E+03</pdfrwt>
<pdfrwt beam="2">  1       21 0.12459286E-01 0.45246275E+03</pdfrwt>
<totfact> 0.54596879E+04</totfact>
</mgrwt>
</event>
<event>
 7    0  0.4712189E-002  0.4462344E+03  0.7546771E-02  0.1028851E+00
         21   -1    0    0  502  501  0.00000000000E+00  0.00000000000E+00  0.61306385412E+03  0.61306385412E+03  0.00000000000E+00 0.  1.
         21   -1    0    0  501  502 -0.00000000000E+00 -0.00000000000E+00 -0.81200802325E+02  0.81200802325E+02  0.00000000000E+00 0.  1.
      99926    2    1    2    0    0  0.00000000000E+00  0.00000000000E+00  0.53186305180E+03  0.69426465645E+03  0.44623436367E+03 0.  0.
      99925    2    3    3    0    0 -0.59467477222E+02 -0.12959994359E+02  0.20383432293E+03  0.33795762962E+03  0.26260728458E+03 0.  0.
         25    1    4    4    0    0 -0.59974928453E+02 -0.15550847487E+02  0.13917694388E+03  0.19712065013E+03  0.12509000000E+03 0.  0.
         25    1    3    3    0    0  0.59467477222E+02  0.12959994359E+02  0.32802872887E+03  0.35630702682E+03  0.12509000000E+03 0.  0.
         25    1    4    4    0    0  0.50745123088E+00  0.25908531279E+01  0.64657379047E+02  0.14083697949E+03  0.12509000000E+03 0.  0.
<mgrwt>
<rscale>  2 0.44623436E+03</rscale>
<asrwt>0</asrwt>
<pdfrwt beam="1">  1       21 0.90156446E-01 0.44623436E+03</pdfrwt>
<pdfrwt beam="2">  1       21 0.11941295E-01 0.44623436E+03</pdfrwt>
<totfact> 0.57050902E+04</totfact>
</mgrwt>
</event>
<event>
 7    0  0.4712189E-002  0.4498699E+03  0.7546771E-02  0.1027761E+00
         21   -1    0    0  502  501  0.00000000000E+00  0.00000000000E+00  0.61778067622E+02  0.61778067622E+02  0.00000000000E+00 0. -1.
         21   -1    0    0  501  502 -0.00000000000E+00 -0.00000000000E+00 -0.81899185766E+03  0.81899185766E+03  0.00000000000E+00 0. -1.
      99926    2    1    2    0    0  0.14210854715E-13  0.00000000000E+00 -0.75721379004E+03  0.88076992528E+03  0.44986991170E+03 0.  0.
      99925    2    3    3    0    0  0.99505792565E+02  0.10759973246E+02 -0.39785825845E+03  0.48732223376E+03  0.26301061941E+03 0.  0.
         25    1    4    4    0    0  0.72200224523E+02  0.37932041398E+02 -0.23428444882E+03  0.27782804618E+03  0.12509000000E+03 0.  0.
         25    1    4    4    0    0  0.27305568042E+02 -0.27172068152E+02 -0.16357380963E+03  0.20949418758E+03  0.12509000000E+03 0.  0.
         25    1    3    3    0    0 -0.99505792565E+02 -0.10759973246E+02 -0.35935553159E+03  0.39344769152E+03  0.12509000000E+03 0.  0.
<mgrwt>
<rscale>  2 0.44986991E+03</rscale>
<asrwt>0</asrwt>
<pdfrwt beam="1">  1       21 0.90850105E-02 0.44986991E+03</pdfrwt>
<pdfrwt beam="2">  1       21 0.12043997E+00 0.44986991E+03</pdfrwt>
<totfact> 0.45891832E+04</totfact>
</mgrwt>
</event>
<event>
 7    0  0.4712189E-002  0.4543698E+03  0.7546771E-02  0.1026427E+00
         21   -1    0    0  502  501  0.00000000000E+00  0.00000000000E+00  0.51234323506E+03  0.51234323506E+03  0.00000000000E+00 0. -1.
         21   -1    0    0  501  502 -0.00000000000E+00 -0.00000000000E+00 -0.10073908668E+03  0.10073908668E+03  0.00000000000E+00 0. -1.
      99926    2    1    2    0    0  0.00000000000E+00  0.00000000000E+00  0.41160414838E+03  0.61308232174E+03  0.45436984745E+03 0.  0.
      99925    2    3    3    0    0  0.72571685651E+02 -0.22856951820E+02  0.14729895903E+03  0.31093363149E+03  0.26304685905E+03 0.  0.
         25    1    3    3    0    0 -0.72571685651E+02  0.22856951820E+02  0.26430518935E+03  0.30214869025E+03  0.12509000000E+03 0.  0.
         25    1    4    4    0    0 -0.53999368140E+01 -0.12879038377E+02  0.61501955810E+02  0.14008935583E+03  0.12509000000E+03 0.  0.
         25    1    4    4    0    0  0.77971622465E+02 -0.99779134435E+01  0.85797003221E+02  0.17084427567E+03  0.12509000000E+03 0.  0.
<mgrwt>
<rscale>  2 0.45436985E+03</rscale>
<asrwt>0</asrwt>
<pdfrwt beam="1">  1       21 0.75344592E-01 0.45436985E+03</pdfrwt>
<pdfrwt beam="2">  1       21 0.14814572E-01 0.45436985E+03</pdfrwt>
<totfact> 0.58169130E+04</totfact>
</mgrwt>
</event>
<event>
 7    0  0.4712189E-002  0.4524805E+03  0.7546771E-02  0.1026985E+00
         21   -1    0    0  502  501  0.00000000000E+00  0.00000000000E+00  0.24275717840E+02  0.24275717840E+02  0.00000000000E+00 0.  1.
         21   -1    0    0  501  502 -0.00000000000E+00 -0.00000000000E+00 -0.21084715728E+04  0.21084715728E+04  0.00000000000E+00 0.  1.
      99926    2    1    2    0    0  0.00000000000E+00  0.00000000000E+00 -0.20841958550E+04  0.21327472907E+04  0.45248054533E+03 0.  0.
      99925    2    3    3    0    0  0.96548834725E+02  0.53384900961E+02 -0.12616853848E+04  0.12934960727E+04  0.26288867381E+03 0.  0.
         25    1    4    4    0    0  0.38559049906E+02  0.64773848030E+02 -0.60240686969E+03  0.61985804542E+03  0.12509000000E+03 0.  0.
         25    1    3    3    0    0 -0.96548834725E+02 -0.53384900961E+02 -0.82251047017E+03  0.83925121792E+03  0.12509000000E+03 0.  0.
         25    1    4    4    0    0  0.57989784819E+02 -0.11388947069E+02 -0.65927851511E+03  0.67363802732E+03  0.12509000000E+03 0.  0.
<mgrwt>
<rscale>  2 0.45248055E+03</rscale>
<asrwt>0</asrwt>
<pdfrwt beam="1">  1       21 0.35699584E-02 0.45248055E+03</pdfrwt>
<pdfrwt beam="2">  1       21 0.31006936E+00 0.45248055E+03</pdfrwt>
<totfact> 0.11891998E+04</totfact>
</mgrwt>
</event>
<event>
 7    0  0.4712189E-002  0.4645929E+03  0.7546771E-02  0.1023458E+00
         21   -1    0    0  502  501  0.00000000000E+00  0.00000000000E+00  0.10918225484E+03  0.10918225484E+03  0.00000000000E+00 0.  1.
         21   -1    0    0  501  502 -0.00000000000E+00 -0.00000000000E+00 -0.49423444042E+03  0.49423444042E+03  0.00000000000E+00 0.  1.
      99926    2    1    2    0    0 -0.88817841970E-15  0.14210854715E-13 -0.38505218558E+03  0.60341669526E+03  0.46459285670E+03 0.  0.
      99925    2    3    3    0    0 -0.59665451180E+01 -0.12183161750E+03 -0.23083892067E+03  0.37037639432E+03  0.26270425100E+03 0.  0.
         25    1    4    4    0    0  0.10652584059E+02 -0.81404580790E+02 -0.16388615149E+03  0.22191521370E+03  0.12509000000E+03 0.  0.
         25    1    3    3    0    0  0.59665451180E+01  0.12183161750E+03 -0.15421326491E+03  0.23304030093E+03  0.12509000000E+03 0.  0.
         25    1    4    4    0    0 -0.16619129177E+02 -0.40427036715E+02 -0.66952769184E+02  0.14846118063E+03  0.12509000000E+03 0.  0.
<mgrwt>
<rscale>  2 0.46459286E+03</rscale>
<asrwt>0</asrwt>
<pdfrwt beam="1">  1       21 0.16056214E-01 0.46459286E+03</pdfrwt>
<pdfrwt beam="2">  1       21 0.72681536E-01 0.46459286E+03</pdfrwt>
<totfact> 0.54239179E+04</totfact>
</mgrwt>
</event>
<event>
 7    0  0.4712189E-002  0.4592991E+03  0.7546771E-02  0.1024985E+00
         21   -1    0    0  502  501  0.00000000000E+00  0.00000000000E+00  0.85026076049E+03  0.85026076049E+03  0.00000000000E+00 0.  1.
         21   -1    0    0  501  502 -0.00000000000E+00 -0.00000000000E+00 -0.62026753066E+02  0.62026753066E+02  0.00000000000E+00 0.  1.
      99926    2    1    2    0    0  0.00000000000E+00  0.00000000000E+00  0.78823400742E+03  0.91228751355E+03  0.45929909311E+03 0.  0.
      99925    2    3    3    0    0  0.36337433979E+02  0.17748511780E+02  0.71268472762E+03  0.76066093093E+03  0.26277388014E+03 0.  0.
         25    1    4    4    0    0 -0.46671850858E+01  0.27411100669E+02  0.42982755597E+03  0.44852244875E+03  0.12509000000E+03 0.  0.
         25    1    3    3    0    0 -0.36337433979E+02 -0.17748511780E+02  0.75549279802E+02  0.15162658262E+03  0.12509000000E+03 0.  0.
         25    1    4    4    0    0  0.41004619065E+02 -0.96625888892E+01  0.28285717165E+03  0.31213848218E+03  0.12509000000E+03 0.  0.
<mgrwt>
<rscale>  2 0.45929909E+03</rscale>
<asrwt>0</asrwt>
<pdfrwt beam="1">  1       21 0.12503834E+00 0.45929909E+03</pdfrwt>
<pdfrwt beam="2">  1       21 0.91215819E-02 0.45929909E+03</pdfrwt>
<totfact> 0.41299223E+04</totfact>
</mgrwt>
</event>
<event>
 7    0  0.4712189E-002  0.4556523E+03  0.7546771E-02  0.1026050E+00
         21   -1    0    0  502  501  0.00000000000E+00  0.00000000000E+00  0.21183053136E+02  0.21183053136E+02  0.00000000000E+00 0.  1.
         21   -1    0    0  501  502 -0.00000000000E+00 -0.00000000000E+00 -0.24502967001E+04  0.24502967001E+04  0.00000000000E+00 0.  1.
      99926    2    1    2    0    0  0.00000000000E+00  0.00000000000E+00 -0.24291136470E+04  0.24714797533E+04  0.45565234641E+03 0.  0.
      99925    2    3    3    0    0  0.70423987424E+02 -0.12332940811E+02 -0.20078163406E+04  0.20262263783E+04  0.26297383737E+03 0.  0.
         25    1    4    4    0    0  0.45864278466E+02 -0.14036280672E+02 -0.74120612147E+03  0.75321615212E+03  0.12509000000E+03 0.  0.
         25    1    3    3    0    0 -0.70423987424E+02  0.12332940811E+02 -0.42129730638E+03  0.44525337494E+03  0.12509000000E+03 0.  0.
         25    1    4    4    0    0  0.24559708958E+02  0.17033398613E+01 -0.12666102191E+04  0.12730102262E+04  0.12509000000E+03 0.  0.
<mgrwt>
<rscale>  2 0.45565235E+03</rscale>
<asrwt>0</asrwt>
<pdfrwt beam="1">  1       21 0.31151531E-02 0.45565235E+03</pdfrwt>
<pdfrwt beam="2">  1       21 0.36033796E+00 0.45565235E+03</pdfrwt>
<totfact> 0.73904848E+03</totfact>
</mgrwt>
</event>
<event>
 7    0  0.4712189E-002  0.4510210E+03  0.7546771E-02  0.1027418E+00
         21   -1    0    0  502  501  0.00000000000E+00  0.00000000000E+00  0.13496861462E+03  0.13496861462E+03  0.00000000000E+00 0. -1.
         21   -1    0    0  501  502 -0.00000000000E+00 -0.00000000000E+00 -0.37679125459E+03  0.37679125459E+03  0.00000000000E+00 0. -1.
      99926    2    1    2    0    0 -0.17763568394E-14  0.14210854715E-13 -0.24182263997E+03  0.51175986920E+03  0.45102103557E+03 0.  0.
      99925    2    3    3    0    0 -0.14480223484E+02  0.93387682241E+02 -0.21504719427E+03  0.35271469116E+03  0.26311864535E+03 0.  0.
         25    1    3    3    0    0  0.14480223484E+02 -0.93387682241E+02 -0.26775445694E+02  0.15904517804E+03  0.12509000000E+03 0.  0.
         25    1    4    4    0    0 -0.26270545577E+02  0.83541567109E+02 -0.10409317179E+03  0.18480322376E+03  0.12509000000E+03 0.  0.
         25    1    4    4    0    0  0.11790322093E+02  0.98461151311E+01 -0.11095402248E+03  0.16791146740E+03  0.12509000000E+03 0.  0.
<mgrwt>
<rscale>  2 0.45102104E+03</rscale>
<asrwt>0</asrwt>
<pdfrwt beam="1">  1       21 0.19848326E-01 0.45102104E+03</pdfrwt>
<pdfrwt beam="2">  1       21 0.55410478E-01 0.45102104E+03</pdfrwt>
<totfact> 0.66528037E+04</totfact>
</mgrwt>
</event>
<event>
 7    0  0.4712189E-002  0.4504041E+03  0.7546771E-02  0.1027602E+00
         21   -1    0    0  502  501  0.00000000000E+00  0.00000000000E+00  0.12792262489E+04  0.12792262489E+04  0.00000000000E+00 0. -1.
         21   -1    0    0  501  502 -0.00000000000E+00 -0.00000000000E+00 -0.39645810977E+02  0.39645810977E+02  0.00000000000E+00 0. -1.
      99926    2    1    2    0    0 -0.71054273576E-14  0.00000000000E+00  0.12395804379E+04  0.13188720598E+04  0.45040409438E+03 0.  0.
      99925    2    3    3    0    0  0.47574245672E+02  0.26993207207E+02  0.50834398025E+03  0.57499961973E+03  0.26309507472E+03 0.  0.
         25    1    4    4    0    0  0.53397306739E+02  0.41104795096E+02  0.24989737252E+03  0.28746666144E+03  0.12509000000E+03 0.  0.
         25    1    3    3    0    0 -0.47574245672E+02 -0.26993207207E+02  0.73123645763E+03  0.74387244011E+03  0.12509000000E+03 0.  0.
         25    1    4    4    0    0 -0.58230610673E+01 -0.14111587889E+02  0.25844660773E+03  0.28753295829E+03  0.12509000000E+03 0.  0.
<mgrwt>
<rscale>  2 0.45040409E+03</rscale>
<asrwt>0</asrwt>
<pdfrwt beam="1">  1       21 0.18812148E+00 0.45040409E+03</pdfrwt>
<pdfrwt beam="2">  1       21 0.58302671E-02 0.45040409E+03</pdfrwt>
<totfact> 0.29615870E+04</totfact>
</mgrwt>
</event>
<event>
 7    0  0.4712189E-002  0.4540689E+03  0.7546771E-02  0.1026516E+00
         21   -1    0    0  502  501  0.00000000000E+00  0.00000000000E+00  0.49530326510E+03  0.49530326510E+03  0.00000000000E+00 0.  1.
         21   -1    0    0  501  502 -0.00000000000E+00 -0.00000000000E+00 -0.10406682726E+03  0.10406682726E+03  0.00000000000E+00 0.  1.
      99926    2    1    2    0    0  0.00000000000E+00 -0.14210854715E-13  0.39123643785E+03  0.59937009236E+03  0.45406889049E+03 0.  0.
      99925    2    3    3    0    0 -0.30237041570E+02  0.10680806684E+03  0.21834350510E+03  0.35882546839E+03  0.26222049638E+03 0.  0.
         25    1    4    4    0    0  0.15240479584E+02  0.48765861958E+02  0.13684029764E+03  0.19231005348E+03  0.12509000000E+03 0.  0.
         25    1    4    4    0    0 -0.45477521154E+02  0.58042204880E+02  0.81503207452E+02  0.16651541491E+03  0.12509000000E+03 0.  0.
         25    1    3    3    0    0  0.30237041570E+02 -0.10680806684E+03  0.17289293275E+03  0.24054462397E+03  0.12509000000E+03 0.  0.
<mgrwt>
<rscale>  2 0.45406889E+03</rscale>
<asrwt>0</asrwt>
<pdfrwt beam="1">  1       21 0.72838715E-01 0.45406889E+03</pdfrwt>
<pdfrwt beam="2">  1       21 0.15303945E-01 0.45406889E+03</pdfrwt>
<totfact> 0.59151033E+04</totfact>
</mgrwt>
</event>
<event>
 7    0  0.4712189E-002  0.4617030E+03  0.7546771E-02  0.1024288E+00
         21   -1    0    0  502  501  0.00000000000E+00  0.00000000000E+00  0.88346348067E+03  0.88346348067E+03  0.00000000000E+00 0. -1.
         21   -1    0    0  501  502 -0.00000000000E+00 -0.00000000000E+00 -0.60322142322E+02  0.60322142322E+02  0.00000000000E+00 0. -1.
      99926    2    1    2    0    0  0.00000000000E+00  0.14210854715E-13  0.82314133834E+03  0.94378562299E+03  0.46170297732E+03 0.  0.
      99925    2    3    3    0    0 -0.33731710919E+02  0.11429539621E+03  0.50178787327E+03  0.57893384002E+03  0.26300580877E+03 0.  0.
         25    1    3    3    0    0  0.33731710919E+02 -0.11429539621E+03  0.32135346508E+03  0.36485178296E+03  0.12509000000E+03 0.  0.
         25    1    4    4    0    0 -0.42508021639E+01  0.93957200449E+02  0.30855212658E+03  0.34597391195E+03  0.12509000000E+03 0.  0.
         25    1    4    4    0    0 -0.29480908755E+02  0.20338195762E+02  0.19323574669E+03  0.23295992807E+03  0.12509000000E+03 0.  0.
<mgrwt>
<rscale>  2 0.46170298E+03</rscale>
<asrwt>0</asrwt>
<pdfrwt beam="1">  1       21 0.12992109E+00 0.46170298E+03</pdfrwt>
<pdfrwt beam="2">  1       21 0.88709038E-02 0.46170298E+03</pdfrwt>
<totfact> 0.39292924E+04</totfact>
</mgrwt>
</event>
<event>
 7    0  0.4712189E-002  0.4583379E+03  0.7546771E-02  0.1025264E+00
         21   -1    0    0  502  501  0.00000000000E+00  0.00000000000E+00  0.60352349361E+02  0.60352349361E+02  0.00000000000E+00 0.  1.
         21   -1    0    0  501  502 -0.00000000000E+00 -0.00000000000E+00 -0.87019653631E+03  0.87019653631E+03  0.00000000000E+00 0.  1.
      99926    2    1    2    0    0  0.00000000000E+00  0.00000000000E+00 -0.80984418695E+03  0.93054888568E+03  0.45833789009E+03 0.  0.
      99925    2    3    3    0    0  0.85990817308E+02 -0.42936194698E+02 -0.64073056429E+03  0.69928093946E+03  0.26309739414E+03 0.  0.
         25    1    4    4    0    0  0.22661973928E+02 -0.30215907253E+02 -0.22297517242E+03  0.25844148608E+03  0.12509000000E+03 0.  0.
         25    1    4    4    0    0  0.63328843379E+02 -0.12720287445E+02 -0.41775539188E+03  0.44083945338E+03  0.12509000000E+03 0.  0.
         25    1    3    3    0    0 -0.85990817308E+02  0.42936194698E+02 -0.16911362266E+03  0.23126794621E+03  0.12509000000E+03 0.  0.
<mgrwt>
<rscale>  2 0.45833789E+03</rscale>
<asrwt>0</asrwt>
<pdfrwt beam="1">  1       21 0.88753469E-02 0.45833789E+03</pdfrwt>
<pdfrwt beam="2">  1       21 0.12797006E+00 0.45833789E+03</pdfrwt>
<totfact> 0.40861407E+04</totfact>
</mgrwt>
</event>
<event>
 7    0  0.4712189E-002  0.4529242E+03  0.7546771E-02  0.1026854E+00
         21   -1    0    0  502  501  0.00000000000E+00  0.00000000000E+00  0.10456023065E+03  0.10456023065E+03  0.00000000000E+00 0.  1.
         21   -1    0    0  501  502 -0.00000000000E+00 -0.00000000000E+00 -0.49048373121E+03  0.49048373121E+03  0.00000000000E+00 0.  1.
      99926    2    1    2    0    0  0.00000000000E+00  0.14210854715E-13 -0.38592350055E+03  0.59504396186E+03  0.45292424120E+03 0.  0.
      99925    2    3    3    0    0  0.81348398683E+02  0.75571485350E+02 -0.23446623024E+03  0.36939949772E+03  0.26296951235E+03 0.  0.
         25    1    3    3    0    0 -0.81348398683E+02 -0.75571485350E+02 -0.15145727031E+03  0.22564446414E+03  0.12509000000E+03 0.  0.
         25    1    4    4    0    0  0.64248159324E+02  0.18669439175E+02 -0.83814331420E+02  0.16476869905E+03  0.12509000000E+03 0.  0.
         25    1    4    4    0    0  0.17100239360E+02  0.56902046175E+02 -0.15065189882E+03  0.20463079867E+03  0.12509000000E+03 0.  0.
<mgrwt>
<rscale>  2 0.45292424E+03</rscale>
<asrwt>0</asrwt>
<pdfrwt beam="1">  1       21 0.15376504E-01 0.45292424E+03</pdfrwt>
<pdfrwt beam="2">  1       21 0.72129961E-01 0.45292424E+03</pdfrwt>
<totfact> 0.59961901E+04</totfact>
</mgrwt>
</event>
<event>
 7    0  0.4712189E-002  0.4275535E+03  0.7546771E-02  0.1034636E+00
         21   -1    0    0  502  501  0.00000000000E+00  0.00000000000E+00  0.66844309172E+02  0.66844309172E+02  0.00000000000E+00 0. -1.
         21   -1    0    0  501  502 -0.00000000000E+00 -0.00000000000E+00 -0.68368583907E+03  0.68368583907E+03  0.00000000000E+00 0. -1.
      99926    2    1    2    0    0  0.71054273576E-14 -0.35527136788E-14 -0.61684152990E+03  0.75053014824E+03  0.42755354099E+03 0.  0.
      99925    2    3    3    0    0  0.63656670915E+02  0.26410418994E+02 -0.31308384218E+03  0.41487269945E+03  0.26334043087E+03 0.  0.
         25    1    4    4    0    0  0.65359178643E+02  0.23848471932E+02 -0.20185833660E+03  0.24745680027E+03  0.12509000000E+03 0.  0.
         25    1    3    3    0    0 -0.63656670915E+02 -0.26410418994E+02 -0.30375768771E+03  0.33565744879E+03  0.12509000000E+03 0.  0.
         25    1    4    4    0    0 -0.17025077282E+01  0.25619470624E+01 -0.11122550559E+03  0.16741589918E+03  0.12509000000E+03 0.  0.
<mgrwt>
<rscale>  2 0.42755354E+03</rscale>
<asrwt>0</asrwt>
<pdfrwt beam="1">  1       21 0.98300460E-02 0.42755354E+03</pdfrwt>
<pdfrwt beam="2">  1       21 0.10054203E+00 0.42755354E+03</pdfrwt>
<totfact> 0.62712911E+04</totfact>
</mgrwt>
</event>
<event>
 7    0  0.4712189E-002  0.4586934E+03  0.7546771E-02  0.1025161E+00
         21   -1    0    0  502  501  0.00000000000E+00  0.00000000000E+00  0.64725196995E+02  0.64725196995E+02  0.00000000000E+00 0.  1.
         21   -1    0    0  501  502 -0.00000000000E+00 -0.00000000000E+00 -0.81266527618E+03  0.81266527618E+03  0.00000000000E+00 0.  1.
      99926    2    1    2    0    0  0.00000000000E+00  0.00000000000E+00 -0.74794007919E+03  0.87739047318E+03  0.45869344923E+03 0.  0.
      99925    2    3    3    0    0  0.33804366771E+02  0.10925812614E+03 -0.51164546041E+03  0.58659376016E+03  0.26311801337E+03 0.  0.
         25    1    4    4    0    0  0.38284996555E+02  0.30724400759E+02 -0.19096256957E+03  0.23350362062E+03  0.12509000000E+03 0.  0.
         25    1    3    3    0    0 -0.33804366771E+02 -0.10925812614E+03 -0.23629461878E+03  0.29079671302E+03  0.12509000000E+03 0.  0.
         25    1    4    4    0    0 -0.44806297837E+01  0.78533725378E+02 -0.32068289084E+03  0.35309013955E+03  0.12509000000E+03 0.  0.
<mgrwt>
<rscale>  2 0.45869345E+03</rscale>
<asrwt>0</asrwt>
<pdfrwt beam="1">  1       21 0.95184119E-02 0.45869345E+03</pdfrwt>
<pdfrwt beam="2">  1       21 0.11950959E+00 0.45869345E+03</pdfrwt>
<totfact> 0.42969150E+04</totfact>
</mgrwt>
</event>
<event>
 7    0  0.4712189E-002  0.4558878E+03  0.7546771E-02  0.1025981E+00
         21   -1    0    0  502  501  0.00000000000E+00  0.00000000000E+00  0.30260446331E+04  0.30260446331E+04  0.00000000000E+00 0.  1.
         21   -1    0    0  501  502 -0.00000000000E+00 -0.00000000000E+00 -0.17170404769E+02  0.17170404769E+02  0.00000000000E+00 0.  1.
      99926    2    1    2    0    0  0.00000000000E+00  0.00000000000E+00  0.30088742284E+04  0.30432150379E+04  0.45588775460E+03 0.  0.
      99925    2    3    3    0    0  0.72816338660E+02  0.81234163027E+02  0.21113879988E+04  0.21305101301E+04  0.26308349329E+03 0.  0.
         25    1    4    4    0    0  0.79762397219E+01  0.54794230494E+02  0.84007452470E+03  0.85113967317E+03  0.12509000000E+03 0.  0.
         25    1    3    3    0    0 -0.72816338660E+02 -0.81234163027E+02  0.89748622954E+03  0.91270490780E+03  0.12509000000E+03 0.  0.
         25    1    4    4    0    0  0.64840098938E+02  0.26439932533E+02  0.12713134741E+04  0.12793704569E+04  0.12509000000E+03 0.  0.
<mgrwt>
<rscale>  2 0.45588775E+03</rscale>
<asrwt>0</asrwt>
<pdfrwt beam="1">  1       21 0.44500620E+00 0.45588775E+03</pdfrwt>
<pdfrwt beam="2">  1       21 0.25250616E-02 0.45588775E+03</pdfrwt>
<totfact> 0.29932524E+03</totfact>
</mgrwt>
</event>
<event>
 7    0  0.4712189E-002  0.4545963E+03  0.7546771E-02  0.1026360E+00
         21   -1    0    0  502  501  0.00000000000E+00  0.00000000000E+00  0.46533209078E+03  0.46533209078E+03  0.00000000000E+00 0.  1.
         21   -1    0    0  501  502 -0.00000000000E+00 -0.00000000000E+00 -0.11102705198E+03  0.11102705198E+03  0.00000000000E+00 0.  1.
      99926    2    1    2    0    0 -0.48849813084E-14 -0.14210854715E-13  0.35430503880E+03  0.57635914277E+03  0.45459630545E+03 0.  0.
      99925    2    3    3    0    0  0.15859909903E+01  0.76366090275E+02  0.32743426315E+03  0.42734960684E+03  0.26378058055E+03 0.  0.
         25    1    3    3    0    0 -0.15859909903E+01 -0.76366090275E+02  0.26870775655E+02  0.14900953592E+03  0.12509000000E+03 0.  0.
         25    1    4    4    0    0 -0.35457739189E+02  0.51751806794E+02  0.19315589923E+03  0.23852088018E+03  0.12509000000E+03 0.  0.
         25    1    4    4    0    0  0.37043730180E+02  0.24614283481E+02  0.13427836391E+03  0.18882872666E+03  0.12509000000E+03 0.  0.
<mgrwt>
<rscale>  2 0.45459631E+03</rscale>
<asrwt>0</asrwt>
<pdfrwt beam="1">  1       21 0.68431189E-01 0.45459631E+03</pdfrwt>
<pdfrwt beam="2">  1       21 0.16327508E-01 0.45459631E+03</pdfrwt>
<totfact> 0.60349937E+04</totfact>
</mgrwt>
</event>
<event>
 7    0  0.4712189E-002  0.4591374E+03  0.7546771E-02  0.1025032E+00
         21   -1    0    0  502  501  0.00000000000E+00  0.00000000000E+00  0.28552876876E+03  0.28552876876E+03  0.00000000000E+00 0.  1.
         21   -1    0    0  501  502 -0.00000000000E+00 -0.00000000000E+00 -0.18457613598E+03  0.18457613598E+03  0.00000000000E+00 0.  1.
      99926    2    1    2    0    0  0.00000000000E+00  0.00000000000E+00  0.10095263278E+03  0.47010490473E+03  0.45913743845E+03 0.  0.
      99925    2    3    3    0    0 -0.70803943117E+02  0.93034693399E+02  0.58386898433E+02  0.29367360825E+03  0.26299525802E+03 0.  0.
         25    1    4    4    0    0 -0.17219203903E+01  0.26494016421E+02  0.77581974991E+01  0.12811165304E+03  0.12509000000E+03 0.  0.
         25    1    4    4    0    0 -0.69082022726E+02  0.66540676978E+02  0.50628700934E+02  0.16556195522E+03  0.12509000000E+03 0.  0.
         25    1    3    3    0    0  0.70803943117E+02 -0.93034693399E+02  0.42565734347E+02  0.17643129648E+03  0.12509000000E+03 0.  0.
<mgrwt>
<rscale>  2 0.45913744E+03</rscale>
<asrwt>0</asrwt>
<pdfrwt beam="1">  1       21 0.41989525E-01 0.45913744E+03</pdfrwt>
<pdfrwt beam="2">  1       21 0.27143549E-01 0.45913744E+03</pdfrwt>
<totfact> 0.65260066E+04</totfact>
</mgrwt>
</event>
