<event>
 7    0  0.4775379E-002  0.4473932E+03  0.7546771E-02  0.1028502E+00
         21   -1    0    0  502  501  0.00000000000E+00  0.00000000000E+00  0.58670444757E+02  0.58670444757E+02  0.00000000000E+00 0.  1.
         21   -1    0    0  501  502 -0.00000000000E+00 -0.00000000000E+00 -0.85290267287E+03  0.85290267287E+03  0.00000000000E+00 0.  1.
      99926    2    1    2    0    0  0.26645352591E-14  0.00000000000E+00 -0.79423222811E+03  0.91157311762E+03  0.44739324604E+03 0.  0.
      99925    2    3    3    0    0  0.53162201584E+01  0.95981488317E+02 -0.41538840172E+03  0.50119419372E+03  0.26345281785E+03 0.  0.
         25    1    3    3    0    0 -0.53162201584E+01 -0.95981488317E+02 -0.37884382639E+03  0.41037892391E+03  0.12509000000E+03 0.  0.
         25    1    4    4    0    0 -0.37882088551E+02  0.39717089567E+02 -0.20649105266E+03  0.24758546558E+03  0.12509000000E+03 0.  0.
         25    1    4    4    0    0  0.43198308710E+02  0.56264398750E+02 -0.20889734906E+03  0.25360872814E+03  0.12509000000E+03 0.  0.
<mgrwt>
<rscale>  2 0.44739325E+03</rscale>
<asrwt>0</asrwt>
<pdfrwt beam="1">  1       21 0.86280063E-02 0.44739325E+03</pdfrwt>
<pdfrwt beam="2">  1       21 0.12542687E+00 0.44739325E+03</pdfrwt>
<totfact> 0.45378156E+04</totfact>
</mgrwt>
</event>
<event>
 7    0  0.4775379E-002  0.4599644E+03  0.7546771E-02  0.1024792E+00
         21   -1    0    0  502  501  0.00000000000E+00  0.00000000000E+00  0.14010315556E+03  0.14010315556E+03  0.00000000000E+00 0.  1.
         21   -1    0    0  501  502 -0.00000000000E+00 -0.00000000000E+00 -0.37752055747E+03  0.37752055747E+03  0.00000000000E+00 0.  1.
      99926    2    1    2    0    0  0.00000000000E+00  0.00000000000E+00 -0.23741740191E+03  0.51762371303E+03  0.45996443945E+03 0.  0.
      99925    2    3    3    0    0  0.94877618381E+02  0.59551384862E+02 -0.10754090598E+03  0.30534196109E+03  0.26290784856E+03 0.  0.
         25    1    3    3    0    0 -0.94877618381E+02 -0.59551384862E+02 -0.12987649593E+03  0.21228175194E+03  0.12509000000E+03 0.  0.
         25    1    4    4    0    0  0.53328905521E+02 -0.83069269626E+01 -0.37049908383E+02  0.14118491779E+03  0.12509000000E+03 0.  0.
         25    1    4    4    0    0  0.41548712860E+02  0.67858311825E+02 -0.70490997594E+02  0.16415704330E+03  0.12509000000E+03 0.  0.
<mgrwt>
<rscale>  2 0.45996444E+03</rscale>
<asrwt>0</asrwt>
<pdfrwt beam="1">  1       21 0.20603405E-01 0.45996444E+03</pdfrwt>
<pdfrwt beam="2">  1       21 0.55517729E-01 0.45996444E+03</pdfrwt>
<totfact> 0.61587320E+04</totfact>
</mgrwt>
</event>
<event>
 7    0  0.4775379E-002  0.4338916E+03  0.7546771E-02  0.1032638E+00
         21   -1    0    0  502  501  0.00000000000E+00  0.00000000000E+00  0.14389741100E+03  0.14389741100E+03  0.00000000000E+00 0. -1.
         21   -1    0    0  501  502 -0.00000000000E+00 -0.00000000000E+00 -0.32707664003E+03  0.32707664003E+03  0.00000000000E+00 0. -1.
      99926    2    1    2    0    0 -0.17763568394E-14  0.00000000000E+00 -0.18317922904E+03  0.47097405103E+03  0.43389160719E+03 0.  0.
      99925    2    3    3    0    0 -0.14335197903E+02  0.90146766852E+02 -0.13003854651E+03  0.30725667959E+03  0.26299183657E+03 0.  0.
         25    1    4    4    0    0 -0.17604667828E+02  0.86404113127E+02 -0.66548118828E+02  0.16688845171E+03  0.12509000000E+03 0.  0.
         25    1    3    3    0    0  0.14335197903E+02 -0.90146766852E+02 -0.53140682531E+02  0.16371737144E+03  0.12509000000E+03 0.  0.
         25    1    4    4    0    0  0.32694699250E+01  0.37426537254E+01 -0.63490427678E+02  0.14036822788E+03  0.12509000000E+03 0.  0.
<mgrwt>
<rscale>  2 0.43389161E+03</rscale>
<asrwt>0</asrwt>
<pdfrwt beam="1">  1       21 0.21161384E-01 0.43389161E+03</pdfrwt>
<pdfrwt beam="2">  1       21 0.48099506E-01 0.43389161E+03</pdfrwt>
<totfact> 0.79941144E+04</totfact>
</mgrwt>
</event>
<event>
 7    0  0.4775379E-002  0.4573403E+03  0.7546771E-02  0.1025555E+00
         21   -1    0    0  502  501  0.00000000000E+00  0.00000000000E+00  0.14340492549E+04  0.14340492549E+04  0.00000000000E+00 0.  1.
         21   -1    0    0  501  502 -0.00000000000E+00 -0.00000000000E+00 -0.36463210799E+02  0.36463210799E+02  0.00000000000E+00 0.  1.
      99926    2    1    2    0    0  0.00000000000E+00  0.00000000000E+00  0.13975860441E+04  0.14705124657E+04  0.45734031214E+03 0.  0.
      99925    2    3    3    0    0  0.74692624481E+02 -0.87765442703E+02  0.85939740337E+03  0.90608684421E+03  0.26295952396E+03 0.  0.
         25    1    3    3    0    0 -0.74692624481E+02  0.87765442703E+02  0.53818864074E+03  0.56442562150E+03  0.12509000000E+03 0.  0.
         25    1    4    4    0    0  0.65556511466E+02 -0.77800064429E+02  0.49091212317E+03  0.51671338961E+03  0.12509000000E+03 0.  0.
         25    1    4    4    0    0  0.91361130156E+01 -0.99653782742E+01  0.36848528020E+03  0.38937345460E+03  0.12509000000E+03 0.  0.
<mgrwt>
<rscale>  2 0.45734031E+03</rscale>
<asrwt>0</asrwt>
<pdfrwt beam="1">  1       21 0.21088956E+00 0.45734031E+03</pdfrwt>
<pdfrwt beam="2">  1       21 0.53622378E-02 0.45734031E+03</pdfrwt>
<totfact> 0.24070567E+04</totfact>
</mgrwt>
</event>
<event>
 7    0  0.4775379E-002  0.4558259E+03  0.7546771E-02  0.1025999E+00
         21   -1    0    0  502  501  0.00000000000E+00  0.00000000000E+00  0.49541732482E+02  0.49541732482E+02  0.00000000000E+00 0. -1.
         21   -1    0    0  501  502 -0.00000000000E+00 -0.00000000000E+00 -0.10484962071E+04  0.10484962071E+04  0.00000000000E+00 0. -1.
      99926    2    1    2    0    0  0.71054273576E-14  0.71054273576E-14 -0.99895447460E+03  0.10980379396E+04  0.45582592554E+03 0.  0.
      99925    2    3    3    0    0 -0.52223989441E+02 -0.53577397841E+02 -0.42202988845E+03  0.50298553108E+03  0.26322487554E+03 0.  0.
         25    1    3    3    0    0  0.52223989441E+02  0.53577397841E+02 -0.57692458615E+03  0.59505240848E+03  0.12509000000E+03 0.  0.
         25    1    4    4    0    0 -0.55006989907E+02 -0.46891603217E+02 -0.26768763823E+03  0.30418542232E+03  0.12509000000E+03 0.  0.
         25    1    4    4    0    0  0.27830004661E+01 -0.66857946234E+01 -0.15434225022E+03  0.19880010876E+03  0.12509000000E+03 0.  0.
<mgrwt>
<rscale>  2 0.45582593E+03</rscale>
<asrwt>0</asrwt>
<pdfrwt beam="1">  1       21 0.72855497E-02 0.45582593E+03</pdfrwt>
<pdfrwt beam="2">  1       21 0.15419060E+00 0.45582593E+03</pdfrwt>
<totfact> 0.35334148E+04</totfact>
</mgrwt>
</event>
<event>
 7    0  0.4775379E-002  0.4544860E+03  0.7546771E-02  0.1026393E+00
         21   -1    0    0  502  501  0.00000000000E+00  0.00000000000E+00  0.73838687805E+03  0.73838687805E+03  0.00000000000E+00 0.  1.
         21   -1    0    0  501  502 -0.00000000000E+00 -0.00000000000E+00 -0.69935394481E+02  0.69935394481E+02  0.00000000000E+00 0.  1.
      99926    2    1    2    0    0  0.00000000000E+00  0.71054273576E-14  0.66845148357E+03  0.80832227253E+03  0.45448598480E+03 0.  0.
      99925    2    3    3    0    0 -0.16744036577E+02 -0.38791192987E+02  0.23499266111E+03  0.35520067927E+03  0.26298450974E+03 0.  0.
         25    1    4    4    0    0 -0.60320968367E+01  0.15626420024E+02  0.14078302079E+03  0.18907125175E+03  0.12509000000E+03 0.  0.
         25    1    3    3    0    0  0.16744036577E+02  0.38791192987E+02  0.43345882245E+03  0.45312159326E+03  0.12509000000E+03 0.  0.
         25    1    4    4    0    0 -0.10711939740E+02 -0.54417613011E+02  0.94209640321E+02  0.16612942752E+03  0.12509000000E+03 0.  0.
<mgrwt>
<rscale>  2 0.45448598E+03</rscale>
<asrwt>0</asrwt>
<pdfrwt beam="1">  1       21 0.10858630E+00 0.45448598E+03</pdfrwt>
<pdfrwt beam="2">  1       21 0.10284617E-01 0.45448598E+03</pdfrwt>
<totfact> 0.47556439E+04</totfact>
</mgrwt>
</event>
<event>
 7    0  0.4775379E-002  0.4599943E+03  0.7546771E-02  0.1024783E+00
         21   -1    0    0  502  501  0.00000000000E+00  0.00000000000E+00  0.25514775479E+03  0.25514775479E+03  0.00000000000E+00 0.  1.
         21   -1    0    0  501  502 -0.00000000000E+00 -0.00000000000E+00 -0.20732566666E+03  0.20732566666E+03  0.00000000000E+00 0.  1.
      99926    2    1    2    0    0  0.00000000000E+00  0.35527136788E-14  0.47822088126E+02  0.46247342145E+03  0.45999425370E+03 0.  0.
      99925    2    3    3    0    0 -0.97900829479E+02 -0.11317678821E+02 -0.34921380072E+02  0.28301130318E+03  0.26298903527E+03 0.  0.
         25    1    4    4    0    0 -0.42658739179E+02 -0.44969501659E+02 -0.96605718435E+01  0.13993876824E+03  0.12509000000E+03 0.  0.
         25    1    4    4    0    0 -0.55242090300E+02  0.33651822838E+02 -0.25260808228E+02  0.14307253494E+03  0.12509000000E+03 0.  0.
         25    1    3    3    0    0  0.97900829479E+02  0.11317678821E+02  0.82743468198E+02  0.17946211828E+03  0.12509000000E+03 0.  0.
<mgrwt>
<rscale>  2 0.45999425E+03</rscale>
<asrwt>0</asrwt>
<pdfrwt beam="1">  1       21 0.37521729E-01 0.45999425E+03</pdfrwt>
<pdfrwt beam="2">  1       21 0.30489069E-01 0.45999425E+03</pdfrwt>
<totfact> 0.65358296E+04</totfact>
</mgrwt>
</event>
<event>
 7    0  0.4775379E-002  0.4541052E+03  0.7546771E-02  0.1026505E+00
         21   -1    0    0  502  501  0.00000000000E+00  0.00000000000E+00  0.10396924524E+03  0.10396924524E+03  0.00000000000E+00 0. -1.
         21   -1    0    0  501  502 -0.00000000000E+00 -0.00000000000E+00 -0.49584744148E+03  0.49584744148E+03  0.00000000000E+00 0. -1.
      99926    2    1    2    0    0  0.00000000000E+00  0.71054273576E-14 -0.39187819624E+03  0.59981668672E+03  0.45410520475E+03 0.  0.
      99925    2    3    3    0    0 -0.98548914631E+02  0.47302622219E+02 -0.21272544400E+03  0.35549590705E+03  0.26301292508E+03 0.  0.
         25    1    4    4    0    0 -0.85909766182E+02  0.19335646977E+02 -0.89452383752E+02  0.17721058724E+03  0.12509000000E+03 0.  0.
         25    1    4    4    0    0 -0.12639148449E+02  0.27966975242E+02 -0.12327306024E+03  0.17828531981E+03  0.12509000000E+03 0.  0.
         25    1    3    3    0    0  0.98548914631E+02 -0.47302622219E+02 -0.17915275224E+03  0.24432077967E+03  0.12509000000E+03 0.  0.
<mgrwt>
<rscale>  2 0.45410520E+03</rscale>
<asrwt>0</asrwt>
<pdfrwt beam="1">  1       21 0.15289595E-01 0.45410520E+03</pdfrwt>
<pdfrwt beam="2">  1       21 0.72918741E-01 0.45410520E+03</pdfrwt>
<totfact> 0.59106328E+04</totfact>
</mgrwt>
</event>
<event>
 7    0  0.4775379E-002  0.4566170E+03  0.7546771E-02  0.1025767E+00
         21   -1    0    0  502  501  0.00000000000E+00  0.00000000000E+00  0.20135982238E+03  0.20135982238E+03  0.00000000000E+00 0.  1.
         21   -1    0    0  501  502 -0.00000000000E+00 -0.00000000000E+00 -0.25886384687E+03  0.25886384687E+03  0.00000000000E+00 0.  1.
      99926    2    1    2    0    0  0.00000000000E+00  0.00000000000E+00 -0.57504024483E+02  0.46022366925E+03  0.45661703090E+03 0.  0.
      99925    2    3    3    0    0 -0.57893645350E+02 -0.94642871558E+02 -0.65597542211E+02  0.29282605744E+03  0.26293557208E+03 0.  0.
         25    1    3    3    0    0  0.57893645350E+02  0.94642871558E+02  0.80935177279E+01  0.16739761180E+03  0.12509000000E+03 0.  0.
         25    1    4    4    0    0  0.11517197323E+02 -0.52383601869E+02 -0.27200335217E+02  0.13879500681E+03  0.12509000000E+03 0.  0.
         25    1    4    4    0    0 -0.69410842673E+02 -0.42259269689E+02 -0.38397206994E+02  0.15403105064E+03  0.12509000000E+03 0.  0.
<mgrwt>
<rscale>  2 0.45661703E+03</rscale>
<asrwt>0</asrwt>
<pdfrwt beam="1">  1       21 0.29611739E-01 0.45661703E+03</pdfrwt>
<pdfrwt beam="2">  1       21 0.38068212E-01 0.45661703E+03</pdfrwt>
<totfact> 0.67292270E+04</totfact>
</mgrwt>
</event>
<event>
 7    0  0.4775379E-002  0.4587364E+03  0.7546771E-02  0.1025148E+00
         21   -1    0    0  502  501  0.00000000000E+00  0.00000000000E+00  0.81858585423E+03  0.81858585423E+03  0.00000000000E+00 0. -1.
         21   -1    0    0  501  502 -0.00000000000E+00 -0.00000000000E+00 -0.64269090772E+02  0.64269090772E+02  0.00000000000E+00 0. -1.
      99926    2    1    2    0    0  0.00000000000E+00  0.00000000000E+00  0.75431676346E+03  0.88285494500E+03  0.45873638866E+03 0.  0.
      99925    2    3    3    0    0 -0.14267809020E+02 -0.79162986478E+02  0.63573497826E+03  0.69264585825E+03  0.26292389311E+03 0.  0.
         25    1    4    4    0    0 -0.71162543768E+01 -0.60129042000E+02  0.24256725919E+03  0.27955773303E+03  0.12509000000E+03 0.  0.
         25    1    3    3    0    0  0.14267809020E+02  0.79162986478E+02  0.11858178520E+03  0.19020908675E+03  0.12509000000E+03 0.  0.
         25    1    4    4    0    0 -0.71515546436E+01 -0.19033944478E+02  0.39316771907E+03  0.41308812522E+03  0.12509000000E+03 0.  0.
<mgrwt>
<rscale>  2 0.45873639E+03</rscale>
<asrwt>0</asrwt>
<pdfrwt beam="1">  1       21 0.12038027E+00 0.45873639E+03</pdfrwt>
<pdfrwt beam="2">  1       21 0.94513374E-02 0.45873639E+03</pdfrwt>
<totfact> 0.42719475E+04</totfact>
</mgrwt>
</event>
<event>
 7    0  0.4775379E-002  0.4514492E+03  0.7546771E-02  0.1027291E+00
         21   -1    0    0  502  501  0.00000000000E+00  0.00000000000E+00  0.11973167492E+03  0.11973167492E+03  0.00000000000E+00 0.  1.
         21   -1    0    0  501  502 -0.00000000000E+00 -0.00000000000E+00 -0.42554823029E+03  0.42554823029E+03  0.00000000000E+00 0.  1.
      99926    2    1    2    0    0 -0.71054273576E-14  0.00000000000E+00 -0.30581655537E+03  0.54527990521E+03  0.45144923246E+03 0.  0.
      99925    2    3    3    0    0  0.54547817769E+02  0.94256034587E+02 -0.21900449317E+03  0.35808079538E+03  0.26153245211E+03 0.  0.
         25    1    3    3    0    0 -0.54547817769E+02 -0.94256034587E+02 -0.86812062194E+02  0.18719910983E+03  0.12509000000E+03 0.  0.
         25    1    4    4    0    0 -0.82667831963E+01  0.28735882516E+02 -0.93985415933E+02  0.15929487486E+03  0.12509000000E+03 0.  0.
         25    1    4    4    0    0  0.62814600966E+02  0.65520152071E+02 -0.12501907724E+03  0.19878592052E+03  0.12509000000E+03 0.  0.
<mgrwt>
<rscale>  2 0.45144923E+03</rscale>
<asrwt>0</asrwt>
<pdfrwt beam="1">  1       21 0.17607599E-01 0.45144923E+03</pdfrwt>
<pdfrwt beam="2">  1       21 0.62580622E-01 0.45144923E+03</pdfrwt>
<totfact> 0.63957634E+04</totfact>
</mgrwt>
</event>
<event>
 7    0  0.4775379E-002  0.4472907E+03  0.7546771E-02  0.1028533E+00
         21   -1    0    0  502  501  0.00000000000E+00  0.00000000000E+00  0.76576718077E+03  0.76576718077E+03  0.00000000000E+00 0.  1.
         21   -1    0    0  501  502 -0.00000000000E+00 -0.00000000000E+00 -0.65316524074E+02  0.65316524074E+02  0.00000000000E+00 0.  1.
      99926    2    1    2    0    0 -0.44408920985E-15  0.00000000000E+00  0.70045065670E+03  0.83108370485E+03  0.44729073542E+03 0.  0.
      99925    2    3    3    0    0  0.30973712819E+01  0.99014699012E+02  0.37569025089E+03  0.46924073668E+03  0.26311632412E+03 0.  0.
         25    1    3    3    0    0 -0.30973712819E+01 -0.99014699012E+02  0.32476040582E+03  0.36184296817E+03  0.12509000000E+03 0.  0.
         25    1    4    4    0    0 -0.55245876538E+01  0.92294175898E+02  0.20452981115E+03  0.25696047891E+03  0.12509000000E+03 0.  0.
         25    1    4    4    0    0  0.86219589357E+01  0.67205231145E+01  0.17116043974E+03  0.21228025777E+03  0.12509000000E+03 0.  0.
<mgrwt>
<rscale>  2 0.44729074E+03</rscale>
<asrwt>0</asrwt>
<pdfrwt beam="1">  1       21 0.11261282E+00 0.44729074E+03</pdfrwt>
<pdfrwt beam="2">  1       21 0.96053716E-02 0.44729074E+03</pdfrwt>
<totfact> 0.49207325E+04</totfact>
</mgrwt>
</event>
<event>
 7    0  0.4775379E-002  0.4606348E+03  0.7546771E-02  0.1024597E+00
         21   -1    0    0  502  501  0.00000000000E+00  0.00000000000E+00  0.42794465158E+03  0.42794465158E+03  0.00000000000E+00 0.  1.
         21   -1    0    0  501  502 -0.00000000000E+00 -0.00000000000E+00 -0.12395550378E+03  0.12395550378E+03  0.00000000000E+00 0.  1.
      99926    2    1    2    0    0  0.00000000000E+00 -0.71054273576E-14  0.30398914779E+03  0.55190015536E+03  0.46063475717E+03 0.  0.
      99925    2    3    3    0    0  0.94334158705E+02 -0.44551962495E+02  0.25771633646E+03  0.38257061857E+03  0.26279032946E+03 0.  0.
         25    1    4    4    0    0  0.68986741336E+02 -0.52996852550E+02  0.16501002606E+03  0.22459664660E+03  0.12509000000E+03 0.  0.
         25    1    3    3    0    0 -0.94334158705E+02  0.44551962495E+02  0.46272811334E+02  0.16932953679E+03  0.12509000000E+03 0.  0.
         25    1    4    4    0    0  0.25347417369E+02  0.84448900542E+01  0.92706310394E+02  0.15797397198E+03  0.12509000000E+03 0.  0.
<mgrwt>
<rscale>  2 0.46063476E+03</rscale>
<asrwt>0</asrwt>
<pdfrwt beam="1">  1       21 0.62933037E-01 0.46063476E+03</pdfrwt>
<pdfrwt beam="2">  1       21 0.18228751E-01 0.46063476E+03</pdfrwt>
<totfact> 0.59063686E+04</totfact>
</mgrwt>
</event>
<event>
 7    0  0.4775379E-002  0.4575006E+03  0.7546771E-02  0.1025509E+00
         21   -1    0    0  502  501  0.00000000000E+00  0.00000000000E+00  0.70404984237E+03  0.70404984237E+03  0.00000000000E+00 0.  1.
         21   -1    0    0  501  502 -0.00000000000E+00 -0.00000000000E+00 -0.74322420780E+02  0.74322420780E+02  0.00000000000E+00 0.  1.
      99926    2    1    2    0    0  0.00000000000E+00  0.14210854715E-13  0.62972742159E+03  0.77837226314E+03  0.45750055141E+03 0.  0.
      99925    2    3    3    0    0 -0.20307094912E+02 -0.92197059862E+02  0.50928806664E+03  0.58072150481E+03  0.26258418722E+03 0.  0.
         25    1    3    3    0    0  0.20307094912E+02  0.92197059862E+02  0.12043935495E+03  0.19765075834E+03  0.12509000000E+03 0.  0.
         25    1    4    4    0    0  0.59824177593E+01 -0.13687377966E+02  0.19028112339E+03  0.22820505616E+03  0.12509000000E+03 0.  0.
         25    1    4    4    0    0 -0.26289512671E+02 -0.78509681896E+02  0.31900694325E+03  0.35251644865E+03  0.12509000000E+03 0.  0.
<mgrwt>
<rscale>  2 0.45750055E+03</rscale>
<asrwt>0</asrwt>
<pdfrwt beam="1">  1       21 0.10353674E+00 0.45750055E+03</pdfrwt>
<pdfrwt beam="2">  1       21 0.10929768E-01 0.45750055E+03</pdfrwt>
<totfact> 0.47881996E+04</totfact>
</mgrwt>
</event>
<event>
 7    0  0.4775379E-002  0.4490127E+03  0.7546771E-02  0.1028017E+00
         21   -1    0    0  502  501  0.00000000000E+00  0.00000000000E+00  0.80130597743E+02  0.80130597743E+02  0.00000000000E+00 0.  1.
         21   -1    0    0  501  502 -0.00000000000E+00 -0.00000000000E+00 -0.62901183452E+03  0.62901183452E+03  0.00000000000E+00 0.  1.
      99926    2    1    2    0    0 -0.14210854715E-13  0.00000000000E+00 -0.54888123678E+03  0.70914243227E+03  0.44901266925E+03 0.  0.
      99925    2    3    3    0    0 -0.80523695517E+02  0.47864456682E+02 -0.42894922426E+03  0.51214936772E+03  0.26367492506E+03 0.  0.
         25    1    3    3    0    0  0.80523695517E+02 -0.47864456682E+02 -0.11993201252E+03  0.19699306455E+03  0.12509000000E+03 0.  0.
         25    1    4    4    0    0 -0.15058057504E+02 -0.11642511945E+02 -0.20002054452E+03  0.23668126142E+03  0.12509000000E+03 0.  0.
         25    1    4    4    0    0 -0.65465638014E+02  0.59506968627E+02 -0.22892867974E+03  0.27546810629E+03  0.12509000000E+03 0.  0.
<mgrwt>
<rscale>  2 0.44901267E+03</rscale>
<asrwt>0</asrwt>
<pdfrwt beam="1">  1       21 0.11783912E-01 0.44901267E+03</pdfrwt>
<pdfrwt beam="2">  1       21 0.92501738E-01 0.44901267E+03</pdfrwt>
<totfact> 0.54952655E+04</totfact>
</mgrwt>
</event>
<event>
 7    0  0.4775379E-002  0.4661959E+03  0.7546771E-02  0.1022999E+00
         21   -1    0    0  502  501  0.00000000000E+00  0.00000000000E+00  0.99157223918E+02  0.99157223918E+02  0.00000000000E+00 0.  1.
         21   -1    0    0  501  502 -0.00000000000E+00 -0.00000000000E+00 -0.54796458894E+03  0.54796458894E+03  0.00000000000E+00 0.  1.
      99926    2    1    2    0    0  0.00000000000E+00 -0.71054273576E-14 -0.44880736502E+03  0.64712181286E+03  0.46619587062E+03 0.  0.
      99925    2    3    3    0    0 -0.94885520530E+02 -0.63425457830E+02 -0.21440708723E+03  0.35795568580E+03  0.26293691874E+03 0.  0.
         25    1    4    4    0    0 -0.38085585883E+02  0.99814506696E+00 -0.69249612138E+02  0.14796798649E+03  0.12509000000E+03 0.  0.
         25    1    4    4    0    0 -0.56799934647E+02 -0.64423602897E+02 -0.14515747509E+03  0.20998769931E+03  0.12509000000E+03 0.  0.
         25    1    3    3    0    0  0.94885520530E+02  0.63425457830E+02 -0.23440027780E+03  0.28916612706E+03  0.12509000000E+03 0.  0.
<mgrwt>
<rscale>  2 0.46619587E+03</rscale>
<asrwt>0</asrwt>
<pdfrwt beam="1">  1       21 0.14581945E-01 0.46619587E+03</pdfrwt>
<pdfrwt beam="2">  1       21 0.80583027E-01 0.46619587E+03</pdfrwt>
<totfact> 0.51193067E+04</totfact>
</mgrwt>
</event>
<event>
 7    0  0.4775379E-002  0.4553480E+03  0.7546771E-02  0.1026139E+00
         21   -1    0    0  502  501  0.00000000000E+00  0.00000000000E+00  0.45845067675E+03  0.45845067675E+03  0.00000000000E+00 0.  1.
         21   -1    0    0  501  502 -0.00000000000E+00 -0.00000000000E+00 -0.11306657044E+03  0.11306657044E+03  0.00000000000E+00 0.  1.
      99926    2    1    2    0    0  0.71054273576E-14  0.14210854715E-13  0.34538410631E+03  0.57151724720E+03  0.45534798007E+03 0.  0.
      99925    2    3    3    0    0  0.44594616242E+02  0.99001519963E+02  0.25867021339E+03  0.38454990225E+03  0.26301780790E+03 0.  0.
         25    1    3    3    0    0 -0.44594616242E+02 -0.99001519963E+02  0.86713892921E+02  0.18696734495E+03  0.12509000000E+03 0.  0.
         25    1    4    4    0    0  0.96177103225E-02  0.11845981966E+02  0.11047150425E+03  0.16730746765E+03  0.12509000000E+03 0.  0.
         25    1    4    4    0    0  0.44584998531E+02  0.87155537997E+02  0.14819870914E+03  0.21724243459E+03  0.12509000000E+03 0.  0.
<mgrwt>
<rscale>  2 0.45534798E+03</rscale>
<asrwt>0</asrwt>
<pdfrwt beam="1">  1       21 0.67419217E-01 0.45534798E+03</pdfrwt>
<pdfrwt beam="2">  1       21 0.16627437E-01 0.45534798E+03</pdfrwt>
<totfact> 0.60300530E+04</totfact>
</mgrwt>
</event>
<event>
 7    0  0.4775379E-002  0.4522478E+03  0.7546771E-02  0.1027054E+00
         21   -1    0    0  502  501  0.00000000000E+00  0.00000000000E+00  0.16947116366E+03  0.16947116366E+03  0.00000000000E+00 0.  1.
         21   -1    0    0  501  502 -0.00000000000E+00 -0.00000000000E+00 -0.30171518739E+03  0.30171518739E+03  0.00000000000E+00 0.  1.
      99926    2    1    2    0    0  0.00000000000E+00 -0.88817841970E-15 -0.13224402373E+03  0.47118635105E+03  0.45224782543E+03 0.  0.
      99925    2    3    3    0    0  0.52321604603E+02 -0.53817878179E+01  0.17971645241E+02  0.26875421612E+03  0.26294359605E+03 0.  0.
         25    1    3    3    0    0 -0.52321604603E+02  0.53817878179E+01 -0.15021566897E+03  0.20243213493E+03  0.12509000000E+03 0.  0.
         25    1    4    4    0    0 -0.10188387609E+02 -0.17567156022E+02 -0.33668986910E+01  0.12677244306E+03  0.12509000000E+03 0.  0.
         25    1    4    4    0    0  0.62509992212E+02  0.12185368204E+02  0.21338543932E+02  0.14198177306E+03  0.12509000000E+03 0.  0.
<mgrwt>
<rscale>  2 0.45224783E+03</rscale>
<asrwt>0</asrwt>
<pdfrwt beam="1">  1       21 0.24922230E-01 0.45224783E+03</pdfrwt>
<pdfrwt beam="2">  1       21 0.44369880E-01 0.45224783E+03</pdfrwt>
<totfact> 0.68838596E+04</totfact>
</mgrwt>
</event>
<event>
 7    0  0.4775379E-002  0.4648029E+03  0.7546771E-02  0.1023397E+00
         21   -1    0    0  502  501  0.00000000000E+00  0.00000000000E+00  0.16924876727E+03  0.16924876727E+03  0.00000000000E+00 0.  1.
         21   -1    0    0  501  502 -0.00000000000E+00 -0.00000000000E+00 -0.31911863878E+03  0.31911863878E+03  0.00000000000E+00 0.  1.
      99926    2    1    2    0    0  0.00000000000E+00 -0.14210854715E-13 -0.14986987151E+03  0.48836740605E+03  0.46480290975E+03 0.  0.
      99925    2    3    3    0    0 -0.88117230335E+02  0.82544393394E+02 -0.73727839559E+02  0.29856924934E+03  0.26292504476E+03 0.  0.
         25    1    3    3    0    0  0.88117230335E+02 -0.82544393394E+02 -0.76142031950E+02  0.18979815671E+03  0.12509000000E+03 0.  0.
         25    1    4    4    0    0 -0.20926509214E+02  0.50365267199E+02 -0.68960018377E+02  0.15289725688E+03  0.12509000000E+03 0.  0.
         25    1    4    4    0    0 -0.67190721121E+02  0.32179126195E+02 -0.47678211815E+01  0.14567199246E+03  0.12509000000E+03 0.  0.
<mgrwt>
<rscale>  2 0.46480291E+03</rscale>
<asrwt>0</asrwt>
<pdfrwt beam="1">  1       21 0.24889525E-01 0.46480291E+03</pdfrwt>
<pdfrwt beam="2">  1       21 0.46929211E-01 0.46480291E+03</pdfrwt>
<totfact> 0.61193658E+04</totfact>
</mgrwt>
</event>
<event>
 7    0  0.4775379E-002  0.4535772E+03  0.7546771E-02  0.1026661E+00
         21   -1    0    0  502  501  0.00000000000E+00  0.00000000000E+00  0.56058065473E+03  0.56058065473E+03  0.00000000000E+00 0.  1.
         21   -1    0    0  501  502 -0.00000000000E+00 -0.00000000000E+00 -0.91749621038E+02  0.91749621038E+02  0.00000000000E+00 0.  1.
      99926    2    1    2    0    0  0.00000000000E+00 -0.17763568394E-14  0.46883103369E+03  0.65233027577E+03  0.45357717153E+03 0.  0.
      99925    2    3    3    0    0  0.11162032531E+03 -0.43578300660E+01  0.30120562933E+03  0.41521454033E+03  0.26305930065E+03 0.  0.
         25    1    4    4    0    0  0.88166152525E+02 -0.18595440778E+02  0.13162672831E+03  0.20271202375E+03  0.12509000000E+03 0.  0.
         25    1    4    4    0    0  0.23454172783E+02  0.14237610712E+02  0.16957890103E+03  0.21250251658E+03  0.12509000000E+03 0.  0.
         25    1    3    3    0    0 -0.11162032531E+03  0.43578300660E+01  0.16762540436E+03  0.23711573543E+03  0.12509000000E+03 0.  0.
<mgrwt>
<rscale>  2 0.45357717E+03</rscale>
<asrwt>0</asrwt>
<pdfrwt beam="1">  1       21 0.82438330E-01 0.45357717E+03</pdfrwt>
<pdfrwt beam="2">  1       21 0.13492592E-01 0.45357717E+03</pdfrwt>
<totfact> 0.56195512E+04</totfact>
</mgrwt>
</event>
<event>
 7    0  0.4775379E-002  0.4552711E+03  0.7546771E-02  0.1026162E+00
         21   -1    0    0  502  501  0.00000000000E+00  0.00000000000E+00  0.88368861659E+03  0.88368861659E+03  0.00000000000E+00 0.  1.
         21   -1    0    0  501  502 -0.00000000000E+00 -0.00000000000E+00 -0.58638246497E+02  0.58638246497E+02  0.00000000000E+00 0.  1.
      99926    2    1    2    0    0 -0.71054273576E-14 -0.14210854715E-13  0.82505037009E+03  0.94232686309E+03  0.45527113208E+03 0.  0.
      99925    2    3    3    0    0 -0.61574306594E+02 -0.91168594227E+02  0.46086794927E+03  0.54185282954E+03  0.26287281034E+03 0.  0.
         25    1    3    3    0    0  0.61574306594E+02  0.91168594227E+02  0.36418242082E+03  0.40047403354E+03  0.12509000000E+03 0.  0.
         25    1    4    4    0    0 -0.44584416721E+02 -0.68265825455E+01  0.20584723308E+03  0.24506114321E+03  0.12509000000E+03 0.  0.
         25    1    4    4    0    0 -0.16989889874E+02 -0.84342011681E+02  0.25502071619E+03  0.29679168633E+03  0.12509000000E+03 0.  0.
<mgrwt>
<rscale>  2 0.45527113E+03</rscale>
<asrwt>0</asrwt>
<pdfrwt beam="1">  1       21 0.12995420E+00 0.45527113E+03</pdfrwt>
<pdfrwt beam="2">  1       21 0.86232721E-02 0.45527113E+03</pdfrwt>
<totfact> 0.41365300E+04</totfact>
</mgrwt>
</event>
<event>
 7    0  0.4775379E-002  0.4563398E+03  0.7546771E-02  0.1025848E+00
         21   -1    0    0  502  501  0.00000000000E+00  0.00000000000E+00  0.11548447292E+04  0.11548447292E+04  0.00000000000E+00 0. -1.
         21   -1    0    0  501  502 -0.00000000000E+00 -0.00000000000E+00 -0.45080952969E+02  0.45080952969E+02  0.00000000000E+00 0. -1.
      99926    2    1    2    0    0  0.00000000000E+00  0.00000000000E+00  0.11097637762E+04  0.11999256822E+04  0.45633978973E+03 0.  0.
      99925    2    3    3    0    0 -0.66221993806E+02  0.84457978055E+02  0.80207499651E+03  0.85087211065E+03  0.26294589964E+03 0.  0.
         25    1    3    3    0    0  0.66221993806E+02 -0.84457978055E+02  0.30768877971E+03  0.34905357150E+03  0.12509000000E+03 0.  0.
         25    1    4    4    0    0 -0.11331425127E+02  0.76062506457E+02  0.39537277017E+03  0.42175945938E+03  0.12509000000E+03 0.  0.
         25    1    4    4    0    0 -0.54890568679E+02  0.83954715974E+01  0.40670222634E+03  0.42911265127E+03  0.12509000000E+03 0.  0.
<mgrwt>
<rscale>  2 0.45633979E+03</rscale>
<asrwt>0</asrwt>
<pdfrwt beam="1">  1       21 0.16983009E+00 0.45633979E+03</pdfrwt>
<pdfrwt beam="2">  1       21 0.66295527E-02 0.45633979E+03</pdfrwt>
<totfact> 0.31824852E+04</totfact>
</mgrwt>
</event>
<event>
 7    0  0.4775379E-002  0.4545250E+03  0.7546771E-02  0.1026381E+00
         21   -1    0    0  502  501  0.00000000000E+00  0.00000000000E+00  0.12930332879E+03  0.12930332879E+03  0.00000000000E+00 0. -1.
         21   -1    0    0  501  502 -0.00000000000E+00 -0.00000000000E+00 -0.39943468655E+03  0.39943468655E+03  0.00000000000E+00 0. -1.
      99926    2    1    2    0    0 -0.35527136788E-14 -0.71054273576E-14 -0.27013135775E+03  0.52873801534E+03  0.45452495908E+03 0.  0.
      99925    2    3    3    0    0 -0.80058309518E+01  0.56576498969E+02 -0.28301634680E+03  0.39061298282E+03  0.26308792490E+03 0.  0.
         25    1    4    4    0    0  0.25648779778E+02  0.55530313953E+02 -0.13551088567E+03  0.19429921232E+03  0.12509000000E+03 0.  0.
         25    1    3    3    0    0  0.80058309518E+01 -0.56576498969E+02  0.12884989051E+02  0.13812503252E+03  0.12509000000E+03 0.  0.
         25    1    4    4    0    0 -0.33654610730E+02  0.10461850164E+01 -0.14750546113E+03  0.19631377051E+03  0.12509000000E+03 0.  0.
<mgrwt>
<rscale>  2 0.45452496E+03</rscale>
<asrwt>0</asrwt>
<pdfrwt beam="1">  1       21 0.19015195E-01 0.45452496E+03</pdfrwt>
<pdfrwt beam="2">  1       21 0.58740397E-01 0.45452496E+03</pdfrwt>
<totfact> 0.63530922E+04</totfact>
</mgrwt>
</event>
<event>
 7    0  0.4775379E-002  0.4505148E+03  0.7546771E-02  0.1027569E+00
         21   -1    0    0  502  501  0.00000000000E+00  0.00000000000E+00  0.35110601117E+03  0.35110601117E+03  0.00000000000E+00 0.  1.
         21   -1    0    0  501  502 -0.00000000000E+00 -0.00000000000E+00 -0.14451731956E+03  0.14451731956E+03  0.00000000000E+00 0.  1.
      99926    2    1    2    0    0  0.00000000000E+00  0.00000000000E+00  0.20658869161E+03  0.49562333074E+03  0.45051481493E+03 0.  0.
      99925    2    3    3    0    0 -0.44840852186E+02 -0.11454854410E+02  0.23899967037E+03  0.35836483243E+03  0.26298782286E+03 0.  0.
         25    1    3    3    0    0  0.44840852186E+02  0.11454854410E+02 -0.32410978753E+02  0.13725849831E+03  0.12509000000E+03 0.  0.
         25    1    4    4    0    0 -0.56993407233E+02  0.77959763572E+01  0.14712047466E+03  0.20149681853E+03  0.12509000000E+03 0.  0.
         25    1    4    4    0    0  0.12152555047E+02 -0.19250830767E+02  0.91879195709E+02  0.15686801390E+03  0.12509000000E+03 0.  0.
<mgrwt>
<rscale>  2 0.45051481E+03</rscale>
<asrwt>0</asrwt>
<pdfrwt beam="1">  1       21 0.51633237E-01 0.45051481E+03</pdfrwt>
<pdfrwt beam="2">  1       21 0.21252547E-01 0.45051481E+03</pdfrwt>
<totfact> 0.67967133E+04</totfact>
</mgrwt>
</event>
<event>
 7    0  0.4775379E-002  0.4481181E+03  0.7546771E-02  0.1028285E+00
         21   -1    0    0  502  501  0.00000000000E+00  0.00000000000E+00  0.32309111646E+03  0.32309111646E+03  0.00000000000E+00 0.  1.
         21   -1    0    0  501  502 -0.00000000000E+00 -0.00000000000E+00 -0.15538175248E+03  0.15538175248E+03  0.00000000000E+00 0.  1.
      99926    2    1    2    0    0  0.00000000000E+00  0.00000000000E+00  0.16770936398E+03  0.47847286894E+03  0.44811812678E+03 0.  0.
      99925    2    3    3    0    0  0.20746917923E+02 -0.91196944151E+02  0.51640025294E+02  0.28387863288E+03  0.26300773518E+03 0.  0.
         25    1    4    4    0    0  0.27719525783E+02 -0.57238441083E+02  0.62505405291E+02  0.15361980679E+03  0.12509000000E+03 0.  0.
         25    1    4    4    0    0 -0.69726078595E+01 -0.33958503069E+02 -0.10865379996E+02  0.13025882609E+03  0.12509000000E+03 0.  0.
         25    1    3    3    0    0 -0.20746917923E+02  0.91196944151E+02  0.11606933869E+03  0.19459423607E+03  0.12509000000E+03 0.  0.
<mgrwt>
<rscale>  2 0.44811813E+03</rscale>
<asrwt>0</asrwt>
<pdfrwt beam="1">  1       21 0.47513400E-01 0.44811813E+03</pdfrwt>
<pdfrwt beam="2">  1       21 0.22850258E-01 0.44811813E+03</pdfrwt>
<totfact> 0.70589488E+04</totfact>
</mgrwt>
</event>
<event>
 7    0  0.4775379E-002  0.4519215E+03  0.7546771E-02  0.1027151E+00
         21   -1    0    0  502  501  0.00000000000E+00  0.00000000000E+00  0.16966879408E+03  0.16966879408E+03  0.00000000000E+00 0. -1.
         21   -1    0    0  501  502 -0.00000000000E+00 -0.00000000000E+00 -0.30092899285E+03  0.30092899285E+03  0.00000000000E+00 0. -1.
      99926    2    1    2    0    0  0.71054273576E-14  0.00000000000E+00 -0.13126019877E+03  0.47059778694E+03  0.45192149461E+03 0.  0.
      99925    2    3    3    0    0 -0.43611063340E+02  0.10129266418E+03 -0.79922399198E+02  0.29611223904E+03  0.26293105475E+03 0.  0.
         25    1    4    4    0    0 -0.12794862869E+02  0.55366897959E+02 -0.80698207958E+02  0.15933898071E+03  0.12509000000E+03 0.  0.
         25    1    4    4    0    0 -0.30816200471E+02  0.45925766220E+02  0.77580875967E+00  0.13677325833E+03  0.12509000000E+03 0.  0.
         25    1    3    3    0    0  0.43611063340E+02 -0.10129266418E+03 -0.51337799572E+02  0.17448554790E+03  0.12509000000E+03 0.  0.
<mgrwt>
<rscale>  2 0.45192149E+03</rscale>
<asrwt>0</asrwt>
<pdfrwt beam="1">  1       21 0.24951293E-01 0.45192149E+03</pdfrwt>
<pdfrwt beam="2">  1       21 0.44254264E-01 0.45192149E+03</pdfrwt>
<totfact> 0.69062840E+04</totfact>
</mgrwt>
</event>
<event>
 6    0  0.4775379E-002  0.4330946E+03  0.7546771E-02  0.1032887E+00
         21   -1    0    0  502  501  0.00000000000E+00  0.00000000000E+00  0.53825742557E+02  0.53825742557E+02  0.00000000000E+00 0.  1.
         21   -1    0    0  501  502 -0.00000000000E+00 -0.00000000000E+00 -0.87119521761E+03  0.87119521761E+03  0.00000000000E+00 0.  1.
      99926    2    1    2    0    0  0.00000000000E+00  0.00000000000E+00 -0.81736947505E+03  0.92502096017E+03  0.43309458320E+03 0.  0.
         25    1    3    3    0    0  0.56627461313E+02  0.37083532971E+02 -0.40862642763E+03  0.43267184245E+03  0.12509000000E+03 0.  0.
         25    1    3    3    0    0  0.17151052829E+02 -0.10273325408E+02 -0.18156549881E+03  0.22138933643E+03  0.12509000000E+03 0.  0.
         25    1    3    3    0    0 -0.73778514142E+02 -0.26810207563E+02 -0.22717754861E+03  0.27095978128E+03  0.12509000000E+03 0.  0.
<mgrwt>
<rscale>  2 0.43309458E+03</rscale>
<asrwt>0</asrwt>
<pdfrwt beam="1">  1       21 0.79155502E-02 0.43309458E+03</pdfrwt>
<pdfrwt beam="2">  1       21 0.12811695E+00 0.43309458E+03</pdfrwt>
<totfact> 0.50240774E+04</totfact>
</mgrwt>
</event>
<event>
 7    0  0.4775379E-002  0.4541138E+03  0.7546771E-02  0.1026502E+00
         21   -1    0    0  502  501  0.00000000000E+00  0.00000000000E+00  0.33578837447E+02  0.33578837447E+02  0.00000000000E+00 0.  1.
         21   -1    0    0  501  502 -0.00000000000E+00 -0.00000000000E+00 -0.15353372267E+04  0.15353372267E+04  0.00000000000E+00 0.  1.
      99926    2    1    2    0    0  0.71054273576E-14  0.35527136788E-14 -0.15017583893E+04  0.15689160642E+04  0.45411381465E+03 0.  0.
      99925    2    3    3    0    0 -0.33390543574E+02 -0.31160899160E+02 -0.59087877767E+03  0.64835367900E+03  0.26294264231E+03 0.  0.
         25    1    4    4    0    0 -0.30520012784E+02 -0.52258229479E+02 -0.28031907339E+03  0.31287167455E+03  0.12509000000E+03 0.  0.
         25    1    4    4    0    0 -0.28705307904E+01  0.21097330320E+02 -0.31055970428E+03  0.33548200446E+03  0.12509000000E+03 0.  0.
         25    1    3    3    0    0  0.33390543574E+02  0.31160899160E+02 -0.91087961162E+03  0.92056238518E+03  0.12509000000E+03 0.  0.
<mgrwt>
<rscale>  2 0.45411381E+03</rscale>
<asrwt>0</asrwt>
<pdfrwt beam="1">  1       21 0.49380643E-02 0.45411381E+03</pdfrwt>
<pdfrwt beam="2">  1       21 0.22578489E+00 0.45411381E+03</pdfrwt>
<totfact> 0.22292557E+04</totfact>
</mgrwt>
</event>
<event>
 7    0  0.4775379E-002  0.4479212E+03  0.7546771E-02  0.1028344E+00
         21   -1    0    0  502  501  0.00000000000E+00  0.00000000000E+00  0.83365225466E+03  0.83365225466E+03  0.00000000000E+00 0. -1.
         21   -1    0    0  501  502 -0.00000000000E+00 -0.00000000000E+00 -0.60166989865E+02  0.60166989865E+02  0.00000000000E+00 0. -1.
      99926    2    1    2    0    0  0.00000000000E+00  0.00000000000E+00  0.77348526480E+03  0.89381924453E+03  0.44792118395E+03 0.  0.
      99925    2    3    3    0    0 -0.78728519511E+02  0.31041924885E+02  0.61868363349E+03  0.67754896446E+03  0.26294748527E+03 0.  0.
         25    1    4    4    0    0 -0.47374334950E+02  0.36789519037E+02  0.23687602548E+03  0.27450966444E+03  0.12509000000E+03 0.  0.
         25    1    3    3    0    0  0.78728519511E+02 -0.31041924885E+02  0.15480163131E+03  0.21627028007E+03  0.12509000000E+03 0.  0.
         25    1    4    4    0    0 -0.31354184561E+02 -0.57475941520E+01  0.38180760800E+03  0.40303930002E+03  0.12509000000E+03 0.  0.
<mgrwt>
<rscale>  2 0.44792118E+03</rscale>
<asrwt>0</asrwt>
<pdfrwt beam="1">  1       21 0.12259591E+00 0.44792118E+03</pdfrwt>
<pdfrwt beam="2">  1       21 0.88480872E-02 0.44792118E+03</pdfrwt>
<totfact> 0.45998833E+04</totfact>
</mgrwt>
</event>
<event>
 7    0  0.4775379E-002  0.4467181E+03  0.7546771E-02  0.1028705E+00
         21   -1    0    0  502  501  0.00000000000E+00  0.00000000000E+00  0.12395963176E+03  0.12395963176E+03  0.00000000000E+00 0.  1.
         21   -1    0    0  501  502 -0.00000000000E+00 -0.00000000000E+00 -0.40246389460E+03  0.40246389460E+03  0.00000000000E+00 0.  1.
      99926    2    1    2    0    0  0.00000000000E+00  0.00000000000E+00 -0.27850426284E+03  0.52642352637E+03  0.44671814905E+03 0.  0.
      99925    2    3    3    0    0 -0.32798371231E+02  0.93689392523E+02 -0.13582246867E+03  0.31227629217E+03  0.26308801612E+03 0.  0.
         25    1    3    3    0    0  0.32798371231E+02 -0.93689392523E+02 -0.14268179417E+03  0.21414723420E+03  0.12509000000E+03 0.  0.
         25    1    4    4    0    0 -0.52568052460E+02  0.64926604906E+02 -0.60388103360E+02  0.16208977541E+03  0.12509000000E+03 0.  0.
         25    1    4    4    0    0  0.19769681229E+02  0.28762787617E+02 -0.75434365310E+02  0.15018651676E+03  0.12509000000E+03 0.  0.
<mgrwt>
<rscale>  2 0.44671815E+03</rscale>
<asrwt>0</asrwt>
<pdfrwt beam="1">  1       21 0.18229358E-01 0.44671815E+03</pdfrwt>
<pdfrwt beam="2">  1       21 0.59185867E-01 0.44671815E+03</pdfrwt>
<totfact> 0.67788179E+04</totfact>
</mgrwt>
</event>
<event>
 7    0  0.4775379E-002  0.4307754E+03  0.7546771E-02  0.1033615E+00
         21   -1    0    0  502  501  0.00000000000E+00  0.00000000000E+00  0.97242803458E+02  0.97242803458E+02  0.00000000000E+00 0. -1.
         21   -1    0    0  501  502 -0.00000000000E+00 -0.00000000000E+00 -0.47707237988E+03  0.47707237988E+03  0.00000000000E+00 0. -1.
      99926    2    1    2    0    0  0.17763568394E-14  0.00000000000E+00 -0.37982957643E+03  0.57431518334E+03  0.43077537382E+03 0.  0.
      99925    2    3    3    0    0  0.15338406526E+02 -0.69286537711E+02 -0.31659844152E+03  0.41721147383E+03  0.26228791374E+03 0.  0.
         25    1    3    3    0    0 -0.15338406526E+02  0.69286537711E+02 -0.63231134905E+02  0.15710370952E+03  0.12509000000E+03 0.  0.
         25    1    4    4    0    0 -0.24453602526E+02 -0.46056198584E+02 -0.12924270843E+03  0.18727076090E+03  0.12509000000E+03 0.  0.
         25    1    4    4    0    0  0.39792009052E+02 -0.23230339126E+02 -0.18735573309E+03  0.22994071293E+03  0.12509000000E+03 0.  0.
<mgrwt>
<rscale>  2 0.43077537E+03</rscale>
<asrwt>0</asrwt>
<pdfrwt beam="1">  1       21 0.14300412E-01 0.43077537E+03</pdfrwt>
<pdfrwt beam="2">  1       21 0.70157704E-01 0.43077537E+03</pdfrwt>
<totfact> 0.73360931E+04</totfact>
</mgrwt>
</event>
<event>
 7    0  0.4775379E-002  0.4184229E+03  0.7546771E-02  0.1037581E+00
         21   -1    0    0  502  501  0.00000000000E+00  0.00000000000E+00  0.73872047610E+02  0.73872047610E+02  0.00000000000E+00 0.  1.
         21   -1    0    0  501  502 -0.00000000000E+00 -0.00000000000E+00 -0.59250333783E+03  0.59250333783E+03  0.00000000000E+00 0.  1.
      99926    2    1    2    0    0  0.00000000000E+00  0.00000000000E+00 -0.51863129022E+03  0.66637538543E+03  0.41842291897E+03 0.  0.
      99925    2    3    3    0    0  0.58871231287E+02  0.37635090574E+02 -0.30104385683E+03  0.40584895457E+03  0.26306605305E+03 0.  0.
         25    1    3    3    0    0 -0.58871231287E+02 -0.37635090574E+02 -0.21758743338E+03  0.26052643087E+03  0.12509000000E+03 0.  0.
         25    1    4    4    0    0  0.63814539604E+02  0.29172904239E+02 -0.12894923009E+03  0.19286981580E+03  0.12509000000E+03 0.  0.
         25    1    4    4    0    0 -0.49433083168E+01  0.84621863342E+01 -0.17209462674E+03  0.21297913876E+03  0.12509000000E+03 0.  0.
<mgrwt>
<rscale>  2 0.41842292E+03</rscale>
<asrwt>0</asrwt>
<pdfrwt beam="1">  1       21 0.10863537E-01 0.41842292E+03</pdfrwt>
<pdfrwt beam="2">  1       21 0.87132843E-01 0.41842292E+03</pdfrwt>
<totfact> 0.73856072E+04</totfact>
</mgrwt>
</event>
<event>
 7    0  0.4775379E-002  0.4529897E+03  0.7546771E-02  0.1026834E+00
         21   -1    0    0  502  501  0.00000000000E+00  0.00000000000E+00  0.18073478567E+03  0.18073478567E+03  0.00000000000E+00 0. -1.
         21   -1    0    0  501  502 -0.00000000000E+00 -0.00000000000E+00 -0.28384087180E+03  0.28384087180E+03  0.00000000000E+00 0. -1.
      99926    2    1    2    0    0  0.71054273576E-14  0.00000000000E+00 -0.10310608613E+03  0.46457565747E+03  0.45298970906E+03 0.  0.
      99925    2    3    3    0    0 -0.37231064251E+02  0.53957410760E+02 -0.15746700689E+03  0.31324762924E+03  0.26273687340E+03 0.  0.
         25    1    3    3    0    0  0.37231064251E+02 -0.53957410760E+02  0.54360920758E+02  0.15132802823E+03  0.12509000000E+03 0.  0.
         25    1    4    4    0    0 -0.46472613796E+02  0.15094074484E+02 -0.11008050423E+03  0.17364550218E+03  0.12509000000E+03 0.  0.
         25    1    4    4    0    0  0.92415495448E+01  0.38863336276E+02 -0.47386502658E+02  0.13960212706E+03  0.12509000000E+03 0.  0.
<mgrwt>
<rscale>  2 0.45298971E+03</rscale>
<asrwt>0</asrwt>
<pdfrwt beam="1">  1       21 0.26578645E-01 0.45298971E+03</pdfrwt>
<pdfrwt beam="2">  1       21 0.41741304E-01 0.45298971E+03</pdfrwt>
<totfact> 0.68934302E+04</totfact>
</mgrwt>
</event>
<event>
 7    0  0.4775379E-002  0.4498293E+03  0.7546771E-02  0.1027773E+00
         21   -1    0    0  502  501  0.00000000000E+00  0.00000000000E+00  0.80925162101E+03  0.80925162101E+03  0.00000000000E+00 0.  1.
         21   -1    0    0  501  502 -0.00000000000E+00 -0.00000000000E+00 -0.62510342559E+02  0.62510342559E+02  0.00000000000E+00 0.  1.
      99926    2    1    2    0    0  0.00000000000E+00 -0.17763568394E-14  0.74674127845E+03  0.87176196357E+03  0.44982928338E+03 0.  0.
      99925    2    3    3    0    0 -0.70929427592E+02  0.11541175255E+02  0.31553226242E+03  0.41706106624E+03  0.26308770766E+03 0.  0.
         25    1    4    4    0    0 -0.19447382892E+02 -0.18487060526E+02  0.10748376897E+03  0.16709350915E+03  0.12509000000E+03 0.  0.
         25    1    4    4    0    0 -0.51482044700E+02  0.30028235781E+02  0.20804849346E+03  0.24996755710E+03  0.12509000000E+03 0.  0.
         25    1    3    3    0    0  0.70929427592E+02 -0.11541175255E+02  0.43120901603E+03  0.45470089733E+03  0.12509000000E+03 0.  0.
<mgrwt>
<rscale>  2 0.44982928E+03</rscale>
<asrwt>0</asrwt>
<pdfrwt beam="1">  1       21 0.11900758E+00 0.44982928E+03</pdfrwt>
<pdfrwt beam="2">  1       21 0.91926979E-02 0.44982928E+03</pdfrwt>
<totfact> 0.46325108E+04</totfact>
</mgrwt>
</event>
<event>
 7    0  0.4775379E-002  0.4422637E+03  0.7546771E-02  0.1030055E+00
         21   -1    0    0  502  501  0.00000000000E+00  0.00000000000E+00  0.10380418948E+03  0.10380418948E+03  0.00000000000E+00 0. -1.
         21   -1    0    0  501  502 -0.00000000000E+00 -0.00000000000E+00 -0.47107241086E+03  0.47107241086E+03  0.00000000000E+00 0. -1.
      99926    2    1    2    0    0  0.00000000000E+00  0.00000000000E+00 -0.36726822138E+03  0.57487660035E+03  0.44226367609E+03 0.  0.
      99925    2    3    3    0    0  0.74368371596E+02 -0.22146370350E+02 -0.31727922563E+03  0.41941752468E+03  0.26310423138E+03 0.  0.
         25    1    4    4    0    0 -0.26419907835E+01 -0.19557250290E+02 -0.13145493811E+03  0.18253047693E+03  0.12509000000E+03 0.  0.
         25    1    3    3    0    0 -0.74368371596E+02  0.22146370350E+02 -0.49988995746E+02  0.15545907567E+03  0.12509000000E+03 0.  0.
         25    1    4    4    0    0  0.77010362380E+02 -0.25891200596E+01 -0.18582428752E+03  0.23688704775E+03  0.12509000000E+03 0.  0.
<mgrwt>
<rscale>  2 0.44226368E+03</rscale>
<asrwt>0</asrwt>
<pdfrwt beam="1">  1       21 0.15265322E-01 0.44226368E+03</pdfrwt>
<pdfrwt beam="2">  1       21 0.69275353E-01 0.44226368E+03</pdfrwt>
<totfact> 0.66721201E+04</totfact>
</mgrwt>
</event>
<event>
 7    0  0.4775379E-002  0.4511263E+03  0.7546771E-02  0.1027387E+00
         21   -1    0    0  502  501  0.00000000000E+00  0.00000000000E+00  0.55950823563E+03  0.55950823563E+03  0.00000000000E+00 0. -1.
         21   -1    0    0  501  502 -0.00000000000E+00 -0.00000000000E+00 -0.90934738506E+02  0.90934738506E+02  0.00000000000E+00 0. -1.
      99926    2    1    2    0    0  0.71054273576E-14  0.00000000000E+00  0.46857349712E+03  0.65044297413E+03  0.45112630204E+03 0.  0.
      99925    2    3    3    0    0 -0.62170368469E+02 -0.57348006913E+02  0.19568866779E+03  0.33856545524E+03  0.26301818220E+03 0.  0.
         25    1    3    3    0    0  0.62170368469E+02  0.57348006913E+02  0.27288482933E+03  0.31187751890E+03  0.12509000000E+03 0.  0.
         25    1    4    4    0    0 -0.43978486306E+02 -0.68449883452E+02  0.11165798282E+03  0.18637195881E+03  0.12509000000E+03 0.  0.
         25    1    4    4    0    0 -0.18191882163E+02  0.11101876539E+02  0.84030684967E+02  0.15219349643E+03  0.12509000000E+03 0.  0.
<mgrwt>
<rscale>  2 0.45112630E+03</rscale>
<asrwt>0</asrwt>
<pdfrwt beam="1">  1       21 0.82280621E-01 0.45112630E+03</pdfrwt>
<pdfrwt beam="2">  1       21 0.13372756E-01 0.45112630E+03</pdfrwt>
<totfact> 0.57410310E+04</totfact>
</mgrwt>
</event>
<event>
 7    0  0.4775379E-002  0.4096746E+03  0.7546771E-02  0.1040480E+00
         21   -1    0    0  502  501  0.00000000000E+00  0.00000000000E+00  0.58260929773E+03  0.58260929773E+03  0.00000000000E+00 0.  1.
         21   -1    0    0  501  502 -0.00000000000E+00 -0.00000000000E+00 -0.72017923696E+02  0.72017923696E+02  0.00000000000E+00 0.  1.
      99926    2    1    2    0    0  0.00000000000E+00  0.00000000000E+00  0.51059137403E+03  0.65462722142E+03  0.40967456327E+03 0.  0.
      99925    2    3    3    0    0 -0.52278496514E+00  0.23716592665E+02  0.42808897407E+03  0.50291399138E+03  0.26286795721E+03 0.  0.
         25    1    4    4    0    0 -0.42216130625E+00 -0.14534812147E+02  0.15189125359E+03  0.19730661419E+03  0.12509000000E+03 0.  0.
         25    1    4    4    0    0 -0.10062365888E+00  0.38251404812E+02  0.27619772048E+03  0.30560737719E+03  0.12509000000E+03 0.  0.
         25    1    3    3    0    0  0.52278496514E+00 -0.23716592665E+02  0.82502399961E+02  0.15171323005E+03  0.12509000000E+03 0.  0.
<mgrwt>
<rscale>  2 0.40967456E+03</rscale>
<asrwt>0</asrwt>
<pdfrwt beam="1">  1       21 0.85677835E-01 0.40967456E+03</pdfrwt>
<pdfrwt beam="2">  1       21 0.10590871E-01 0.40967456E+03</pdfrwt>
<totfact> 0.80590820E+04</totfact>
</mgrwt>
</event>
<event>
 7    0  0.4775379E-002  0.4579913E+03  0.7546771E-02  0.1025365E+00
         21   -1    0    0  502  501  0.00000000000E+00  0.00000000000E+00  0.11429054812E+03  0.11429054812E+03  0.00000000000E+00 0. -1.
         21   -1    0    0  501  502 -0.00000000000E+00 -0.00000000000E+00 -0.45882198968E+03  0.45882198968E+03  0.00000000000E+00 0. -1.
      99926    2    1    2    0    0  0.00000000000E+00  0.00000000000E+00 -0.34453144156E+03  0.57311253779E+03  0.45799133917E+03 0.  0.
      99925    2    3    3    0    0  0.82437610096E+02  0.78992101663E+02 -0.19096103943E+03  0.34449257324E+03  0.26300818001E+03 0.  0.
         25    1    3    3    0    0 -0.82437610096E+02 -0.78992101663E+02 -0.15357040213E+03  0.22861996455E+03  0.12509000000E+03 0.  0.
         25    1    4    4    0    0  0.50570151706E+02  0.22624475846E+00 -0.79162354976E+02  0.15643394125E+03  0.12509000000E+03 0.  0.
         25    1    4    4    0    0  0.31867458390E+02  0.78765856904E+02 -0.11179868446E+03  0.18805863199E+03  0.12509000000E+03 0.  0.
<mgrwt>
<rscale>  2 0.45799134E+03</rscale>
<asrwt>0</asrwt>
<pdfrwt beam="1">  1       21 0.16807434E-01 0.45799134E+03</pdfrwt>
<pdfrwt beam="2">  1       21 0.67473821E-01 0.45799134E+03</pdfrwt>
<totfact> 0.58957594E+04</totfact>
</mgrwt>
</event>
<event>
 7    0  0.4775379E-002  0.4527150E+03  0.7546771E-02  0.1026915E+00
         21   -1    0    0  502  501  0.00000000000E+00  0.00000000000E+00  0.10120720394E+03  0.10120720394E+03  0.00000000000E+00 0.  1.
         21   -1    0    0  501  502 -0.00000000000E+00 -0.00000000000E+00 -0.50626558470E+03  0.50626558470E+03  0.00000000000E+00 0.  1.
      99926    2    1    2    0    0  0.00000000000E+00  0.00000000000E+00 -0.40505838076E+03  0.60747278864E+03  0.45271502860E+03 0.  0.
      99925    2    3    3    0    0  0.10882025123E+02 -0.10839684358E+03 -0.28391487782E+03  0.40206696941E+03  0.26302451573E+03 0.  0.
         25    1    4    4    0    0 -0.34743874968E+02 -0.58448959700E+02 -0.14752397260E+03  0.20502255566E+03  0.12509000000E+03 0.  0.
         25    1    4    4    0    0  0.45625900092E+02 -0.49947883884E+02 -0.13639090522E+03  0.19704441375E+03  0.12509000000E+03 0.  0.
         25    1    3    3    0    0 -0.10882025123E+02  0.10839684358E+03 -0.12114350294E+03  0.20540581923E+03  0.12509000000E+03 0.  0.
<mgrwt>
<rscale>  2 0.45271503E+03</rscale>
<asrwt>0</asrwt>
<pdfrwt beam="1">  1       21 0.14883413E-01 0.45271503E+03</pdfrwt>
<pdfrwt beam="2">  1       21 0.74450820E-01 0.45271503E+03</pdfrwt>
<totfact> 0.59283482E+04</totfact>
</mgrwt>
</event>
<event>
 7    0  0.4775379E-002  0.4593459E+03  0.7546771E-02  0.1024971E+00
         21   -1    0    0  502  501  0.00000000000E+00  0.00000000000E+00  0.12482424029E+03  0.12482424029E+03  0.00000000000E+00 0. -1.
         21   -1    0    0  501  502 -0.00000000000E+00 -0.00000000000E+00 -0.42259144301E+03  0.42259144301E+03  0.00000000000E+00 0. -1.
      99926    2    1    2    0    0  0.00000000000E+00  0.00000000000E+00 -0.29776720273E+03  0.54741568330E+03  0.45934586458E+03 0.  0.
      99925    2    3    3    0    0 -0.11086082157E+03  0.37801786803E+02 -0.19007235847E+03  0.34501809333E+03  0.26304160589E+03 0.  0.
         25    1    4    4    0    0 -0.40800896540E+02  0.20688307276E+02 -0.13729054253E+03  0.19128230547E+03  0.12509000000E+03 0.  0.
         25    1    3    3    0    0  0.11086082157E+03 -0.37801786803E+02 -0.10769484426E+03  0.20239758997E+03  0.12509000000E+03 0.  0.
         25    1    4    4    0    0 -0.70059925031E+02  0.17113479527E+02 -0.52781815933E+02  0.15373578786E+03  0.12509000000E+03 0.  0.
<mgrwt>
<rscale>  2 0.45934586E+03</rscale>
<asrwt>0</asrwt>
<pdfrwt beam="1">  1       21 0.18356505E-01 0.45934586E+03</pdfrwt>
<pdfrwt beam="2">  1       21 0.62145802E-01 0.45934586E+03</pdfrwt>
<totfact> 0.59949398E+04</totfact>
</mgrwt>
</event>
<event>
 7    0  0.4775379E-002  0.4546429E+03  0.7546771E-02  0.1026346E+00
         21   -1    0    0  502  501  0.00000000000E+00  0.00000000000E+00  0.58092786711E+02  0.58092786711E+02  0.00000000000E+00 0. -1.
         21   -1    0    0  501  502 -0.00000000000E+00 -0.00000000000E+00 -0.88952590191E+03  0.88952590191E+03  0.00000000000E+00 0. -1.
      99926    2    1    2    0    0  0.00000000000E+00  0.00000000000E+00 -0.83143311520E+03  0.94761868862E+03  0.45464288620E+03 0.  0.
      99925    2    3    3    0    0  0.11105766916E+03  0.16140740841E+02 -0.53957869080E+03  0.61083857856E+03  0.26340895219E+03 0.  0.
         25    1    3    3    0    0 -0.11105766916E+03 -0.16140740841E+02 -0.29185442440E+03  0.33678011006E+03  0.12509000000E+03 0.  0.
         25    1    4    4    0    0  0.59124533981E+02 -0.28922592941E+01 -0.35567977318E+03  0.38165388093E+03  0.12509000000E+03 0.  0.
         25    1    4    4    0    0  0.51933135174E+02  0.19033000135E+02 -0.18389891762E+03  0.22918469762E+03  0.12509000000E+03 0.  0.
<mgrwt>
<rscale>  2 0.45464289E+03</rscale>
<asrwt>0</asrwt>
<pdfrwt beam="1">  1       21 0.85430571E-02 0.45464289E+03</pdfrwt>
<pdfrwt beam="2">  1       21 0.13081263E+00 0.45464289E+03</pdfrwt>
<totfact> 0.41352742E+04</totfact>
</mgrwt>
</event>
<event>
 7    0  0.4775379E-002  0.4532831E+03  0.7546771E-02  0.1026747E+00
         21   -1    0    0  502  501  0.00000000000E+00  0.00000000000E+00  0.10635388031E+04  0.10635388031E+04  0.00000000000E+00 0.  1.
         21   -1    0    0  501  502 -0.00000000000E+00 -0.00000000000E+00 -0.48297625800E+02  0.48297625800E+02  0.00000000000E+00 0.  1.
      99926    2    1    2    0    0  0.71054273576E-14  0.00000000000E+00  0.10152411773E+04  0.11118364289E+04  0.45328313066E+03 0.  0.
      99925    2    3    3    0    0  0.50130866737E+02  0.98173330376E+02  0.59970683076E+03  0.66410056050E+03  0.26311625757E+03 0.  0.
         25    1    3    3    0    0 -0.50130866737E+02 -0.98173330376E+02  0.41553434652E+03  0.44773586838E+03  0.12509000000E+03 0.  0.
         25    1    4    4    0    0  0.38242629526E+02  0.25668990634E+02  0.36032015800E+03  0.38418682975E+03  0.12509000000E+03 0.  0.
         25    1    4    4    0    0  0.11888237211E+02  0.72504339742E+02  0.23938667276E+03  0.27991373074E+03  0.12509000000E+03 0.  0.
<mgrwt>
<rscale>  2 0.45328313E+03</rscale>
<asrwt>0</asrwt>
<pdfrwt beam="1">  1       21 0.15640275E+00 0.45328313E+03</pdfrwt>
<pdfrwt beam="2">  1       21 0.71025927E-02 0.45328313E+03</pdfrwt>
<totfact> 0.35555928E+04</totfact>
</mgrwt>
</event>
<event>
 7    0  0.4775379E-002  0.4208593E+03  0.7546771E-02  0.1036787E+00
         21   -1    0    0  502  501  0.00000000000E+00  0.00000000000E+00  0.30617351061E+03  0.30617351061E+03  0.00000000000E+00 0. -1.
         21   -1    0    0  501  502 -0.00000000000E+00 -0.00000000000E+00 -0.14462593758E+03  0.14462593758E+03  0.00000000000E+00 0. -1.
      99926    2    1    2    0    0  0.00000000000E+00  0.00000000000E+00  0.16154757303E+03  0.45079944819E+03  0.42085926880E+03 0.  0.
      99925    2    3    3    0    0  0.64291502757E+02 -0.41624315849E+02  0.11256564645E+03  0.29616207163E+03  0.26301134370E+03 0.  0.
         25    1    3    3    0    0 -0.64291502757E+02  0.41624315849E+02  0.48981926589E+02  0.15463737656E+03  0.12509000000E+03 0.  0.
         25    1    4    4    0    0  0.54176365541E+02 -0.14894050234E+02  0.21468942020E+02  0.13879962135E+03  0.12509000000E+03 0.  0.
         25    1    4    4    0    0  0.10115137216E+02 -0.26730265615E+02  0.91096704425E+02  0.15736245028E+03  0.12509000000E+03 0.  0.
<mgrwt>
<rscale>  2 0.42085927E+03</rscale>
<asrwt>0</asrwt>
<pdfrwt beam="1">  1       21 0.45025516E-01 0.42085927E+03</pdfrwt>
<pdfrwt beam="2">  1       21 0.21268520E-01 0.42085927E+03</pdfrwt>
<totfact> 0.91206003E+04</totfact>
</mgrwt>
</event>
<event>
 7    0  0.4775379E-002  0.4488330E+03  0.7546771E-02  0.1028071E+00
         21   -1    0    0  502  501  0.00000000000E+00  0.00000000000E+00  0.13349037133E+03  0.13349037133E+03  0.00000000000E+00 0.  1.
         21   -1    0    0  501  502 -0.00000000000E+00 -0.00000000000E+00 -0.37727634366E+03  0.37727634366E+03  0.00000000000E+00 0.  1.
      99926    2    1    2    0    0 -0.53290705182E-14  0.00000000000E+00 -0.24378597233E+03  0.51076671499E+03  0.44883297209E+03 0.  0.
      99925    2    3    3    0    0 -0.15717379116E+02  0.16177704979E+02 -0.35550351655E+02  0.26680291447E+03  0.26346007956E+03 0.  0.
         25    1    4    4    0    0  0.32112153408E+02 -0.27152613700E+01 -0.17016283561E+02  0.13029054090E+03  0.12509000000E+03 0.  0.
         25    1    4    4    0    0 -0.47829532524E+02  0.18892966349E+02 -0.18534068094E+02  0.13651237358E+03  0.12509000000E+03 0.  0.
         25    1    3    3    0    0  0.15717379116E+02 -0.16177704979E+02 -0.20823562067E+03  0.24396380052E+03  0.12509000000E+03 0.  0.
<mgrwt>
<rscale>  2 0.44883297E+03</rscale>
<asrwt>0</asrwt>
<pdfrwt beam="1">  1       21 0.19630937E-01 0.44883297E+03</pdfrwt>
<pdfrwt beam="2">  1       21 0.55481814E-01 0.44883297E+03</pdfrwt>
<totfact> 0.67777264E+04</totfact>
</mgrwt>
</event>
<event>
 7    0  0.4775379E-002  0.4515021E+03  0.7546771E-02  0.1027275E+00
         21   -1    0    0  502  501  0.00000000000E+00  0.00000000000E+00  0.10320429669E+03  0.10320429669E+03  0.00000000000E+00 0. -1.
         21   -1    0    0  501  502 -0.00000000000E+00 -0.00000000000E+00 -0.49381223022E+03  0.49381223022E+03  0.00000000000E+00 0. -1.
      99926    2    1    2    0    0  0.00000000000E+00  0.00000000000E+00 -0.39060793353E+03  0.59701652691E+03  0.45150213252E+03 0.  0.
      99925    2    3    3    0    0 -0.44133281818E+02  0.34170726360E+02 -0.37160723492E+03  0.45872726575E+03  0.26310336788E+03 0.  0.
         25    1    4    4    0    0 -0.62915717409E+02  0.22976537126E+02 -0.20162740870E+03  0.24655106732E+03  0.12509000000E+03 0.  0.
         25    1    4    4    0    0  0.18782435590E+02  0.11194189235E+02 -0.16997982622E+03  0.21217619843E+03  0.12509000000E+03 0.  0.
         25    1    3    3    0    0  0.44133281818E+02 -0.34170726360E+02 -0.19000698603E+02  0.13828926116E+03  0.12509000000E+03 0.  0.
<mgrwt>
<rscale>  2 0.45150213E+03</rscale>
<asrwt>0</asrwt>
<pdfrwt beam="1">  1       21 0.15177103E-01 0.45150213E+03</pdfrwt>
<pdfrwt beam="2">  1       21 0.72619445E-01 0.45150213E+03</pdfrwt>
<totfact> 0.60517697E+04</totfact>
</mgrwt>
</event>
<event>
 7    0  0.4775379E-002  0.4525584E+03  0.7546771E-02  0.1026962E+00
         21   -1    0    0  502  501  0.00000000000E+00  0.00000000000E+00  0.15569912943E+03  0.15569912943E+03  0.00000000000E+00 0.  1.
         21   -1    0    0  501  502 -0.00000000000E+00 -0.00000000000E+00 -0.32885395774E+03  0.32885395774E+03  0.00000000000E+00 0.  1.
      99926    2    1    2    0    0  0.00000000000E+00  0.00000000000E+00 -0.17315482831E+03  0.48455308717E+03  0.45255839371E+03 0.  0.
      99925    2    3    3    0    0  0.29541991120E+02 -0.37010193829E+02 -0.20193277980E+01  0.26734960809E+03  0.26311452179E+03 0.  0.
         25    1    4    4    0    0  0.31290203502E+02 -0.52266134036E+02 -0.18069610985E+02  0.14030268901E+03  0.12509000000E+03 0.  0.
         25    1    3    3    0    0 -0.29541991120E+02  0.37010193829E+02 -0.17113550051E+03  0.21720347908E+03  0.12509000000E+03 0.  0.
         25    1    4    4    0    0 -0.17482123822E+01  0.15255940207E+02  0.16050283187E+02  0.12704691908E+03  0.12509000000E+03 0.  0.
<mgrwt>
<rscale>  2 0.45255839E+03</rscale>
<asrwt>0</asrwt>
<pdfrwt beam="1">  1       21 0.22896931E-01 0.45255839E+03</pdfrwt>
<pdfrwt beam="2">  1       21 0.48360876E-01 0.45255839E+03</pdfrwt>
<totfact> 0.67672321E+04</totfact>
</mgrwt>
</event>
<event>
 7    0  0.4775379E-002  0.4538446E+03  0.7546771E-02  0.1026582E+00
         21   -1    0    0  502  501  0.00000000000E+00  0.00000000000E+00  0.54503937268E+03  0.54503937268E+03  0.00000000000E+00 0.  1.
         21   -1    0    0  501  502 -0.00000000000E+00 -0.00000000000E+00 -0.94477089154E+02  0.94477089154E+02  0.00000000000E+00 0.  1.
      99926    2    1    2    0    0  0.00000000000E+00  0.71054273576E-14  0.45056228352E+03  0.63951646183E+03  0.45384461396E+03 0.  0.
      99925    2    3    3    0    0 -0.97020289035E+02 -0.54435453204E+02  0.30252281923E+03  0.41604533139E+03  0.26305418942E+03 0.  0.
         25    1    4    4    0    0 -0.49330901905E+02  0.10688254303E+02  0.16750872364E+03  0.21506849434E+03  0.12509000000E+03 0.  0.
         25    1    4    4    0    0 -0.47689387130E+02 -0.65123707508E+02  0.13501409558E+03  0.20097683705E+03  0.12509000000E+03 0.  0.
         25    1    3    3    0    0  0.97020289035E+02  0.54435453204E+02  0.14803946430E+03  0.22347113044E+03  0.12509000000E+03 0.  0.
<mgrwt>
<rscale>  2 0.45384461E+03</rscale>
<asrwt>0</asrwt>
<pdfrwt beam="1">  1       21 0.80152848E-01 0.45384461E+03</pdfrwt>
<pdfrwt beam="2">  1       21 0.13893690E-01 0.45384461E+03</pdfrwt>
<totfact> 0.56825880E+04</totfact>
</mgrwt>
</event>
<event>
 7    0  0.4775379E-002  0.4553757E+03  0.7546771E-02  0.1026131E+00
         21   -1    0    0  502  501  0.00000000000E+00  0.00000000000E+00  0.19335844416E+04  0.19335844416E+04  0.00000000000E+00 0. -1.
         21   -1    0    0  501  502 -0.00000000000E+00 -0.00000000000E+00 -0.26811216245E+02  0.26811216245E+02  0.00000000000E+00 0. -1.
      99926    2    1    2    0    0  0.14210854715E-13  0.00000000000E+00  0.19067732253E+04  0.19603956578E+04  0.45537567169E+03 0.  0.
      99925    2    3    3    0    0  0.11200497595E+03 -0.16404260532E+02  0.12227557439E+04  0.12558804788E+04  0.26322984919E+03 0.  0.
         25    1    3    3    0    0 -0.11200497595E+03  0.16404260532E+02  0.68401748146E+03  0.70451517900E+03  0.12509000000E+03 0.  0.
         25    1    4    4    0    0  0.28304012161E+02  0.24493887429E+02  0.55756055919E+03  0.57264504966E+03  0.12509000000E+03 0.  0.
         25    1    4    4    0    0  0.83700963794E+02 -0.40898147961E+02  0.66519518468E+03  0.68323542916E+03  0.12509000000E+03 0.  0.
<mgrwt>
<rscale>  2 0.45537567E+03</rscale>
<asrwt>0</asrwt>
<pdfrwt beam="1">  1       21 0.28435056E+00 0.45537567E+03</pdfrwt>
<pdfrwt beam="2">  1       21 0.39428272E-02 0.45537567E+03</pdfrwt>
<totfact> 0.14325631E+04</totfact>
</mgrwt>
</event>
<event>
 7    0  0.4775379E-002  0.4666758E+03  0.7546771E-02  0.1022863E+00
         21   -1    0    0  502  501  0.00000000000E+00  0.00000000000E+00  0.10119522285E+04  0.10119522285E+04  0.00000000000E+00 0.  1.
         21   -1    0    0  501  502 -0.00000000000E+00 -0.00000000000E+00 -0.53803502861E+02  0.53803502861E+02  0.00000000000E+00 0.  1.
      99926    2    1    2    0    0  0.00000000000E+00  0.00000000000E+00  0.95814872565E+03  0.10657557314E+04  0.46667579591E+03 0.  0.
      99925    2    3    3    0    0  0.73089352902E+02  0.57114183896E+02  0.78410813128E+03  0.83221404323E+03  0.26296495718E+03 0.  0.
         25    1    3    3    0    0 -0.73089352902E+02 -0.57114183896E+02  0.17404059437E+03  0.23354168814E+03  0.12509000000E+03 0.  0.
         25    1    4    4    0    0  0.15252683028E+02 -0.59357343302E+01  0.39388360721E+03  0.41359361868E+03  0.12509000000E+03 0.  0.
         25    1    4    4    0    0  0.57836669873E+02  0.63049918226E+02  0.39022452406E+03  0.41862042455E+03  0.12509000000E+03 0.  0.
<mgrwt>
<rscale>  2 0.46667580E+03</rscale>
<asrwt>0</asrwt>
<pdfrwt beam="1">  1       21 0.14881649E+00 0.46667580E+03</pdfrwt>
<pdfrwt beam="2">  1       21 0.79122805E-02 0.46667580E+03</pdfrwt>
<totfact> 0.33542354E+04</totfact>
</mgrwt>
</event>
<event>
 7    0  0.4775379E-002  0.4509043E+03  0.7546771E-02  0.1027453E+00
         21   -1    0    0  502  501  0.00000000000E+00  0.00000000000E+00  0.13700756885E+04  0.13700756885E+04  0.00000000000E+00 0. -1.
         21   -1    0    0  501  502 -0.00000000000E+00 -0.00000000000E+00 -0.37099171060E+02  0.37099171060E+02  0.00000000000E+00 0. -1.
      99926    2    1    2    0    0  0.00000000000E+00  0.17763568394E-14  0.13329765175E+04  0.14071748596E+04  0.45090430175E+03 0.  0.
      99925    2    3    3    0    0 -0.51117839212E+02 -0.13823469072E+02  0.54339287782E+03  0.60599201286E+03  0.26295698927E+03 0.  0.
         25    1    4    4    0    0 -0.61980367323E+01 -0.30323108105E+02  0.20594867650E+03  0.24294088169E+03  0.12509000000E+03 0.  0.
         25    1    3    3    0    0  0.51117839212E+02  0.13823469072E+02  0.78958363964E+03  0.80118284672E+03  0.12509000000E+03 0.  0.
         25    1    4    4    0    0 -0.44919802480E+02  0.16499639032E+02  0.33744420131E+03  0.36305113117E+03  0.12509000000E+03 0.  0.
<mgrwt>
<rscale>  2 0.45090430E+03</rscale>
<asrwt>0</asrwt>
<pdfrwt beam="1">  1       21 0.20148168E+00 0.45090430E+03</pdfrwt>
<pdfrwt beam="2">  1       21 0.54557614E-02 0.45090430E+03</pdfrwt>
<totfact> 0.26990307E+04</totfact>
</mgrwt>
</event>
<event>
 7    0  0.4775379E-002  0.4556550E+03  0.7546771E-02  0.1026049E+00
         21   -1    0    0  502  501  0.00000000000E+00  0.00000000000E+00  0.76576254679E+03  0.76576254679E+03  0.00000000000E+00 0. -1.
         21   -1    0    0  501  502 -0.00000000000E+00 -0.00000000000E+00 -0.67782580780E+02  0.67782580780E+02  0.00000000000E+00 0. -1.
      99926    2    1    2    0    0  0.00000000000E+00 -0.26645352591E-14  0.69797996601E+03  0.83354512757E+03  0.45565496458E+03 0.  0.
      99925    2    3    3    0    0  0.37716775559E+02  0.77268497703E+01  0.24317647958E+03  0.36028412270E+03  0.26303533884E+03 0.  0.
         25    1    4    4    0    0  0.48569603559E+01  0.41112707727E+02  0.13182646555E+03  0.18638554107E+03  0.12509000000E+03 0.  0.
         25    1    4    4    0    0  0.32859815204E+02 -0.33385857957E+02  0.11135001403E+03  0.17389858162E+03  0.12509000000E+03 0.  0.
         25    1    3    3    0    0 -0.37716775559E+02 -0.77268497703E+01  0.45480348643E+03  0.47326100487E+03  0.12509000000E+03 0.  0.
<mgrwt>
<rscale>  2 0.45565496E+03</rscale>
<asrwt>0</asrwt>
<pdfrwt beam="1">  1       21 0.11261213E+00 0.45565496E+03</pdfrwt>
<pdfrwt beam="2">  1       21 0.99680270E-02 0.45565496E+03</pdfrwt>
<totfact> 0.45948102E+04</totfact>
</mgrwt>
</event>
<event>
 7    0  0.4775379E-002  0.4547490E+03  0.7546771E-02  0.1026315E+00
         21   -1    0    0  502  501  0.00000000000E+00  0.00000000000E+00  0.13170761924E+03  0.13170761924E+03  0.00000000000E+00 0. -1.
         21   -1    0    0  501  502 -0.00000000000E+00 -0.00000000000E+00 -0.39252970577E+03  0.39252970577E+03  0.00000000000E+00 0. -1.
      99926    2    1    2    0    0  0.00000000000E+00  0.00000000000E+00 -0.26082208652E+03  0.52423732501E+03  0.45474895505E+03 0.  0.
      99925    2    3    3    0    0 -0.96268761336E+02 -0.16053287774E+02 -0.22965813687E+03  0.36254600702E+03  0.26300449600E+03 0.  0.
         25    1    4    4    0    0 -0.77906168879E+02 -0.19820929587E+02 -0.88625263774E+02  0.17310166342E+03  0.12509000000E+03 0.  0.
         25    1    3    3    0    0  0.96268761336E+02  0.16053287774E+02 -0.31163949650E+02  0.16169131800E+03  0.12509000000E+03 0.  0.
         25    1    4    4    0    0 -0.18362592457E+02  0.37676418137E+01 -0.14103287310E+03  0.18944434360E+03  0.12509000000E+03 0.  0.
<mgrwt>
<rscale>  2 0.45474896E+03</rscale>
<asrwt>0</asrwt>
<pdfrwt beam="1">  1       21 0.19368768E-01 0.45474896E+03</pdfrwt>
<pdfrwt beam="2">  1       21 0.57724956E-01 0.45474896E+03</pdfrwt>
<totfact> 0.63725018E+04</totfact>
</mgrwt>
</event>
<event>
 7    0  0.4775379E-002  0.4580354E+03  0.7546771E-02  0.1025353E+00
         21   -1    0    0  502  501  0.00000000000E+00  0.00000000000E+00  0.15169919793E+03  0.15169919793E+03  0.00000000000E+00 0.  1.
         21   -1    0    0  501  502 -0.00000000000E+00 -0.00000000000E+00 -0.34574418413E+03  0.34574418413E+03  0.00000000000E+00 0.  1.
      99926    2    1    2    0    0 -0.71054273576E-14  0.00000000000E+00 -0.19404498620E+03  0.49744338207E+03  0.45803543716E+03 0.  0.
      99925    2    3    3    0    0 -0.33574259165E+02 -0.50452657172E+02 -0.22918631388E+03  0.35407280452E+03  0.26299901699E+03 0.  0.
         25    1    3    3    0    0  0.33574259165E+02  0.50452657172E+02  0.35141327680E+02  0.14337057754E+03  0.12509000000E+03 0.  0.
         25    1    4    4    0    0 -0.28895934504E+02  0.31007084657E+00 -0.73422887914E+02  0.14789692270E+03  0.12509000000E+03 0.  0.
         25    1    4    4    0    0 -0.46783246614E+01 -0.50762728018E+02 -0.15576342596E+03  0.20617588182E+03  0.12509000000E+03 0.  0.
<mgrwt>
<rscale>  2 0.45803544E+03</rscale>
<asrwt>0</asrwt>
<pdfrwt beam="1">  1       21 0.22308706E-01 0.45803544E+03</pdfrwt>
<pdfrwt beam="2">  1       21 0.50844732E-01 0.45803544E+03</pdfrwt>
<totfact> 0.63896997E+04</totfact>
</mgrwt>
</event>
<event>
 7    0  0.4775379E-002  0.4708675E+03  0.7546771E-02  0.1021676E+00
         21   -1    0    0  502  501  0.00000000000E+00  0.00000000000E+00  0.16804505842E+03  0.16804505842E+03  0.00000000000E+00 0. -1.
         21   -1    0    0  501  502 -0.00000000000E+00 -0.00000000000E+00 -0.32984628969E+03  0.32984628969E+03  0.00000000000E+00 0. -1.
      99926    2    1    2    0    0  0.00000000000E+00  0.00000000000E+00 -0.16180123127E+03  0.49789134811E+03  0.47086745065E+03 0.  0.
      99925    2    3    3    0    0  0.30929418716E+02 -0.89233203574E+02 -0.19092412158E+03  0.33847100937E+03  0.26304260191E+03 0.  0.
         25    1    3    3    0    0 -0.30929418716E+02  0.89233203574E+02  0.29122890315E+02  0.15942033874E+03  0.12509000000E+03 0.  0.
         25    1    4    4    0    0  0.52212982473E+02 -0.62323867015E+02 -0.91213087223E+02  0.17486507747E+03  0.12509000000E+03 0.  0.
         25    1    4    4    0    0 -0.21283563757E+02 -0.26909336559E+02 -0.99711034358E+02  0.16360593190E+03  0.12509000000E+03 0.  0.
<mgrwt>
<rscale>  2 0.47086745E+03</rscale>
<asrwt>0</asrwt>
<pdfrwt beam="1">  1       21 0.24712509E-01 0.47086745E+03</pdfrwt>
<pdfrwt beam="2">  1       21 0.48506807E-01 0.47086745E+03</pdfrwt>
<totfact> 0.57789411E+04</totfact>
</mgrwt>
</event>
<event>
 7    0  0.4775379E-002  0.4568348E+03  0.7546771E-02  0.1025703E+00
         21   -1    0    0  502  501  0.00000000000E+00  0.00000000000E+00  0.23393978274E+03  0.23393978274E+03  0.00000000000E+00 0.  1.
         21   -1    0    0  501  502 -0.00000000000E+00 -0.00000000000E+00 -0.22302538013E+03  0.22302538013E+03  0.00000000000E+00 0.  1.
      99926    2    1    2    0    0  0.14210854715E-13  0.71054273576E-14  0.10914402613E+02  0.45696516287E+03  0.45683480153E+03 0.  0.
      99925    2    3    3    0    0  0.10201625136E+03  0.50806431214E+02  0.21818177497E+02  0.28739214202E+03  0.26292508711E+03 0.  0.
         25    1    3    3    0    0 -0.10201625136E+03 -0.50806431214E+02 -0.10903774884E+02  0.16957302085E+03  0.12509000000E+03 0.  0.
         25    1    4    4    0    0  0.93697866901E+02  0.20941649547E+02  0.11657959910E+02  0.15811786451E+03  0.12509000000E+03 0.  0.
         25    1    4    4    0    0  0.83183844545E+01  0.29864781667E+02  0.10160217587E+02  0.12927427751E+03  0.12509000000E+03 0.  0.
<mgrwt>
<rscale>  2 0.45683480E+03</rscale>
<asrwt>0</asrwt>
<pdfrwt beam="1">  1       21 0.34402910E-01 0.45683480E+03</pdfrwt>
<pdfrwt beam="2">  1       21 0.32797850E-01 0.45683480E+03</pdfrwt>
<totfact> 0.67409789E+04</totfact>
</mgrwt>
</event>
<event>
 7    0  0.4775379E-002  0.4566118E+03  0.7546771E-02  0.1025769E+00
         21   -1    0    0  502  501  0.00000000000E+00  0.00000000000E+00  0.21987146274E+04  0.21987146274E+04  0.00000000000E+00 0.  1.
         21   -1    0    0  501  502 -0.00000000000E+00 -0.00000000000E+00 -0.23706384050E+02  0.23706384050E+02  0.00000000000E+00 0.  1.
      99926    2    1    2    0    0  0.14210854715E-13  0.71054273576E-14  0.21750082433E+04  0.22224210114E+04  0.45661175356E+03 0.  0.
      99925    2    3    3    0    0  0.10266530129E+03  0.46307407165E+02  0.12588760697E+04  0.12909543143E+04  0.26288693941E+03 0.  0.
         25    1    3    3    0    0 -0.10266530129E+03 -0.46307407165E+02  0.91613217366E+03  0.93146669707E+03  0.12509000000E+03 0.  0.
         25    1    4    4    0    0  0.21499067149E+02  0.35288270872E+01  0.46268741104E+03  0.47979350865E+03  0.12509000000E+03 0.  0.
         25    1    4    4    0    0  0.81166234139E+02  0.42778580078E+02  0.79618865862E+03  0.81116080569E+03  0.12509000000E+03 0.  0.
<mgrwt>
<rscale>  2 0.45661175E+03</rscale>
<asrwt>0</asrwt>
<pdfrwt beam="1">  1       21 0.32334025E+00 0.45661175E+03</pdfrwt>
<pdfrwt beam="2">  1       21 0.34862345E-02 0.45661175E+03</pdfrwt>
<totfact> 0.10277269E+04</totfact>
</mgrwt>
</event>
<event>
 7    0  0.4775379E-002  0.4560156E+03  0.7546771E-02  0.1025943E+00
         21   -1    0    0  502  501  0.00000000000E+00  0.00000000000E+00  0.10602803596E+03  0.10602803596E+03  0.00000000000E+00 0.  1.
         21   -1    0    0  501  502 -0.00000000000E+00 -0.00000000000E+00 -0.49031892477E+03  0.49031892477E+03  0.00000000000E+00 0.  1.
      99926    2    1    2    0    0 -0.71054273576E-14  0.00000000000E+00 -0.38429088881E+03  0.59634696074E+03  0.45601558127E+03 0.  0.
      99925    2    3    3    0    0 -0.46624872757E+02 -0.10399525929E+03 -0.23539557370E+03  0.37094461897E+03  0.26305881758E+03 0.  0.
         25    1    3    3    0    0  0.46624872757E+02  0.10399525929E+03 -0.14889531510E+03  0.22540234177E+03  0.12509000000E+03 0.  0.
         25    1    4    4    0    0 -0.70773215396E-01 -0.38829049303E+02 -0.15183576827E+03  0.20052258902E+03  0.12509000000E+03 0.  0.
         25    1    4    4    0    0 -0.46554099542E+02 -0.65166209992E+02 -0.83559805432E+02  0.17042202995E+03  0.12509000000E+03 0.  0.
<mgrwt>
<rscale>  2 0.45601558E+03</rscale>
<asrwt>0</asrwt>
<pdfrwt beam="1">  1       21 0.15592358E-01 0.45601558E+03</pdfrwt>
<pdfrwt beam="2">  1       21 0.72105724E-01 0.45601558E+03</pdfrwt>
<totfact> 0.58433330E+04</totfact>
</mgrwt>
</event>
<event>
 7    0  0.4775379E-002  0.4548842E+03  0.7546771E-02  0.1026275E+00
         21   -1    0    0  502  501  0.00000000000E+00  0.00000000000E+00  0.28057060001E+03  0.28057060001E+03  0.00000000000E+00 0. -1.
         21   -1    0    0  501  502 -0.00000000000E+00 -0.00000000000E+00 -0.18437391787E+03  0.18437391787E+03  0.00000000000E+00 0. -1.
      99926    2    1    2    0    0  0.00000000000E+00 -0.35527136788E-14  0.96196682141E+02  0.46494451788E+03  0.45488416443E+03 0.  0.
      99925    2    3    3    0    0  0.10039239333E+03 -0.28699259112E+02  0.16461216143E+02  0.28354018290E+03  0.26310032986E+03 0.  0.
         25    1    3    3    0    0 -0.10039239333E+03  0.28699259112E+02  0.79735465997E+02  0.18140433498E+03  0.12509000000E+03 0.  0.
         25    1    4    4    0    0  0.78714761395E+02 -0.36478243456E+02 -0.13620483819E+02  0.15283880916E+03  0.12509000000E+03 0.  0.
         25    1    4    4    0    0  0.21677631932E+02  0.77789843441E+01  0.30081699962E+02  0.13070137374E+03  0.12509000000E+03 0.  0.
<mgrwt>
<rscale>  2 0.45488416E+03</rscale>
<asrwt>0</asrwt>
<pdfrwt beam="1">  1       21 0.41260383E-01 0.45488416E+03</pdfrwt>
<pdfrwt beam="2">  1       21 0.27113811E-01 0.45488416E+03</pdfrwt>
<totfact> 0.67876598E+04</totfact>
</mgrwt>
</event>
<event>
 7    0  0.4775379E-002  0.4703801E+03  0.7546771E-02  0.1021813E+00
         21   -1    0    0  502  501  0.00000000000E+00  0.00000000000E+00  0.34679168249E+03  0.34679168249E+03  0.00000000000E+00 0. -1.
         21   -1    0    0  501  502 -0.00000000000E+00 -0.00000000000E+00 -0.15950311968E+03  0.15950311968E+03  0.00000000000E+00 0. -1.
      99926    2    1    2    0    0  0.00000000000E+00  0.14210854715E-13  0.18728856280E+03  0.50629480217E+03  0.47038008137E+03 0.  0.
      99925    2    3    3    0    0 -0.68896651930E+02 -0.98847095870E+02  0.72808809062E+02  0.29827889142E+03  0.26296706520E+03 0.  0.
         25    1    3    3    0    0  0.68896651930E+02  0.98847095870E+02  0.11447975374E+03  0.20801591075E+03  0.12509000000E+03 0.  0.
         25    1    4    4    0    0 -0.49021104756E+02 -0.48986575409E+02  0.76356407390E+02  0.16211280743E+03  0.12509000000E+03 0.  0.
         25    1    4    4    0    0 -0.19875547174E+02 -0.49860520461E+02 -0.35475983276E+01  0.13616608399E+03  0.12509000000E+03 0.  0.
<mgrwt>
<rscale>  2 0.47038008E+03</rscale>
<asrwt>0</asrwt>
<pdfrwt beam="1">  1       21 0.50998777E-01 0.47038008E+03</pdfrwt>
<pdfrwt beam="2">  1       21 0.23456341E-01 0.47038008E+03</pdfrwt>
<totfact> 0.57485115E+04</totfact>
</mgrwt>
</event>
<event>
 7    0  0.4775379E-002  0.4484617E+03  0.7546771E-02  0.1028182E+00
         21   -1    0    0  502  501  0.00000000000E+00  0.00000000000E+00  0.30476620234E+03  0.30476620234E+03  0.00000000000E+00 0. -1.
         21   -1    0    0  501  502 -0.00000000000E+00 -0.00000000000E+00 -0.16497717075E+03  0.16497717075E+03  0.00000000000E+00 0. -1.
      99926    2    1    2    0    0  0.00000000000E+00  0.00000000000E+00  0.13978903159E+03  0.46974337308E+03  0.44846166303E+03 0.  0.
      99925    2    3    3    0    0  0.70254345590E+02  0.75545911336E+02  0.11804009279E+03  0.30614819518E+03  0.26296462902E+03 0.  0.
         25    1    4    4    0    0  0.11319588747E+02  0.22441701652E+02  0.21627255118E+02  0.12941023656E+03  0.12509000000E+03 0.  0.
         25    1    3    3    0    0 -0.70254345590E+02 -0.75545911336E+02  0.21748938804E+02  0.16359517790E+03  0.12509000000E+03 0.  0.
         25    1    4    4    0    0  0.58934756844E+02  0.53104209685E+02  0.96412837669E+02  0.17673795862E+03  0.12509000000E+03 0.  0.
<mgrwt>
<rscale>  2 0.44846166E+03</rscale>
<asrwt>0</asrwt>
<pdfrwt beam="1">  1       21 0.44818560E-01 0.44846166E+03</pdfrwt>
<pdfrwt beam="2">  1       21 0.24261348E-01 0.44846166E+03</pdfrwt>
<totfact> 0.71071086E+04</totfact>
</mgrwt>
</event>
<event>
 7    0  0.4775379E-002  0.4595731E+03  0.7546771E-02  0.1024905E+00
         21   -1    0    0  502  501  0.00000000000E+00  0.00000000000E+00  0.38164717632E+02  0.38164717632E+02  0.00000000000E+00 0. -1.
         21   -1    0    0  501  502 -0.00000000000E+00 -0.00000000000E+00 -0.13835253578E+04  0.13835253578E+04  0.00000000000E+00 0. -1.
      99926    2    1    2    0    0 -0.71054273576E-14 -0.35527136788E-14 -0.13453606402E+04  0.14216900754E+04  0.45957308284E+03 0.  0.
      99925    2    3    3    0    0 -0.43998258697E+02 -0.30070525602E+02 -0.11667676258E+04  0.11972283723E+04  0.26299999932E+03 0.  0.
         25    1    3    3    0    0  0.43998258697E+02  0.30070525602E+02 -0.17859301442E+03  0.22446170314E+03  0.12509000000E+03 0.  0.
         25    1    4    4    0    0  0.11600676836E+01 -0.21492954722E+02 -0.42366155381E+03  0.44226678954E+03  0.12509000000E+03 0.  0.
         25    1    4    4    0    0 -0.45158326380E+02 -0.85775708793E+01 -0.74310607196E+03  0.75496158276E+03  0.12509000000E+03 0.  0.
<mgrwt>
<rscale>  2 0.45957308E+03</rscale>
<asrwt>0</asrwt>
<pdfrwt beam="1">  1       21 0.56124580E-02 0.45957308E+03</pdfrwt>
<pdfrwt beam="2">  1       21 0.20345963E+00 0.45957308E+03</pdfrwt>
<totfact> 0.24864349E+04</totfact>
</mgrwt>
</event>
<event>
 7    0  0.4775379E-002  0.4567964E+03  0.7546771E-02  0.1025714E+00
         21   -1    0    0  502  501  0.00000000000E+00  0.00000000000E+00  0.87741086070E+03  0.87741086070E+03  0.00000000000E+00 0.  1.
         21   -1    0    0  501  502 -0.00000000000E+00 -0.00000000000E+00 -0.59454171551E+02  0.59454171551E+02  0.00000000000E+00 0.  1.
      99926    2    1    2    0    0 -0.35527136788E-14  0.00000000000E+00  0.81795668915E+03  0.93686503225E+03  0.45679639155E+03 0.  0.
      99925    2    3    3    0    0 -0.29925646194E+02  0.11768463307E+02  0.28772767431E+03  0.39113216967E+03  0.26298881831E+03 0.  0.
         25    1    4    4    0    0 -0.43980083776E+02  0.16805330682E+02  0.10899903971E+03  0.17246728868E+03  0.12509000000E+03 0.  0.
         25    1    3    3    0    0  0.29925646194E+02 -0.11768463307E+02  0.53022901483E+03  0.54573286258E+03  0.12509000000E+03 0.  0.
         25    1    4    4    0    0  0.14054437582E+02 -0.50368673753E+01  0.17872863460E+03  0.21866488099E+03  0.12509000000E+03 0.  0.
<mgrwt>
<rscale>  2 0.45679639E+03</rscale>
<asrwt>0</asrwt>
<pdfrwt beam="1">  1       21 0.12903100E+00 0.45679639E+03</pdfrwt>
<pdfrwt beam="2">  1       21 0.87432611E-02 0.45679639E+03</pdfrwt>
<totfact> 0.41096873E+04</totfact>
</mgrwt>
</event>
<event>
 7    0  0.4775379E-002  0.4506471E+03  0.7546771E-02  0.1027529E+00
         21   -1    0    0  502  501  0.00000000000E+00  0.00000000000E+00  0.67460752655E+02  0.67460752655E+02  0.00000000000E+00 0. -1.
         21   -1    0    0  501  502 -0.00000000000E+00 -0.00000000000E+00 -0.75259628959E+03  0.75259628959E+03  0.00000000000E+00 0. -1.
      99926    2    1    2    0    0 -0.71054273576E-14  0.00000000000E+00 -0.68513553693E+03  0.82005704224E+03  0.45064714418E+03 0.  0.
      99925    2    3    3    0    0 -0.54786336553E+02  0.41845905151E+02 -0.58661617125E+03  0.64654567096E+03  0.26296416069E+03 0.  0.
         25    1    4    4    0    0 -0.52512691076E+02  0.36503389821E+02 -0.37759258725E+03  0.40288180679E+03  0.12509000000E+03 0.  0.
         25    1    3    3    0    0  0.54786336553E+02 -0.41845905151E+02 -0.98519365678E+02  0.17351137128E+03  0.12509000000E+03 0.  0.
         25    1    4    4    0    0 -0.22736454775E+01  0.53425153299E+01 -0.20902358400E+03  0.24366386417E+03  0.12509000000E+03 0.  0.
<mgrwt>
<rscale>  2 0.45064714E+03</rscale>
<asrwt>0</asrwt>
<pdfrwt beam="1">  1       21 0.99206987E-02 0.45064714E+03</pdfrwt>
<pdfrwt beam="2">  1       21 0.11067593E+00 0.45064714E+03</pdfrwt>
<totfact> 0.48443464E+04</totfact>
</mgrwt>
</event>
<event>
 7    0  0.4775379E-002  0.4499576E+03  0.7546771E-02  0.1027735E+00
         21   -1    0    0  502  501  0.00000000000E+00  0.00000000000E+00  0.35210056908E+02  0.35210056908E+02  0.00000000000E+00 0.  1.
         21   -1    0    0  501  502 -0.00000000000E+00 -0.00000000000E+00 -0.14375285474E+04  0.14375285474E+04  0.00000000000E+00 0.  1.
      99926    2    1    2    0    0  0.00000000000E+00 -0.35527136788E-14 -0.14023184905E+04  0.14727386043E+04  0.44995760672E+03 0.  0.
      99925    2    3    3    0    0  0.80868535266E+02  0.27319320865E+02 -0.66917126803E+03  0.72411425045E+03  0.26318281945E+03 0.  0.
         25    1    4    4    0    0 -0.45143825495E+00  0.19840150323E+01 -0.31781935938E+03  0.34155642786E+03  0.12509000000E+03 0.  0.
         25    1    4    4    0    0  0.81319973521E+02  0.25335305833E+02 -0.35135190865E+03  0.38255782259E+03  0.12509000000E+03 0.  0.
         25    1    3    3    0    0 -0.80868535266E+02 -0.27319320865E+02 -0.73314722249E+03  0.74862435389E+03  0.12509000000E+03 0.  0.
<mgrwt>
<rscale>  2 0.44995761E+03</rscale>
<asrwt>0</asrwt>
<pdfrwt beam="1">  1       21 0.51779495E-02 0.44995761E+03</pdfrwt>
<pdfrwt beam="2">  1       21 0.21140126E+00 0.44995761E+03</pdfrwt>
<totfact> 0.25437098E+04</totfact>
</mgrwt>
</event>
<event>
 7    0  0.4775379E-002  0.4562910E+03  0.7546771E-02  0.1025862E+00
         21   -1    0    0  502  501  0.00000000000E+00  0.00000000000E+00  0.33545432920E+03  0.33545432920E+03  0.00000000000E+00 0. -1.
         21   -1    0    0  501  502 -0.00000000000E+00 -0.00000000000E+00 -0.15516383452E+03  0.15516383452E+03  0.00000000000E+00 0. -1.
      99926    2    1    2    0    0  0.14210854715E-13 -0.26645352591E-14  0.18029049468E+03  0.49061816372E+03  0.45629104758E+03 0.  0.
      99925    2    3    3    0    0  0.11424615571E+03  0.89056340722E+00  0.11084059458E+03  0.30752317766E+03  0.26311953594E+03 0.  0.
         25    1    4    4    0    0  0.37511577927E+02 -0.23240595735E+02  0.22490615873E+02  0.13453839478E+03  0.12509000000E+03 0.  0.
         25    1    3    3    0    0 -0.11424615571E+03 -0.89056340722E+00  0.69449900097E+02  0.18309498606E+03  0.12509000000E+03 0.  0.
         25    1    4    4    0    0  0.76734577781E+02  0.24131159142E+02  0.88349978705E+02  0.17298478287E+03  0.12509000000E+03 0.  0.
<mgrwt>
<rscale>  2 0.45629105E+03</rscale>
<asrwt>0</asrwt>
<pdfrwt beam="1">  1       21 0.49331519E-01 0.45629105E+03</pdfrwt>
<pdfrwt beam="2">  1       21 0.22818211E-01 0.45629105E+03</pdfrwt>
<totfact> 0.65263452E+04</totfact>
</mgrwt>
</event>
<event>
 7    0  0.4775379E-002  0.4473956E+03  0.7546771E-02  0.1028502E+00
         21   -1    0    0  502  501  0.00000000000E+00  0.00000000000E+00  0.32578814534E+02  0.32578814534E+02  0.00000000000E+00 0.  1.
         21   -1    0    0  501  502 -0.00000000000E+00 -0.00000000000E+00 -0.15359890123E+04  0.15359890123E+04  0.00000000000E+00 0.  1.
      99926    2    1    2    0    0 -0.22204460493E-14 -0.14210854715E-13 -0.15034101977E+04  0.15685678268E+04  0.44739557958E+03 0.  0.
      99925    2    3    3    0    0 -0.21141608289E+00 -0.10266244451E+03 -0.86397958631E+03  0.90897807768E+03  0.26313646260E+03 0.  0.
         25    1    3    3    0    0  0.21141608289E+00  0.10266244451E+03 -0.63943061142E+03  0.65958974910E+03  0.12509000000E+03 0.  0.
         25    1    4    4    0    0 -0.30917310782E+02 -0.56938851651E+02 -0.35399789895E+03  0.38099860038E+03  0.12509000000E+03 0.  0.
         25    1    4    4    0    0  0.30705894699E+02 -0.45723592856E+02 -0.50998168736E+03  0.52797947730E+03  0.12509000000E+03 0.  0.
<mgrwt>
<rscale>  2 0.44739558E+03</rscale>
<asrwt>0</asrwt>
<pdfrwt beam="1">  1       21 0.47910009E-02 0.44739558E+03</pdfrwt>
<pdfrwt beam="2">  1       21 0.22588079E+00 0.44739558E+03</pdfrwt>
<totfact> 0.23505387E+04</totfact>
</mgrwt>
</event>
<event>
 7    0  0.4775379E-002  0.4480263E+03  0.7546771E-02  0.1028312E+00
         21   -1    0    0  502  501  0.00000000000E+00  0.00000000000E+00  0.58835941023E+02  0.58835941023E+02  0.00000000000E+00 0.  1.
         21   -1    0    0  501  502 -0.00000000000E+00 -0.00000000000E+00 -0.85291234272E+03  0.85291234272E+03  0.00000000000E+00 0.  1.
      99926    2    1    2    0    0  0.00000000000E+00  0.14210854715E-13 -0.79407640170E+03  0.91174828375E+03  0.44802633983E+03 0.  0.
      99925    2    3    3    0    0 -0.27254689823E+01  0.10502932443E+03 -0.53875580799E+03  0.60863988590E+03  0.26295646578E+03 0.  0.
         25    1    4    4    0    0 -0.31504758020E+02  0.28560252070E+02 -0.22039085720E+03  0.25695889907E+03  0.12509000000E+03 0.  0.
         25    1    3    3    0    0  0.27254689823E+01 -0.10502932443E+03 -0.25532059371E+03  0.30310839785E+03  0.12509000000E+03 0.  0.
         25    1    4    4    0    0  0.28779289038E+02  0.76469072359E+02 -0.31836495079E+03  0.35168098683E+03  0.12509000000E+03 0.  0.
<mgrwt>
<rscale>  2 0.44802634E+03</rscale>
<asrwt>0</asrwt>
<pdfrwt beam="1">  1       21 0.86523452E-02 0.44802634E+03</pdfrwt>
<pdfrwt beam="2">  1       21 0.12542827E+00 0.44802634E+03</pdfrwt>
<totfact> 0.45142832E+04</totfact>
</mgrwt>
</event>
<event>
 7    0  0.4775379E-002  0.4568400E+03  0.7546771E-02  0.1025702E+00
         21   -1    0    0  502  501  0.00000000000E+00  0.00000000000E+00  0.39528606094E+03  0.39528606094E+03  0.00000000000E+00 0. -1.
         21   -1    0    0  501  502 -0.00000000000E+00 -0.00000000000E+00 -0.13199480601E+03  0.13199480601E+03  0.00000000000E+00 0. -1.
      99926    2    1    2    0    0 -0.17763568394E-14  0.00000000000E+00  0.26329125493E+03  0.52728086694E+03  0.45684004610E+03 0.  0.
      99925    2    3    3    0    0 -0.12926316859E+02  0.42561211296E+02  0.28764414213E+03  0.39230265541E+03  0.26302789693E+03 0.  0.
         25    1    4    4    0    0 -0.30803404248E+02  0.42726720281E+02  0.11224839272E+03  0.17612958896E+03  0.12509000000E+03 0.  0.
         25    1    3    3    0    0  0.12926316859E+02 -0.42561211296E+02 -0.24352887197E+02  0.13497821154E+03  0.12509000000E+03 0.  0.
         25    1    4    4    0    0  0.17877087390E+02 -0.16550898569E+00  0.17539574940E+03  0.21617306644E+03  0.12509000000E+03 0.  0.
<mgrwt>
<rscale>  2 0.45684005E+03</rscale>
<asrwt>0</asrwt>
<pdfrwt beam="1">  1       21 0.58130303E-01 0.45684005E+03</pdfrwt>
<pdfrwt beam="2">  1       21 0.19411001E-01 0.45684005E+03</pdfrwt>
<totfact> 0.62474739E+04</totfact>
</mgrwt>
</event>
<event>
 7    0  0.4775379E-002  0.4568961E+03  0.7546771E-02  0.1025685E+00
         21   -1    0    0  502  501  0.00000000000E+00  0.00000000000E+00  0.67402759292E+02  0.67402759292E+02  0.00000000000E+00 0. -1.
         21   -1    0    0  501  502 -0.00000000000E+00 -0.00000000000E+00 -0.77427857243E+03  0.77427857243E+03  0.00000000000E+00 0. -1.
      99926    2    1    2    0    0  0.00000000000E+00  0.00000000000E+00 -0.70687581314E+03  0.84168133173E+03  0.45689610304E+03 0.  0.
      99925    2    3    3    0    0 -0.82398045692E+02  0.62561327676E+02 -0.53634192724E+03  0.60623989103E+03  0.26298438149E+03 0.  0.
         25    1    3    3    0    0  0.82398045692E+02 -0.62561327676E+02 -0.17053388590E+03  0.23544144069E+03  0.12509000000E+03 0.  0.
         25    1    4    4    0    0 -0.12282523950E+02  0.14964700495E+00 -0.22086590878E+03  0.25412622956E+03  0.12509000000E+03 0.  0.
         25    1    4    4    0    0 -0.70115521743E+02  0.62411680671E+02 -0.31547601846E+03  0.35211366147E+03  0.12509000000E+03 0.  0.
<mgrwt>
<rscale>  2 0.45689610E+03</rscale>
<asrwt>0</asrwt>
<pdfrwt beam="1">  1       21 0.99121708E-02 0.45689610E+03</pdfrwt>
<pdfrwt beam="2">  1       21 0.11386449E+00 0.45689610E+03</pdfrwt>
<totfact> 0.45138612E+04</totfact>
</mgrwt>
</event>
<event>
 7    0  0.4775379E-002  0.4561619E+03  0.7546771E-02  0.1025900E+00
         21   -1    0    0  502  501  0.00000000000E+00  0.00000000000E+00  0.97677975157E+02  0.97677975157E+02  0.00000000000E+00 0.  1.
         21   -1    0    0  501  502 -0.00000000000E+00 -0.00000000000E+00 -0.53257583112E+03  0.53257583112E+03  0.00000000000E+00 0.  1.
      99926    2    1    2    0    0  0.14210854715E-13  0.00000000000E+00 -0.43489785596E+03  0.63025380628E+03  0.45616193967E+03 0.  0.
      99925    2    3    3    0    0  0.78669205296E+02 -0.71646875250E+02 -0.33086832434E+03  0.43585275138E+03  0.26300504604E+03 0.  0.
         25    1    4    4    0    0  0.68074347895E+02 -0.65966130911E+02 -0.20264545336E+03  0.25631686471E+03  0.12509000000E+03 0.  0.
         25    1    3    3    0    0 -0.78669205296E+02  0.71646875250E+02 -0.10402953162E+03  0.19440105489E+03  0.12509000000E+03 0.  0.
         25    1    4    4    0    0  0.10594857401E+02 -0.56807443388E+01 -0.12822287098E+03  0.17953588667E+03  0.12509000000E+03 0.  0.
<mgrwt>
<rscale>  2 0.45616194E+03</rscale>
<asrwt>0</asrwt>
<pdfrwt beam="1">  1       21 0.14364408E-01 0.45616194E+03</pdfrwt>
<pdfrwt beam="2">  1       21 0.78319976E-01 0.45616194E+03</pdfrwt>
<totfact> 0.56335148E+04</totfact>
</mgrwt>
</event>
<event>
 7    0  0.4775379E-002  0.4523467E+03  0.7546771E-02  0.1027025E+00
         21   -1    0    0  502  501  0.00000000000E+00  0.00000000000E+00  0.41874162791E+03  0.41874162791E+03  0.00000000000E+00 0. -1.
         21   -1    0    0  501  502 -0.00000000000E+00 -0.00000000000E+00 -0.12216216021E+03  0.12216216021E+03  0.00000000000E+00 0. -1.
      99926    2    1    2    0    0  0.35527136788E-14  0.00000000000E+00  0.29657946770E+03  0.54090378813E+03  0.45234668933E+03 0.  0.
      99925    2    3    3    0    0 -0.14855033531E+02  0.88536606506E+02  0.10997292635E+03  0.29897629467E+03  0.26312236228E+03 0.  0.
         25    1    4    4    0    0  0.23357388512E+02  0.19234476402E+02  0.36797578448E+02  0.13385478161E+03  0.12509000000E+03 0.  0.
         25    1    3    3    0    0  0.14855033531E+02 -0.88536606506E+02  0.18660654135E+03  0.24192749345E+03  0.12509000000E+03 0.  0.
         25    1    4    4    0    0 -0.38212422043E+02  0.69302130104E+02  0.73175347903E+02  0.16512151306E+03  0.12509000000E+03 0.  0.
<mgrwt>
<rscale>  2 0.45234669E+03</rscale>
<asrwt>0</asrwt>
<pdfrwt beam="1">  1       21 0.61579651E-01 0.45234669E+03</pdfrwt>
<pdfrwt beam="2">  1       21 0.17965024E-01 0.45234669E+03</pdfrwt>
<totfact> 0.63800769E+04</totfact>
</mgrwt>
</event>
<event>
 7    0  0.4775379E-002  0.4572153E+03  0.7546771E-02  0.1025592E+00
         21   -1    0    0  502  501  0.00000000000E+00  0.00000000000E+00  0.60670831938E+03  0.60670831938E+03  0.00000000000E+00 0.  1.
         21   -1    0    0  501  502 -0.00000000000E+00 -0.00000000000E+00 -0.86139330386E+02  0.86139330386E+02  0.00000000000E+00 0.  1.
      99926    2    1    2    0    0 -0.17763568394E-14  0.14210854715E-13  0.52056898899E+03  0.69284764977E+03  0.45721525946E+03 0.  0.
      99925    2    3    3    0    0  0.15811725893E+02  0.81007935667E+02  0.20526666401E+03  0.34374113227E+03  0.26308034200E+03 0.  0.
         25    1    3    3    0    0 -0.15811725893E+02 -0.81007935667E+02  0.31530232498E+03  0.34910651750E+03  0.12509000000E+03 0.  0.
         25    1    4    4    0    0 -0.51958474286E+01  0.11111885746E+02  0.12881436249E+03  0.17997532864E+03  0.12509000000E+03 0.  0.
         25    1    4    4    0    0  0.21007573322E+02  0.69896049922E+02  0.76452301522E+02  0.16376580363E+03  0.12509000000E+03 0.  0.
<mgrwt>
<rscale>  2 0.45721526E+03</rscale>
<asrwt>0</asrwt>
<pdfrwt beam="1">  1       21 0.89221810E-01 0.45721526E+03</pdfrwt>
<pdfrwt beam="2">  1       21 0.12667549E-01 0.45721526E+03</pdfrwt>
<totfact> 0.52373818E+04</totfact>
</mgrwt>
</event>
<event>
 7    0  0.4775379E-002  0.4546598E+03  0.7546771E-02  0.1026341E+00
         21   -1    0    0  502  501  0.00000000000E+00  0.00000000000E+00  0.20044223456E+03  0.20044223456E+03  0.00000000000E+00 0.  1.
         21   -1    0    0  501  502 -0.00000000000E+00 -0.00000000000E+00 -0.25782436487E+03  0.25782436487E+03  0.00000000000E+00 0.  1.
      99926    2    1    2    0    0  0.00000000000E+00  0.00000000000E+00 -0.57382130303E+02  0.45826659943E+03  0.45465983688E+03 0.  0.
      99925    2    3    3    0    0 -0.75344190453E+02 -0.66732114099E+02  0.13914125245E+02  0.28259478540E+03  0.26369734122E+03 0.  0.
         25    1    4    4    0    0 -0.63057250540E+02 -0.64421850363E+02 -0.10452976436E+02  0.15454178874E+03  0.12509000000E+03 0.  0.
         25    1    4    4    0    0 -0.12286939914E+02 -0.23102637362E+01  0.24367101681E+02  0.12805299667E+03  0.12509000000E+03 0.  0.
         25    1    3    3    0    0  0.75344190453E+02  0.66732114099E+02 -0.71296255547E+02  0.17567181402E+03  0.12509000000E+03 0.  0.
<mgrwt>
<rscale>  2 0.45465984E+03</rscale>
<asrwt>0</asrwt>
<pdfrwt beam="1">  1       21 0.29476799E-01 0.45465984E+03</pdfrwt>
<pdfrwt beam="2">  1       21 0.37915348E-01 0.45465984E+03</pdfrwt>
<totfact> 0.68492667E+04</totfact>
</mgrwt>
</event>
<event>
 7    0  0.4775379E-002  0.4519702E+03  0.7546771E-02  0.1027136E+00
         21   -1    0    0  502  501  0.00000000000E+00  0.00000000000E+00  0.15012552077E+04  0.15012552077E+04  0.00000000000E+00 0.  1.
         21   -1    0    0  501  502 -0.00000000000E+00 -0.00000000000E+00 -0.34017715430E+02  0.34017715430E+02  0.00000000000E+00 0.  1.
      99926    2    1    2    0    0 -0.71054273576E-14  0.00000000000E+00  0.14672374923E+04  0.15352729232E+04  0.45197023108E+03 0.  0.
      99925    2    3    3    0    0 -0.63638503045E+02 -0.37666472667E+02  0.64671360598E+03  0.70198091050E+03  0.26281188771E+03 0.  0.
         25    1    4    4    0    0  0.30248939731E+01 -0.21047344681E+02  0.36011278776E+03  0.38181260942E+03  0.12509000000E+03 0.  0.
         25    1    4    4    0    0 -0.66663397018E+02 -0.16619127986E+02  0.28660081822E+03  0.32016830108E+03  0.12509000000E+03 0.  0.
         25    1    3    3    0    0  0.63638503045E+02  0.37666472667E+02  0.82052388633E+03  0.83329201267E+03  0.12509000000E+03 0.  0.
<mgrwt>
<rscale>  2 0.45197023E+03</rscale>
<asrwt>0</asrwt>
<pdfrwt beam="1">  1       21 0.22077278E+00 0.45197023E+03</pdfrwt>
<pdfrwt beam="2">  1       21 0.50026062E-02 0.45197023E+03</pdfrwt>
<totfact> 0.23475307E+04</totfact>
</mgrwt>
</event>
<event>
 7    0  0.4775379E-002  0.4569443E+03  0.7546771E-02  0.1025671E+00
         21   -1    0    0  502  501  0.00000000000E+00  0.00000000000E+00  0.14815035560E+04  0.14815035560E+04  0.00000000000E+00 0.  1.
         21   -1    0    0  501  502 -0.00000000000E+00 -0.00000000000E+00 -0.35234156679E+02  0.35234156679E+02  0.00000000000E+00 0.  1.
      99926    2    1    2    0    0  0.00000000000E+00  0.00000000000E+00  0.14462693993E+04  0.15167377127E+04  0.45694432227E+03 0.  0.
      99925    2    3    3    0    0 -0.77637411820E+02  0.33556353530E+02  0.64976142369E+03  0.70604291196E+03  0.26296974965E+03 0.  0.
         25    1    3    3    0    0  0.77637411820E+02 -0.33556353530E+02  0.79650797565E+03  0.81069480074E+03  0.12509000000E+03 0.  0.
         25    1    4    4    0    0 -0.35019537102E+02  0.39798974911E+02  0.24420081632E+03  0.27944923184E+03  0.12509000000E+03 0.  0.
         25    1    4    4    0    0 -0.42617874717E+02 -0.62426213819E+01  0.40556060737E+03  0.42659368012E+03  0.12509000000E+03 0.  0.
<mgrwt>
<rscale>  2 0.45694432E+03</rscale>
<asrwt>0</asrwt>
<pdfrwt beam="1">  1       21 0.21786813E+00 0.45694432E+03</pdfrwt>
<pdfrwt beam="2">  1       21 0.51814946E-02 0.45694432E+03</pdfrwt>
<totfact> 0.23022238E+04</totfact>
</mgrwt>
</event>
<event>
 7    0  0.4775379E-002  0.4797209E+03  0.7546771E-02  0.1019212E+00
         21   -1    0    0  502  501  0.00000000000E+00  0.00000000000E+00  0.76223328451E+03  0.76223328451E+03  0.00000000000E+00 0. -1.
         21   -1    0    0  501  502 -0.00000000000E+00 -0.00000000000E+00 -0.75479548277E+02  0.75479548277E+02  0.00000000000E+00 0. -1.
      99926    2    1    2    0    0  0.00000000000E+00  0.88817841970E-15  0.68675373624E+03  0.83771283279E+03  0.47972085215E+03 0.  0.
      99925    2    3    3    0    0  0.12358198158E+03  0.70434700237E+01  0.51752324073E+03  0.59356413763E+03  0.26299422834E+03 0.  0.
         25    1    4    4    0    0  0.54054878477E+02  0.15558825350E+02  0.33113687022E+03  0.35841755238E+03  0.12509000000E+03 0.  0.
         25    1    3    3    0    0 -0.12358198158E+03 -0.70434700237E+01  0.16923049551E+03  0.24414869516E+03  0.12509000000E+03 0.  0.
         25    1    4    4    0    0  0.69527103102E+02 -0.85153553259E+01  0.18638637051E+03  0.23514658525E+03  0.12509000000E+03 0.  0.
<mgrwt>
<rscale>  2 0.47972085E+03</rscale>
<asrwt>0</asrwt>
<pdfrwt beam="1">  1       21 0.11209313E+00 0.47972085E+03</pdfrwt>
<pdfrwt beam="2">  1       21 0.11099934E-01 0.47972085E+03</pdfrwt>
<totfact> 0.38057844E+04</totfact>
</mgrwt>
</event>
<event>
 7    0  0.4775379E-002  0.4507640E+03  0.7546771E-02  0.1027494E+00
         21   -1    0    0  502  501  0.00000000000E+00  0.00000000000E+00  0.19120355723E+04  0.19120355723E+04  0.00000000000E+00 0. -1.
         21   -1    0    0  501  502 -0.00000000000E+00 -0.00000000000E+00 -0.26567003776E+02  0.26567003776E+02  0.00000000000E+00 0. -1.
      99926    2    1    2    0    0  0.71054273576E-14 -0.71054273576E-14  0.18854685686E+04  0.19386025761E+04  0.45076404590E+03 0.  0.
      99925    2    3    3    0    0 -0.36701438232E+02  0.50193923011E+02  0.80620618009E+03  0.85033733421E+03  0.26313257429E+03 0.  0.
         25    1    4    4    0    0 -0.55333697929E+02  0.78602029373E+01  0.40600196127E+03  0.42849585946E+03  0.12509000000E+03 0.  0.
         25    1    4    4    0    0  0.18632259697E+02  0.42333720074E+02  0.40020421882E+03  0.42184147475E+03  0.12509000000E+03 0.  0.
         25    1    3    3    0    0  0.36701438232E+02 -0.50193923011E+02  0.10792623885E+04  0.10882652419E+04  0.12509000000E+03 0.  0.
<mgrwt>
<rscale>  2 0.45076405E+03</rscale>
<asrwt>0</asrwt>
<pdfrwt beam="1">  1       21 0.28118161E+00 0.45076405E+03</pdfrwt>
<pdfrwt beam="2">  1       21 0.39069136E-02 0.45076405E+03</pdfrwt>
<totfact> 0.15232992E+04</totfact>
</mgrwt>
</event>
<event>
 7    0  0.4775379E-002  0.4475708E+03  0.7546771E-02  0.1028449E+00
         21   -1    0    0  502  501  0.00000000000E+00  0.00000000000E+00  0.10887624712E+03  0.10887624712E+03  0.00000000000E+00 0. -1.
         21   -1    0    0  501  502 -0.00000000000E+00 -0.00000000000E+00 -0.45997084888E+03  0.45997084888E+03  0.00000000000E+00 0. -1.
      99926    2    1    2    0    0  0.00000000000E+00  0.00000000000E+00 -0.35109460176E+03  0.56884709600E+03  0.44757077568E+03 0.  0.
      99925    2    3    3    0    0  0.62344867304E+02 -0.62098578285E+01 -0.33122862003E+03  0.42754030160E+03  0.26296932512E+03 0.  0.
         25    1    4    4    0    0  0.69687446116E+02 -0.24494002923E+01 -0.20075010219E+03  0.24659775209E+03  0.12509000000E+03 0.  0.
         25    1    3    3    0    0 -0.62344867304E+02  0.62098578285E+01 -0.19865981733E+02  0.14130679440E+03  0.12509000000E+03 0.  0.
         25    1    4    4    0    0 -0.73425788120E+01 -0.37604575362E+01 -0.13047851784E+03  0.18094254951E+03  0.12509000000E+03 0.  0.
<mgrwt>
<rscale>  2 0.44757078E+03</rscale>
<asrwt>0</asrwt>
<pdfrwt beam="1">  1       21 0.16011212E-01 0.44757078E+03</pdfrwt>
<pdfrwt beam="2">  1       21 0.67642773E-01 0.44757078E+03</pdfrwt>
<totfact> 0.64335174E+04</totfact>
</mgrwt>
</event>
<event>
 7    0  0.4775379E-002  0.4586286E+03  0.7546771E-02  0.1025180E+00
         21   -1    0    0  502  501  0.00000000000E+00  0.00000000000E+00  0.10481311921E+03  0.10481311921E+03  0.00000000000E+00 0. -1.
         21   -1    0    0  501  502 -0.00000000000E+00 -0.00000000000E+00 -0.50170302128E+03  0.50170302128E+03  0.00000000000E+00 0. -1.
      99926    2    1    2    0    0  0.88817841970E-15  0.00000000000E+00 -0.39688990206E+03  0.60651614049E+03  0.45862864533E+03 0.  0.
      99925    2    3    3    0    0 -0.37557414044E+01  0.97050005656E+02 -0.33419011578E+03  0.43618827873E+03  0.26295317421E+03 0.  0.
         25    1    4    4    0    0 -0.23947909463E+02  0.84776142577E+02 -0.18481296454E+03  0.23992464792E+03  0.12509000000E+03 0.  0.
         25    1    4    4    0    0  0.20192168059E+02  0.12273863079E+02 -0.14937715124E+03  0.19626363081E+03  0.12509000000E+03 0.  0.
         25    1    3    3    0    0  0.37557414044E+01 -0.97050005656E+02 -0.62699786281E+02  0.17032786176E+03  0.12509000000E+03 0.  0.
<mgrwt>
<rscale>  2 0.45862865E+03</rscale>
<asrwt>0</asrwt>
<pdfrwt beam="1">  1       21 0.15413694E-01 0.45862865E+03</pdfrwt>
<pdfrwt beam="2">  1       21 0.73779855E-01 0.45862865E+03</pdfrwt>
<totfact> 0.56637844E+04</totfact>
</mgrwt>
</event>
<event>
 7    0  0.4775379E-002  0.4487727E+03  0.7546771E-02  0.1028089E+00
         21   -1    0    0  502  501  0.00000000000E+00  0.00000000000E+00  0.15972816248E+04  0.15972816248E+04  0.00000000000E+00 0. -1.
         21   -1    0    0  501  502 -0.00000000000E+00 -0.00000000000E+00 -0.31521826465E+02  0.31521826465E+02  0.00000000000E+00 0. -1.
      99926    2    1    2    0    0  0.00000000000E+00  0.00000000000E+00  0.15657597983E+04  0.16288034513E+04  0.44877270056E+03 0.  0.
      99925    2    3    3    0    0  0.55030101166E+02 -0.83828530366E+02  0.85366267953E+03  0.89888198340E+03  0.26304622241E+03 0.  0.
         25    1    3    3    0    0 -0.55030101166E+02  0.83828530366E+02  0.71209711879E+03  0.72992146785E+03  0.12509000000E+03 0.  0.
         25    1    4    4    0    0  0.18335458133E+01 -0.70241651231E+02  0.48240067858E+03  0.50328438705E+03  0.12509000000E+03 0.  0.
         25    1    4    4    0    0  0.53196555353E+02 -0.13586879135E+02  0.37126200096E+03  0.39559759635E+03  0.12509000000E+03 0.  0.
<mgrwt>
<rscale>  2 0.44877270E+03</rscale>
<asrwt>0</asrwt>
<pdfrwt beam="1">  1       21 0.23489430E+00 0.44877270E+03</pdfrwt>
<pdfrwt beam="2">  1       21 0.46355638E-02 0.44877270E+03</pdfrwt>
<totfact> 0.21822938E+04</totfact>
</mgrwt>
</event>
<event>
 7    0  0.4775379E-002  0.4431745E+03  0.7546771E-02  0.1029777E+00
         21   -1    0    0  502  501  0.00000000000E+00  0.00000000000E+00  0.35332943659E+03  0.35332943659E+03  0.00000000000E+00 0.  1.
         21   -1    0    0  501  502 -0.00000000000E+00 -0.00000000000E+00 -0.13896638025E+03  0.13896638025E+03  0.00000000000E+00 0.  1.
      99926    2    1    2    0    0  0.00000000000E+00  0.14210854715E-13  0.21436305634E+03  0.49229581684E+03  0.44317451569E+03 0.  0.
      99925    2    3    3    0    0 -0.48396054902E+02 -0.87532569240E+02  0.11628601389E+03  0.30449074991E+03  0.26303621604E+03 0.  0.
         25    1    3    3    0    0  0.48396054902E+02  0.87532569240E+02  0.98077042453E+02  0.18780506693E+03  0.12509000000E+03 0.  0.
         25    1    4    4    0    0 -0.17717945320E+02 -0.54852139390E+01  0.33661041377E+02  0.13086094515E+03  0.12509000000E+03 0.  0.
         25    1    4    4    0    0 -0.30678109582E+02 -0.82047355301E+02  0.82624972510E+02  0.17362980476E+03  0.12509000000E+03 0.  0.
<mgrwt>
<rscale>  2 0.44317452E+03</rscale>
<asrwt>0</asrwt>
<pdfrwt beam="1">  1       21 0.51960211E-01 0.44317452E+03</pdfrwt>
<pdfrwt beam="2">  1       21 0.20436232E-01 0.44317452E+03</pdfrwt>
<totfact> 0.72374395E+04</totfact>
</mgrwt>
</event>
<event>
 7    0  0.4775379E-002  0.4492056E+03  0.7546771E-02  0.1027959E+00
         21   -1    0    0  502  501  0.00000000000E+00  0.00000000000E+00  0.95051366207E+02  0.95051366207E+02  0.00000000000E+00 0. -1.
         21   -1    0    0  501  502 -0.00000000000E+00 -0.00000000000E+00 -0.53072794420E+03  0.53072794420E+03  0.00000000000E+00 0. -1.
      99926    2    1    2    0    0  0.00000000000E+00  0.00000000000E+00 -0.43567657800E+03  0.62577931041E+03  0.44920559293E+03 0.  0.
      99925    2    3    3    0    0  0.73961106271E+02 -0.54221436521E+02 -0.35388485407E+03  0.45042936424E+03  0.26313858100E+03 0.  0.
         25    1    3    3    0    0 -0.73961106271E+02  0.54221436521E+02 -0.81791723921E+02  0.17534994617E+03  0.12509000000E+03 0.  0.
         25    1    4    4    0    0  0.11552283900E+01 -0.17942088630E+02 -0.12935782549E+03  0.18084304856E+03  0.12509000000E+03 0.  0.
         25    1    4    4    0    0  0.72805877881E+02 -0.36279347892E+02 -0.22452702859E+03  0.26958631568E+03  0.12509000000E+03 0.  0.
<mgrwt>
<rscale>  2 0.44920559E+03</rscale>
<asrwt>0</asrwt>
<pdfrwt beam="1">  1       21 0.13978142E-01 0.44920559E+03</pdfrwt>
<pdfrwt beam="2">  1       21 0.78048226E-01 0.44920559E+03</pdfrwt>
<totfact> 0.59808261E+04</totfact>
</mgrwt>
</event>
<event>
 7    0  0.4775379E-002  0.4499179E+03  0.7546771E-02  0.1027747E+00
         21   -1    0    0  502  501  0.00000000000E+00  0.00000000000E+00  0.20158591470E+03  0.20158591470E+03  0.00000000000E+00 0.  1.
         21   -1    0    0  501  502 -0.00000000000E+00 -0.00000000000E+00 -0.25104197588E+03  0.25104197588E+03  0.00000000000E+00 0.  1.
      99926    2    1    2    0    0  0.00000000000E+00  0.00000000000E+00 -0.49456061179E+02  0.45262789057E+03  0.44991788733E+03 0.  0.
      99925    2    3    3    0    0  0.73910779360E+02  0.25284455488E+02 -0.10682921033E+03  0.29438348044E+03  0.26295825977E+03 0.  0.
         25    1    4    4    0    0  0.10715993969E+02  0.42638286912E+02 -0.60685714418E+02  0.14581879190E+03  0.12509000000E+03 0.  0.
         25    1    4    4    0    0  0.63194785390E+02 -0.17353831425E+02 -0.46143495910E+02  0.14856468854E+03  0.12509000000E+03 0.  0.
         25    1    3    3    0    0 -0.73910779360E+02 -0.25284455488E+02  0.57373149149E+02  0.15824441013E+03  0.12509000000E+03 0.  0.
<mgrwt>
<rscale>  2 0.44991789E+03</rscale>
<asrwt>0</asrwt>
<pdfrwt beam="1">  1       21 0.29644988E-01 0.44991789E+03</pdfrwt>
<pdfrwt beam="2">  1       21 0.36917938E-01 0.44991789E+03</pdfrwt>
<totfact> 0.71578463E+04</totfact>
</mgrwt>
</event>
<event>
 7    0  0.4775379E-002  0.4344994E+03  0.7546771E-02  0.1032448E+00
         21   -1    0    0  502  501  0.00000000000E+00  0.00000000000E+00  0.60648120707E+02  0.60648120707E+02  0.00000000000E+00 0. -1.
         21   -1    0    0  501  502 -0.00000000000E+00 -0.00000000000E+00 -0.77821760876E+03  0.77821760876E+03  0.00000000000E+00 0. -1.
      99926    2    1    2    0    0  0.00000000000E+00  0.00000000000E+00 -0.71756948805E+03  0.83886572947E+03  0.43449941529E+03 0.  0.
      99925    2    3    3    0    0  0.57309087670E+02  0.52326758012E+02 -0.55819029677E+03  0.62190569663E+03  0.26299784593E+03 0.  0.
         25    1    4    4    0    0  0.65620971119E+02  0.12409801900E+02 -0.31378062860E+03  0.34433400358E+03  0.12509000000E+03 0.  0.
         25    1    3    3    0    0 -0.57309087670E+02 -0.52326758012E+02 -0.15937919128E+03  0.21696003283E+03  0.12509000000E+03 0.  0.
         25    1    4    4    0    0 -0.83118834487E+01  0.39916956112E+02 -0.24440966816E+03  0.27757169305E+03  0.12509000000E+03 0.  0.
<mgrwt>
<rscale>  2 0.43449942E+03</rscale>
<asrwt>0</asrwt>
<pdfrwt beam="1">  1       21 0.89188419E-02 0.43449942E+03</pdfrwt>
<pdfrwt beam="2">  1       21 0.11444376E+00 0.43449942E+03</pdfrwt>
<totfact> 0.54137449E+04</totfact>
</mgrwt>
</event>
<event>
 7    0  0.4775379E-002  0.4563329E+03  0.7546771E-02  0.1025850E+00
         21   -1    0    0  502  501  0.00000000000E+00  0.00000000000E+00  0.42914801317E+03  0.42914801317E+03  0.00000000000E+00 0.  1.
         21   -1    0    0  501  502 -0.00000000000E+00 -0.00000000000E+00 -0.12130994643E+03  0.12130994643E+03  0.00000000000E+00 0.  1.
      99926    2    1    2    0    0 -0.14210854715E-13  0.00000000000E+00  0.30783806674E+03  0.55045795960E+03  0.45633287187E+03 0.  0.
      99925    2    3    3    0    0  0.10771661104E+03 -0.35089845693E+02  0.17331173234E+03  0.33463625468E+03  0.26288838091E+03 0.  0.
         25    1    4    4    0    0  0.17550690367E+02 -0.36832446361E+02  0.89417044003E+02  0.15908353685E+03  0.12509000000E+03 0.  0.
         25    1    3    3    0    0 -0.10771661104E+03  0.35089845693E+02  0.13452633440E+03  0.21582170491E+03  0.12509000000E+03 0.  0.
         25    1    4    4    0    0  0.90165920672E+02  0.17426006677E+01  0.83894688339E+02  0.17555271784E+03  0.12509000000E+03 0.  0.
<mgrwt>
<rscale>  2 0.45633287E+03</rscale>
<asrwt>0</asrwt>
<pdfrwt beam="1">  1       21 0.63110001E-01 0.45633287E+03</pdfrwt>
<pdfrwt beam="2">  1       21 0.17839698E-01 0.45633287E+03</pdfrwt>
<totfact> 0.61188442E+04</totfact>
</mgrwt>
</event>
<event>
 7    0  0.4775379E-002  0.4518144E+03  0.7546771E-02  0.1027182E+00
         21   -1    0    0  502  501  0.00000000000E+00  0.00000000000E+00  0.30855606444E+03  0.30855606444E+03  0.00000000000E+00 0.  1.
         21   -1    0    0  501  502 -0.00000000000E+00 -0.00000000000E+00 -0.16539643396E+03  0.16539643396E+03  0.00000000000E+00 0.  1.
      99926    2    1    2    0    0  0.00000000000E+00  0.35527136788E-14  0.14315963048E+03  0.47395249839E+03  0.45181444303E+03 0.  0.
      99925    2    3    3    0    0 -0.10424214031E+03  0.24670502292E+02  0.62794244952E+02  0.29070086595E+03  0.26284751999E+03 0.  0.
         25    1    4    4    0    0 -0.16892308502E+02  0.26556091544E+02  0.47081651906E+02  0.13731265831E+03  0.12509000000E+03 0.  0.
         25    1    4    4    0    0 -0.87349831813E+02 -0.18855892523E+01  0.15712593046E+02  0.15338820765E+03  0.12509000000E+03 0.  0.
         25    1    3    3    0    0  0.10424214031E+03 -0.24670502292E+02  0.80365385530E+02  0.18325163244E+03  0.12509000000E+03 0.  0.
<mgrwt>
<rscale>  2 0.45181444E+03</rscale>
<asrwt>0</asrwt>
<pdfrwt beam="1">  1       21 0.45375892E-01 0.45181444E+03</pdfrwt>
<pdfrwt beam="2">  1       21 0.24323005E-01 0.45181444E+03</pdfrwt>
<totfact> 0.68867664E+04</totfact>
</mgrwt>
</event>
<event>
 7    0  0.4775379E-002  0.4562045E+03  0.7546771E-02  0.1025888E+00
         21   -1    0    0  502  501  0.00000000000E+00  0.00000000000E+00  0.40425836216E+02  0.40425836216E+02  0.00000000000E+00 0.  1.
         21   -1    0    0  501  502 -0.00000000000E+00 -0.00000000000E+00 -0.12870636937E+04  0.12870636937E+04  0.00000000000E+00 0.  1.
      99926    2    1    2    0    0  0.00000000000E+00  0.00000000000E+00 -0.12466378575E+04  0.13274895299E+04  0.45620445451E+03 0.  0.
      99925    2    3    3    0    0 -0.57021173780E+02  0.99209513725E+02 -0.77051841640E+03  0.82208753927E+03  0.26274579032E+03 0.  0.
         25    1    3    3    0    0  0.57021173780E+02 -0.99209513725E+02 -0.47611944107E+03  0.50540199063E+03  0.12509000000E+03 0.  0.
         25    1    4    4    0    0 -0.34546519188E+02  0.87530008104E+02 -0.37074405227E+03  0.40243462165E+03  0.12509000000E+03 0.  0.
         25    1    4    4    0    0 -0.22474654592E+02  0.11679505622E+02 -0.39977436413E+03  0.41965291762E+03  0.12509000000E+03 0.  0.
<mgrwt>
<rscale>  2 0.45620445E+03</rscale>
<asrwt>0</asrwt>
<pdfrwt beam="1">  1       21 0.59449767E-02 0.45620445E+03</pdfrwt>
<pdfrwt beam="2">  1       21 0.18927405E+00 0.45620445E+03</pdfrwt>
<totfact> 0.28062976E+04</totfact>
</mgrwt>
</event>
<event>
 7    0  0.4775379E-002  0.4388162E+03  0.7546771E-02  0.1031111E+00
         21   -1    0    0  502  501  0.00000000000E+00  0.00000000000E+00  0.25644478493E+03  0.25644478493E+03  0.00000000000E+00 0.  1.
         21   -1    0    0  501  502 -0.00000000000E+00 -0.00000000000E+00 -0.18772035762E+03  0.18772035762E+03  0.00000000000E+00 0.  1.
      99926    2    1    2    0    0  0.00000000000E+00  0.00000000000E+00  0.68724427307E+02  0.44416514255E+03  0.43881616532E+03 0.  0.
      99925    2    3    3    0    0  0.47121302557E+02  0.81360057334E+02  0.69197787463E+02  0.28767997311E+03  0.26292880606E+03 0.  0.
         25    1    4    4    0    0  0.48629929393E+02  0.39772942966E+02  0.68514608224E+02  0.15584773551E+03  0.12509000000E+03 0.  0.
         25    1    3    3    0    0 -0.47121302557E+02 -0.81360057334E+02 -0.47336015528E+00  0.15648516944E+03  0.12509000000E+03 0.  0.
         25    1    4    4    0    0 -0.15086268364E+01  0.41587114368E+02  0.68317923894E+00  0.13183223760E+03  0.12509000000E+03 0.  0.
<mgrwt>
<rscale>  2 0.43881617E+03</rscale>
<asrwt>0</asrwt>
<pdfrwt beam="1">  1       21 0.37712468E-01 0.43881617E+03</pdfrwt>
<pdfrwt beam="2">  1       21 0.27605935E-01 0.43881617E+03</pdfrwt>
<totfact> 0.79073120E+04</totfact>
</mgrwt>
</event>
<event>
 7    0  0.4775379E-002  0.4246184E+03  0.7546771E-02  0.1035574E+00
         21   -1    0    0  502  501  0.00000000000E+00  0.00000000000E+00  0.44480952601E+02  0.44480952601E+02  0.00000000000E+00 0.  1.
         21   -1    0    0  501  502 -0.00000000000E+00 -0.00000000000E+00 -0.10133595652E+04  0.10133595652E+04  0.00000000000E+00 0.  1.
      99926    2    1    2    0    0  0.35527136788E-14  0.00000000000E+00 -0.96887861258E+03  0.10578405178E+04  0.42461841122E+03 0.  0.
      99925    2    3    3    0    0  0.20524454626E+02  0.17962700963E+02 -0.81942064525E+03  0.86104340407E+03  0.26306204208E+03 0.  0.
         25    1    4    4    0    0  0.33637851516E+02  0.42484539858E+02 -0.42518662165E+03  0.44650600501E+03  0.12509000000E+03 0.  0.
         25    1    4    4    0    0 -0.13113396889E+02 -0.24521838895E+02 -0.39423402360E+03  0.41453739906E+03  0.12509000000E+03 0.  0.
         25    1    3    3    0    0 -0.20524454626E+02 -0.17962700963E+02 -0.14945796733E+03  0.19679711370E+03  0.12509000000E+03 0.  0.
<mgrwt>
<rscale>  2 0.42461841E+03</rscale>
<asrwt>0</asrwt>
<pdfrwt beam="1">  1       21 0.65413164E-02 0.42461841E+03</pdfrwt>
<pdfrwt beam="2">  1       21 0.14902347E+00 0.42461841E+03</pdfrwt>
<totfact> 0.47236231E+04</totfact>
</mgrwt>
</event>
<event>
 7    0  0.4775379E-002  0.4589935E+03  0.7546771E-02  0.1025074E+00
         21   -1    0    0  502  501  0.00000000000E+00  0.00000000000E+00  0.42200812483E+03  0.42200812483E+03  0.00000000000E+00 0.  1.
         21   -1    0    0  501  502 -0.00000000000E+00 -0.00000000000E+00 -0.12480505498E+03  0.12480505498E+03  0.00000000000E+00 0.  1.
      99926    2    1    2    0    0  0.71054273576E-14  0.14210854715E-13  0.29720306984E+03  0.54681317981E+03  0.45899345190E+03 0.  0.
      99925    2    3    3    0    0  0.48781972302E+02  0.10102116314E+03  0.14756365081E+03  0.32181446858E+03  0.26306760524E+03 0.  0.
         25    1    4    4    0    0 -0.18955414594E-01  0.69154973171E+02  0.44920565648E+02  0.14982581884E+03  0.12509000000E+03 0.  0.
         25    1    4    4    0    0  0.48800927716E+02  0.31866189969E+02  0.10264308516E+03  0.17198864974E+03  0.12509000000E+03 0.  0.
         25    1    3    3    0    0 -0.48781972302E+02 -0.10102116314E+03  0.14963941904E+03  0.22499871123E+03  0.12509000000E+03 0.  0.
<mgrwt>
<rscale>  2 0.45899345E+03</rscale>
<asrwt>0</asrwt>
<pdfrwt beam="1">  1       21 0.62060018E-01 0.45899345E+03</pdfrwt>
<pdfrwt beam="2">  1       21 0.18353685E-01 0.45899345E+03</pdfrwt>
<totfact> 0.60154146E+04</totfact>
</mgrwt>
</event>
<event>
 7    0  0.4775379E-002  0.4438353E+03  0.7546771E-02  0.1029577E+00
         21   -1    0    0  502  501  0.00000000000E+00  0.00000000000E+00  0.48055885977E+02  0.48055885977E+02  0.00000000000E+00 0. -1.
         21   -1    0    0  501  502 -0.00000000000E+00 -0.00000000000E+00 -0.10247953040E+04  0.10247953040E+04  0.00000000000E+00 0. -1.
      99926    2    1    2    0    0  0.00000000000E+00  0.00000000000E+00 -0.97673941804E+03  0.10728511900E+04  0.44383531306E+03 0.  0.
      99925    2    3    3    0    0 -0.72718186566E+02  0.60012999562E+02 -0.52470882513E+03  0.59444899539E+03  0.26298433828E+03 0.  0.
         25    1    4    4    0    0 -0.43033881160E+02  0.93396740631E+01 -0.33031895025E+03  0.35594558774E+03  0.12509000000E+03 0.  0.
         25    1    3    3    0    0  0.72718186566E+02 -0.60012999562E+02 -0.45203059290E+03  0.47840219459E+03  0.12509000000E+03 0.  0.
         25    1    4    4    0    0 -0.29684305405E+02  0.50673325499E+02 -0.19438987489E+03  0.23850340766E+03  0.12509000000E+03 0.  0.
<mgrwt>
<rscale>  2 0.44383531E+03</rscale>
<asrwt>0</asrwt>
<pdfrwt beam="1">  1       21 0.70670425E-02 0.44383531E+03</pdfrwt>
<pdfrwt beam="2">  1       21 0.15070518E+00 0.44383531E+03</pdfrwt>
<totfact> 0.39806476E+04</totfact>
</mgrwt>
</event>
<event>
 7    0  0.4775379E-002  0.4770054E+03  0.7546771E-02  0.1019961E+00
         21   -1    0    0  502  501  0.00000000000E+00  0.00000000000E+00  0.30033579873E+03  0.30033579873E+03  0.00000000000E+00 0. -1.
         21   -1    0    0  501  502 -0.00000000000E+00 -0.00000000000E+00 -0.18939978475E+03  0.18939978475E+03  0.00000000000E+00 0. -1.
      99926    2    1    2    0    0  0.00000000000E+00  0.00000000000E+00  0.11093601397E+03  0.48973558348E+03  0.47700539046E+03 0.  0.
      99925    2    3    3    0    0  0.65239115751E+02 -0.21624097136E+02  0.18500958502E+03  0.32893090125E+03  0.26314111698E+03 0.  0.
         25    1    4    4    0    0  0.66548884553E+02 -0.26716743275E+02  0.12144952803E+03  0.18852064705E+03  0.12509000000E+03 0.  0.
         25    1    3    3    0    0 -0.65239115751E+02  0.21624097136E+02 -0.74073571042E+02  0.16080468223E+03  0.12509000000E+03 0.  0.
         25    1    4    4    0    0 -0.13097688022E+01  0.50926461391E+01  0.63560056989E+02  0.14041025420E+03  0.12509000000E+03 0.  0.
<mgrwt>
<rscale>  2 0.47700539E+03</rscale>
<asrwt>0</asrwt>
<pdfrwt beam="1">  1       21 0.44167030E-01 0.47700539E+03</pdfrwt>
<pdfrwt beam="2">  1       21 0.27852909E-01 0.47700539E+03</pdfrwt>
<totfact> 0.55627089E+04</totfact>
</mgrwt>
</event>
<event>
 7    0  0.4775379E-002  0.4569229E+03  0.7546771E-02  0.1025677E+00
         21   -1    0    0  502  501  0.00000000000E+00  0.00000000000E+00  0.18857220843E+03  0.18857220843E+03  0.00000000000E+00 0. -1.
         21   -1    0    0  501  502 -0.00000000000E+00 -0.00000000000E+00 -0.27678856307E+03  0.27678856307E+03  0.00000000000E+00 0. -1.
      99926    2    1    2    0    0  0.00000000000E+00  0.17763568394E-14 -0.88216354642E+02  0.46536077149E+03  0.45692288454E+03 0.  0.
      99925    2    3    3    0    0  0.80423690599E+02  0.99878839055E+01 -0.13842098093E+03  0.30808477067E+03  0.26303636654E+03 0.  0.
         25    1    4    4    0    0  0.58691610820E+02  0.40333487898E+02 -0.83974590462E+02  0.16664553810E+03  0.12509000000E+03 0.  0.
         25    1    4    4    0    0  0.21732079779E+02 -0.30345603993E+02 -0.54446390470E+02  0.14143923256E+03  0.12509000000E+03 0.  0.
         25    1    3    3    0    0 -0.80423690599E+02 -0.99878839055E+01  0.50204626290E+02  0.15727600082E+03  0.12509000000E+03 0.  0.
<mgrwt>
<rscale>  2 0.45692288E+03</rscale>
<asrwt>0</asrwt>
<pdfrwt beam="1">  1       21 0.27731207E-01 0.45692288E+03</pdfrwt>
<pdfrwt beam="2">  1       21 0.40704200E-01 0.45692288E+03</pdfrwt>
<totfact> 0.66757155E+04</totfact>
</mgrwt>
</event>
<event>
 7    0  0.4775379E-002  0.4551502E+03  0.7546771E-02  0.1026197E+00
         21   -1    0    0  502  501  0.00000000000E+00  0.00000000000E+00  0.92194422617E+03  0.92194422617E+03  0.00000000000E+00 0.  1.
         21   -1    0    0  501  502 -0.00000000000E+00 -0.00000000000E+00 -0.56175237311E+02  0.56175237311E+02  0.00000000000E+00 0.  1.
      99926    2    1    2    0    0  0.00000000000E+00  0.00000000000E+00  0.86576898886E+03  0.97811946348E+03  0.45515024197E+03 0.  0.
      99925    2    3    3    0    0 -0.16467570869E+02 -0.10914120490E+03  0.48910989610E+03  0.56616975325E+03  0.26293861553E+03 0.  0.
         25    1    4    4    0    0 -0.21461183432E+02 -0.34231572136E+02  0.16674553835E+03  0.21232985091E+03  0.12509000000E+03 0.  0.
         25    1    3    3    0    0  0.16467570869E+02  0.10914120490E+03  0.37665909276E+03  0.41194971023E+03  0.12509000000E+03 0.  0.
         25    1    4    4    0    0  0.49936125633E+01 -0.74909632767E+02  0.32236435775E+03  0.35383990235E+03  0.12509000000E+03 0.  0.
<mgrwt>
<rscale>  2 0.45515024E+03</rscale>
<asrwt>0</asrwt>
<pdfrwt beam="1">  1       21 0.13558002E+00 0.45515024E+03</pdfrwt>
<pdfrwt beam="2">  1       21 0.82610649E-02 0.45515024E+03</pdfrwt>
<totfact> 0.39975599E+04</totfact>
</mgrwt>
</event>
<event>
 7    0  0.4775379E-002  0.4311586E+03  0.7546771E-02  0.1033495E+00
         21   -1    0    0  502  501  0.00000000000E+00  0.00000000000E+00  0.19496101682E+03  0.19496101682E+03  0.00000000000E+00 0. -1.
         21   -1    0    0  501  502 -0.00000000000E+00 -0.00000000000E+00 -0.23837813017E+03  0.23837813017E+03  0.00000000000E+00 0. -1.
      99926    2    1    2    0    0  0.00000000000E+00  0.00000000000E+00 -0.43417113354E+02  0.43333914699E+03  0.43115863738E+03 0.  0.
      99925    2    3    3    0    0 -0.57329110941E+02  0.54896498603E+02 -0.68734009290E+02  0.28304375172E+03  0.26284814786E+03 0.  0.
         25    1    4    4    0    0 -0.56695247338E+02  0.84329906322E+01 -0.12255837642E+02  0.13814188379E+03  0.12509000000E+03 0.  0.
         25    1    4    4    0    0 -0.63386360364E+00  0.46463507971E+02 -0.56478171648E+02  0.14490186793E+03  0.12509000000E+03 0.  0.
         25    1    3    3    0    0  0.57329110941E+02 -0.54896498603E+02  0.25316895936E+02  0.15029539527E+03  0.12509000000E+03 0.  0.
<mgrwt>
<rscale>  2 0.43115864E+03</rscale>
<asrwt>0</asrwt>
<pdfrwt beam="1">  1       21 0.28670738E-01 0.43115864E+03</pdfrwt>
<pdfrwt beam="2">  1       21 0.35055607E-01 0.43115864E+03</pdfrwt>
<totfact> 0.85263316E+04</totfact>
</mgrwt>
</event>
<event>
 7    0  0.4775379E-002  0.4550299E+03  0.7546771E-02  0.1026233E+00
         21   -1    0    0  502  501  0.00000000000E+00  0.00000000000E+00  0.68308779750E+03  0.68308779750E+03  0.00000000000E+00 0.  1.
         21   -1    0    0  501  502 -0.00000000000E+00 -0.00000000000E+00 -0.75778041645E+02  0.75778041645E+02  0.00000000000E+00 0.  1.
      99926    2    1    2    0    0  0.00000000000E+00  0.00000000000E+00  0.60730975586E+03  0.75886583915E+03  0.45502991359E+03 0.  0.
      99925    2    3    3    0    0 -0.64074840791E+02  0.90971871993E+02  0.41663603285E+03  0.50512297036E+03  0.26302502656E+03 0.  0.
         25    1    3    3    0    0  0.64074840791E+02 -0.90971871993E+02  0.19067372301E+03  0.25374286879E+03  0.12509000000E+03 0.  0.
         25    1    4    4    0    0 -0.33838784351E+01  0.74218044284E+02  0.21756528678E+03  0.26172873522E+03  0.12509000000E+03 0.  0.
         25    1    4    4    0    0 -0.60690962356E+02  0.16753827709E+02  0.19907074608E+03  0.24339423514E+03  0.12509000000E+03 0.  0.
<mgrwt>
<rscale>  2 0.45502991E+03</rscale>
<asrwt>0</asrwt>
<pdfrwt beam="1">  1       21 0.10045408E+00 0.45502991E+03</pdfrwt>
<pdfrwt beam="2">  1       21 0.11143830E-01 0.45502991E+03</pdfrwt>
<totfact> 0.49806541E+04</totfact>
</mgrwt>
</event>
<event>
 7    0  0.4775379E-002  0.4562179E+03  0.7546771E-02  0.1025884E+00
         21   -1    0    0  502  501  0.00000000000E+00  0.00000000000E+00  0.36109203109E+02  0.36109203109E+02  0.00000000000E+00 0. -1.
         21   -1    0    0  501  502 -0.00000000000E+00 -0.00000000000E+00 -0.14410092603E+04  0.14410092603E+04  0.00000000000E+00 0. -1.
      99926    2    1    2    0    0 -0.14210854715E-13  0.00000000000E+00 -0.14049000572E+04  0.14771184634E+04  0.45621791311E+03 0.  0.
      99925    2    3    3    0    0  0.86604579600E+02 -0.40752753357E+02 -0.68158368723E+03  0.73685147153E+03  0.26312093851E+03 0.  0.
         25    1    4    4    0    0  0.33805558129E+02  0.90972259811E+01 -0.39546263816E+03  0.41624966253E+03  0.12509000000E+03 0.  0.
         25    1    4    4    0    0  0.52799021472E+02 -0.49849979338E+02 -0.28612104907E+03  0.32060180900E+03  0.12509000000E+03 0.  0.
         25    1    3    3    0    0 -0.86604579600E+02  0.40752753357E+02 -0.72331636993E+03  0.74026699185E+03  0.12509000000E+03 0.  0.
<mgrwt>
<rscale>  2 0.45621791E+03</rscale>
<asrwt>0</asrwt>
<pdfrwt beam="1">  1       21 0.53101775E-02 0.45621791E+03</pdfrwt>
<pdfrwt beam="2">  1       21 0.21191310E+00 0.45621791E+03</pdfrwt>
<totfact> 0.24116560E+04</totfact>
</mgrwt>
</event>
<event>
 7    0  0.4775379E-002  0.4420213E+03  0.7546771E-02  0.1030128E+00
         21   -1    0    0  502  501  0.00000000000E+00  0.00000000000E+00  0.83720216480E+03  0.83720216480E+03  0.00000000000E+00 0. -1.
         21   -1    0    0  501  502 -0.00000000000E+00 -0.00000000000E+00 -0.58343984367E+02  0.58343984367E+02  0.00000000000E+00 0. -1.
      99926    2    1    2    0    0  0.00000000000E+00  0.00000000000E+00  0.77885818044E+03  0.89554614917E+03  0.44202131177E+03 0.  0.
      99925    2    3    3    0    0  0.11610162563E+02 -0.19847940936E+02  0.69380708530E+03  0.74254309849E+03  0.26357777764E+03 0.  0.
         25    1    4    4    0    0  0.37538163975E+01  0.27554896162E+02  0.28906299496E+03  0.31619343225E+03  0.12509000000E+03 0.  0.
         25    1    4    4    0    0  0.78563461657E+01 -0.47402837098E+02  0.40474409034E+03  0.42634966625E+03  0.12509000000E+03 0.  0.
         25    1    3    3    0    0 -0.11610162563E+02  0.19847940936E+02  0.85051095135E+02  0.15300305068E+03  0.12509000000E+03 0.  0.
<mgrwt>
<rscale>  2 0.44202131E+03</rscale>
<asrwt>0</asrwt>
<pdfrwt beam="1">  1       21 0.12311796E+00 0.44202131E+03</pdfrwt>
<pdfrwt beam="2">  1       21 0.85799982E-02 0.44202131E+03</pdfrwt>
<totfact> 0.48133302E+04</totfact>
</mgrwt>
</event>
<event>
 7    0  0.4775379E-002  0.4402241E+03  0.7546771E-02  0.1030678E+00
         21   -1    0    0  502  501  0.00000000000E+00  0.00000000000E+00  0.59109863075E+03  0.59109863075E+03  0.00000000000E+00 0.  1.
         21   -1    0    0  501  502 -0.00000000000E+00 -0.00000000000E+00 -0.81964864385E+02  0.81964864385E+02  0.00000000000E+00 0.  1.
      99926    2    1    2    0    0  0.35527136788E-14  0.00000000000E+00  0.50913376637E+03  0.67306349514E+03  0.44022412068E+03 0.  0.
      99925    2    3    3    0    0 -0.19069277402E+02  0.81528736276E+02  0.24508582332E+03  0.36912370421E+03  0.26301079073E+03 0.  0.
         25    1    4    4    0    0 -0.94354475161E+01  0.81471187289E+02  0.11776072787E+03  0.19037247479E+03  0.12509000000E+03 0.  0.
         25    1    3    3    0    0  0.19069277402E+02 -0.81528736276E+02  0.26404794305E+03  0.30393979092E+03  0.12509000000E+03 0.  0.
         25    1    4    4    0    0 -0.96338298859E+01  0.57548986809E-01  0.12732509545E+03  0.17875122942E+03  0.12509000000E+03 0.  0.
<mgrwt>
<rscale>  2 0.44022412E+03</rscale>
<asrwt>0</asrwt>
<pdfrwt beam="1">  1       21 0.86926267E-01 0.44022412E+03</pdfrwt>
<pdfrwt beam="2">  1       21 0.12053657E-01 0.44022412E+03</pdfrwt>
<totfact> 0.61208430E+04</totfact>
</mgrwt>
</event>
<event>
 7    0  0.4775379E-002  0.4235516E+03  0.7546771E-02  0.1035917E+00
         21   -1    0    0  502  501  0.00000000000E+00  0.00000000000E+00  0.99440633542E+02  0.99440633542E+02  0.00000000000E+00 0. -1.
         21   -1    0    0  501  502 -0.00000000000E+00 -0.00000000000E+00 -0.45101276396E+03  0.45101276396E+03  0.00000000000E+00 0. -1.
      99926    2    1    2    0    0  0.17763568394E-14  0.00000000000E+00 -0.35157213042E+03  0.55045339750E+03  0.42355162605E+03 0.  0.
      99925    2    3    3    0    0  0.15665540051E+02 -0.52519368148E+02 -0.30278241528E+03  0.40543051110E+03  0.26399434682E+03 0.  0.
         25    1    3    3    0    0 -0.15665540051E+02  0.52519368148E+02 -0.48789715134E+02  0.14502288640E+03  0.12509000000E+03 0.  0.
         25    1    4    4    0    0 -0.92839091555E+01 -0.62392660160E+02 -0.13619654523E+03  0.19538690346E+03  0.12509000000E+03 0.  0.
         25    1    4    4    0    0  0.24949449207E+02  0.98732920120E+01 -0.16658587005E+03  0.21004360764E+03  0.12509000000E+03 0.  0.
<mgrwt>
<rscale>  2 0.42355163E+03</rscale>
<asrwt>0</asrwt>
<pdfrwt beam="1">  1       21 0.14623623E-01 0.42355163E+03</pdfrwt>
<pdfrwt beam="2">  1       21 0.66325406E-01 0.42355163E+03</pdfrwt>
<totfact> 0.79947500E+04</totfact>
</mgrwt>
</event>
<event>
 7    0  0.4775379E-002  0.4517589E+03  0.7546771E-02  0.1027199E+00
         21   -1    0    0  502  501  0.00000000000E+00  0.00000000000E+00  0.19733714141E+03  0.19733714141E+03  0.00000000000E+00 0.  1.
         21   -1    0    0  501  502 -0.00000000000E+00 -0.00000000000E+00 -0.25855002747E+03  0.25855002747E+03  0.00000000000E+00 0.  1.
      99926    2    1    2    0    0  0.00000000000E+00  0.00000000000E+00 -0.61212886061E+02  0.45588716888E+03  0.45175888849E+03 0.  0.
      99925    2    3    3    0    0 -0.26429856351E+02 -0.10701480159E+03 -0.37749531702E+02  0.28751632175E+03  0.26284958258E+03 0.  0.
         25    1    3    3    0    0  0.26429856351E+02  0.10701480159E+03 -0.23463354359E+02  0.16837084713E+03  0.12509000000E+03 0.  0.
         25    1    4    4    0    0  0.91573784737E+01 -0.87144037494E+02 -0.30580547445E+02  0.15575820631E+03  0.12509000000E+03 0.  0.
         25    1    4    4    0    0 -0.35587234825E+02 -0.19870764097E+02 -0.71689842570E+01  0.13175811544E+03  0.12509000000E+03 0.  0.
<mgrwt>
<rscale>  2 0.45175889E+03</rscale>
<asrwt>0</asrwt>
<pdfrwt beam="1">  1       21 0.29020168E-01 0.45175889E+03</pdfrwt>
<pdfrwt beam="2">  1       21 0.38022063E-01 0.45175889E+03</pdfrwt>
<totfact> 0.70280404E+04</totfact>
</mgrwt>
</event>
<event>
 7    0  0.4775379E-002  0.4621045E+03  0.7546771E-02  0.1024173E+00
         21   -1    0    0  502  501  0.00000000000E+00  0.00000000000E+00  0.45773544799E+03  0.45773544799E+03  0.00000000000E+00 0.  1.
         21   -1    0    0  501  502 -0.00000000000E+00 -0.00000000000E+00 -0.11662883475E+03  0.11662883475E+03  0.00000000000E+00 0.  1.
      99926    2    1    2    0    0  0.00000000000E+00  0.00000000000E+00  0.34110661324E+03  0.57436428273E+03  0.46210454194E+03 0.  0.
      99925    2    3    3    0    0  0.29306124042E+02 -0.11596190294E+03  0.20392696419E+03  0.35352095353E+03  0.26283996276E+03 0.  0.
         25    1    4    4    0    0  0.25861930169E+02 -0.59485074553E+02  0.55798275902E+02  0.15155285949E+03  0.12509000000E+03 0.  0.
         25    1    4    4    0    0  0.34441938733E+01 -0.56476828388E+02  0.14812868829E+03  0.20196809404E+03  0.12509000000E+03 0.  0.
         25    1    3    3    0    0 -0.29306124042E+02  0.11596190294E+03  0.13717964905E+03  0.22084332920E+03  0.12509000000E+03 0.  0.
<mgrwt>
<rscale>  2 0.46210454E+03</rscale>
<asrwt>0</asrwt>
<pdfrwt beam="1">  1       21 0.67314036E-01 0.46210454E+03</pdfrwt>
<pdfrwt beam="2">  1       21 0.17151299E-01 0.46210454E+03</pdfrwt>
<totfact> 0.57013675E+04</totfact>
</mgrwt>
</event>
<event>
 7    0  0.4775379E-002  0.4525620E+03  0.7546771E-02  0.1026961E+00
         21   -1    0    0  502  501  0.00000000000E+00  0.00000000000E+00  0.35812519103E+03  0.35812519103E+03  0.00000000000E+00 0.  1.
         21   -1    0    0  501  502 -0.00000000000E+00 -0.00000000000E+00 -0.14297537334E+03  0.14297537334E+03  0.00000000000E+00 0.  1.
      99926    2    1    2    0    0  0.00000000000E+00  0.00000000000E+00  0.21514981769E+03  0.50110056437E+03  0.45256196434E+03 0.  0.
      99925    2    3    3    0    0 -0.51089366319E+02 -0.80387144196E+02  0.19858505470E+03  0.34300529001E+03  0.26295320634E+03 0.  0.
         25    1    4    4    0    0 -0.23621676583E+02 -0.29759238435E+02  0.48827075099E+02  0.13955352822E+03  0.12509000000E+03 0.  0.
         25    1    4    4    0    0 -0.27467689736E+02 -0.50627905760E+02  0.14975797960E+03  0.20345176179E+03  0.12509000000E+03 0.  0.
         25    1    3    3    0    0  0.51089366319E+02  0.80387144196E+02  0.16564762993E+02  0.15809527436E+03  0.12509000000E+03 0.  0.
<mgrwt>
<rscale>  2 0.45256196E+03</rscale>
<asrwt>0</asrwt>
<pdfrwt beam="1">  1       21 0.52665469E-01 0.45256196E+03</pdfrwt>
<pdfrwt beam="2">  1       21 0.21025790E-01 0.45256196E+03</pdfrwt>
<totfact> 0.66470493E+04</totfact>
</mgrwt>
</event>
<event>
 7    0  0.4775379E-002  0.4389403E+03  0.7546771E-02  0.1031072E+00
         21   -1    0    0  502  501  0.00000000000E+00  0.00000000000E+00  0.20110850043E+03  0.20110850043E+03  0.00000000000E+00 0.  1.
         21   -1    0    0  501  502 -0.00000000000E+00 -0.00000000000E+00 -0.23950820431E+03  0.23950820431E+03  0.00000000000E+00 0.  1.
      99926    2    1    2    0    0 -0.35527136788E-14  0.00000000000E+00 -0.38399703878E+02  0.44061670474E+03  0.43894025019E+03 0.  0.
      99925    2    3    3    0    0 -0.25369993663E+02 -0.53254031345E+02  0.53190935615E+02  0.27473728535E+03  0.26300507961E+03 0.  0.
         25    1    3    3    0    0  0.25369993663E+02  0.53254031345E+02 -0.91590639492E+02  0.16587941939E+03  0.12509000000E+03 0.  0.
         25    1    4    4    0    0  0.98625303912E+01 -0.55732903186E+02  0.45054987055E+02  0.14450220054E+03  0.12509000000E+03 0.  0.
         25    1    4    4    0    0 -0.35232524054E+02  0.24788718410E+01  0.81359485602E+01  0.13023508481E+03  0.12509000000E+03 0.  0.
<mgrwt>
<rscale>  2 0.43894025E+03</rscale>
<asrwt>0</asrwt>
<pdfrwt beam="1">  1       21 0.29574780E-01 0.43894025E+03</pdfrwt>
<pdfrwt beam="2">  1       21 0.35221795E-01 0.43894025E+03</pdfrwt>
<totfact> 0.79296513E+04</totfact>
</mgrwt>
</event>
<event>
 7    0  0.4775379E-002  0.4538686E+03  0.7546771E-02  0.1026575E+00
         21   -1    0    0  502  501  0.00000000000E+00  0.00000000000E+00  0.16300683962E+03  0.16300683962E+03  0.00000000000E+00 0. -1.
         21   -1    0    0  501  502 -0.00000000000E+00 -0.00000000000E+00 -0.31593266338E+03  0.31593266338E+03  0.00000000000E+00 0. -1.
      99926    2    1    2    0    0  0.00000000000E+00  0.00000000000E+00 -0.15292582376E+03  0.47893950300E+03  0.45386863734E+03 0.  0.
      99925    2    3    3    0    0 -0.70553317531E+02  0.62532926503E+02 -0.16085570561E+03  0.32210032219E+03  0.26265171238E+03 0.  0.
         25    1    4    4    0    0  0.96361578202E+00  0.20511707405E+02 -0.53636698544E+02  0.13764469560E+03  0.12509000000E+03 0.  0.
         25    1    4    4    0    0 -0.71516933313E+02  0.42021219098E+02 -0.10721900707E+03  0.18445562659E+03  0.12509000000E+03 0.  0.
         25    1    3    3    0    0  0.70553317531E+02 -0.62532926503E+02  0.79298818479E+01  0.15683918081E+03  0.12509000000E+03 0.  0.
<mgrwt>
<rscale>  2 0.45386864E+03</rscale>
<asrwt>0</asrwt>
<pdfrwt beam="1">  1       21 0.23971594E-01 0.45386864E+03</pdfrwt>
<pdfrwt beam="2">  1       21 0.46460685E-01 0.45386864E+03</pdfrwt>
<totfact> 0.67380421E+04</totfact>
</mgrwt>
</event>
<event>
 7    0  0.4775379E-002  0.4572028E+03  0.7546771E-02  0.1025596E+00
         21   -1    0    0  502  501  0.00000000000E+00  0.00000000000E+00  0.24725789886E+03  0.24725789886E+03  0.00000000000E+00 0.  1.
         21   -1    0    0  501  502 -0.00000000000E+00 -0.00000000000E+00 -0.21135260419E+03  0.21135260419E+03  0.00000000000E+00 0.  1.
      99926    2    1    2    0    0 -0.14210854715E-13  0.71054273576E-14  0.35905294668E+02  0.45861050305E+03  0.45720280327E+03 0.  0.
      99925    2    3    3    0    0  0.93385121275E+02 -0.63338035397E+02  0.45709551870E+02  0.28986181664E+03  0.26305516914E+03 0.  0.
         25    1    3    3    0    0 -0.93385121275E+02  0.63338035397E+02 -0.98042572025E+01  0.16874868640E+03  0.12509000000E+03 0.  0.
         25    1    4    4    0    0  0.49573688951E+02 -0.72821433897E+02  0.17220016536E+02  0.15396281675E+03  0.12509000000E+03 0.  0.
         25    1    4    4    0    0  0.43811432324E+02  0.94833985000E+01  0.28489535334E+02  0.13589899990E+03  0.12509000000E+03 0.  0.
<mgrwt>
<rscale>  2 0.45720280E+03</rscale>
<asrwt>0</asrwt>
<pdfrwt beam="1">  1       21 0.36361456E-01 0.45720280E+03</pdfrwt>
<pdfrwt beam="2">  1       21 0.31081265E-01 0.45720280E+03</pdfrwt>
<totfact> 0.67095119E+04</totfact>
</mgrwt>
</event>
<event>
 7    0  0.4775379E-002  0.4526598E+03  0.7546771E-02  0.1026932E+00
         21   -1    0    0  502  501  0.00000000000E+00  0.00000000000E+00  0.86622399988E+03  0.86622399988E+03  0.00000000000E+00 0.  1.
         21   -1    0    0  501  502 -0.00000000000E+00 -0.00000000000E+00 -0.59136227116E+02  0.59136227116E+02  0.00000000000E+00 0.  1.
      99926    2    1    2    0    0 -0.71054273576E-14  0.71054273576E-14  0.80708777277E+03  0.92536022700E+03  0.45265978036E+03 0.  0.
      99925    2    3    3    0    0 -0.52552475605E+02  0.51745528454E+02  0.33948194773E+03  0.43572558963E+03  0.26300082550E+03 0.  0.
         25    1    3    3    0    0  0.52552475605E+02 -0.51745528454E+02  0.46760582504E+03  0.48963463737E+03  0.12509000000E+03 0.  0.
         25    1    4    4    0    0 -0.66961493008E+02  0.28736825804E+02  0.16870523195E+03  0.22230296915E+03  0.12509000000E+03 0.  0.
         25    1    4    4    0    0  0.14409017404E+02  0.23008702650E+02  0.17077671578E+03  0.21342262048E+03  0.12509000000E+03 0.  0.
<mgrwt>
<rscale>  2 0.45265978E+03</rscale>
<asrwt>0</asrwt>
<pdfrwt beam="1">  1       21 0.12738588E+00 0.45265978E+03</pdfrwt>
<pdfrwt beam="2">  1       21 0.86965045E-02 0.45265978E+03</pdfrwt>
<totfact> 0.42935597E+04</totfact>
</mgrwt>
</event>
<event>
 7    0  0.4775379E-002  0.4604539E+03  0.7546771E-02  0.1024650E+00
         21   -1    0    0  502  501  0.00000000000E+00  0.00000000000E+00  0.53193185385E+03  0.53193185385E+03  0.00000000000E+00 0. -1.
         21   -1    0    0  501  502 -0.00000000000E+00 -0.00000000000E+00 -0.99645181197E+02  0.99645181197E+02  0.00000000000E+00 0. -1.
      99926    2    1    2    0    0  0.71054273576E-14  0.00000000000E+00  0.43228667265E+03  0.63157703504E+03  0.46045388894E+03 0.  0.
      99925    2    3    3    0    0 -0.36783377311E+02 -0.64410956279E+02  0.39701664278E+03  0.48193322046E+03  0.26293654407E+03 0.  0.
         25    1    4    4    0    0  0.97026231479E+01 -0.48598483720E+02  0.15620342167E+03  0.20616248581E+03  0.12509000000E+03 0.  0.
         25    1    4    4    0    0 -0.46486000459E+02 -0.15812472559E+02  0.24081322111E+03  0.27577073465E+03  0.12509000000E+03 0.  0.
         25    1    3    3    0    0  0.36783377311E+02  0.64410956279E+02  0.35270029870E+02  0.14964381458E+03  0.12509000000E+03 0.  0.
<mgrwt>
<rscale>  2 0.46045389E+03</rscale>
<asrwt>0</asrwt>
<pdfrwt beam="1">  1       21 0.78225271E-01 0.46045389E+03</pdfrwt>
<pdfrwt beam="2">  1       21 0.14653703E-01 0.46045389E+03</pdfrwt>
<totfact> 0.54395535E+04</totfact>
</mgrwt>
</event>
<event>
 7    0  0.4775379E-002  0.4677493E+03  0.7546771E-02  0.1022557E+00
         21   -1    0    0  502  501  0.00000000000E+00  0.00000000000E+00  0.43507048707E+02  0.43507048707E+02  0.00000000000E+00 0. -1.
         21   -1    0    0  501  502 -0.00000000000E+00 -0.00000000000E+00 -0.12572068512E+04  0.12572068512E+04  0.00000000000E+00 0. -1.
      99926    2    1    2    0    0  0.00000000000E+00  0.00000000000E+00 -0.12136998025E+04  0.13007139000E+04  0.46774933335E+03 0.  0.
      99925    2    3    3    0    0 -0.10734110925E+03 -0.25382676506E+02 -0.59636649909E+03  0.66124981992E+03  0.26349939109E+03 0.  0.
         25    1    4    4    0    0 -0.37062718588E+02 -0.10412823082E+02 -0.37351418508E+03  0.39578078092E+03  0.12509000000E+03 0.  0.
         25    1    4    4    0    0 -0.70278390665E+02 -0.14969853424E+02 -0.22285231401E+03  0.26546903899E+03  0.12509000000E+03 0.  0.
         25    1    3    3    0    0  0.10734110925E+03  0.25382676506E+02 -0.61733330345E+03  0.63946408004E+03  0.12509000000E+03 0.  0.
<mgrwt>
<rscale>  2 0.46774933E+03</rscale>
<asrwt>0</asrwt>
<pdfrwt beam="1">  1       21 0.63980952E-02 0.46774933E+03</pdfrwt>
<pdfrwt beam="2">  1       21 0.18488337E+00 0.46774933E+03</pdfrwt>
<totfact> 0.26378689E+04</totfact>
</mgrwt>
</event>
<event>
 7    0  0.4775379E-002  0.4516989E+03  0.7546771E-02  0.1027217E+00
         21   -1    0    0  502  501  0.00000000000E+00  0.00000000000E+00  0.69461982950E+03  0.69461982950E+03  0.00000000000E+00 0.  1.
         21   -1    0    0  501  502 -0.00000000000E+00 -0.00000000000E+00 -0.73432922899E+02  0.73432922899E+02  0.00000000000E+00 0.  1.
      99926    2    1    2    0    0  0.00000000000E+00  0.14210854715E-13  0.62118690660E+03  0.76805275240E+03  0.45169885713E+03 0.  0.
      99925    2    3    3    0    0 -0.47575192980E+01 -0.10360164013E+03  0.45469832676E+03  0.53541163577E+03  0.26298121137E+03 0.  0.
         25    1    4    4    0    0 -0.89437956167E+01 -0.79189912035E+02  0.30210924082E+03  0.33655391119E+03  0.12509000000E+03 0.  0.
         25    1    3    3    0    0  0.47575192980E+01  0.10360164013E+03  0.16648857984E+03  0.23264111663E+03  0.12509000000E+03 0.  0.
         25    1    4    4    0    0  0.41862763187E+01 -0.24411728098E+02  0.15258908594E+03  0.19885772458E+03  0.12509000000E+03 0.  0.
<mgrwt>
<rscale>  2 0.45169886E+03</rscale>
<asrwt>0</asrwt>
<pdfrwt beam="1">  1       21 0.10214997E+00 0.45169886E+03</pdfrwt>
<pdfrwt beam="2">  1       21 0.10798960E-01 0.45169886E+03</pdfrwt>
<totfact> 0.50648651E+04</totfact>
</mgrwt>
</event>
<event>
 7    0  0.4775379E-002  0.4621579E+03  0.7546771E-02  0.1024157E+00
         21   -1    0    0  502  501  0.00000000000E+00  0.00000000000E+00  0.12085062188E+04  0.12085062188E+04  0.00000000000E+00 0. -1.
         21   -1    0    0  501  502 -0.00000000000E+00 -0.00000000000E+00 -0.44184700619E+02  0.44184700619E+02  0.00000000000E+00 0. -1.
      99926    2    1    2    0    0  0.00000000000E+00  0.71054273576E-14  0.11643215182E+04  0.12526909194E+04  0.46215791878E+03 0.  0.
      99925    2    3    3    0    0  0.71257747568E+02 -0.63997289745E+02  0.53295065893E+03  0.60196056844E+03  0.26295779397E+03 0.  0.
         25    1    3    3    0    0 -0.71257747568E+02  0.63997289745E+02  0.63137085924E+03  0.65073035097E+03  0.12509000000E+03 0.  0.
         25    1    4    4    0    0  0.22168096903E+02 -0.30389123957E+02  0.17678369780E+03  0.21980652239E+03  0.12509000000E+03 0.  0.
         25    1    4    4    0    0  0.49089650665E+02 -0.33608165789E+02  0.35616696113E+03  0.38215404605E+03  0.12509000000E+03 0.  0.
<mgrwt>
<rscale>  2 0.46215792E+03</rscale>
<asrwt>0</asrwt>
<pdfrwt beam="1">  1       21 0.17772148E+00 0.46215792E+03</pdfrwt>
<pdfrwt beam="2">  1       21 0.64977508E-02 0.46215792E+03</pdfrwt>
<totfact> 0.28877310E+04</totfact>
</mgrwt>
</event>
<event>
 7    0  0.4775379E-002  0.4459598E+03  0.7546771E-02  0.1028934E+00
         21   -1    0    0  502  501  0.00000000000E+00  0.00000000000E+00  0.22633007178E+03  0.22633007178E+03  0.00000000000E+00 0.  1.
         21   -1    0    0  501  502 -0.00000000000E+00 -0.00000000000E+00 -0.21967931868E+03  0.21967931868E+03  0.00000000000E+00 0.  1.
      99926    2    1    2    0    0  0.00000000000E+00  0.00000000000E+00  0.66507530921E+01  0.44600939046E+03  0.44595980072E+03 0.  0.
      99925    2    3    3    0    0  0.10087703837E+03 -0.26177238669E+02 -0.26392598631E+01  0.28292892831E+03  0.26302164946E+03 0.  0.
         25    1    4    4    0    0  0.41120087451E+02  0.55317281344E+01 -0.36480557843E+02  0.13674721499E+03  0.12509000000E+03 0.  0.
         25    1    4    4    0    0  0.59756950916E+02 -0.31708966804E+02  0.33841297980E+02  0.14618171331E+03  0.12509000000E+03 0.  0.
         25    1    3    3    0    0 -0.10087703837E+03  0.26177238669E+02  0.92900129552E+01  0.16308046215E+03  0.12509000000E+03 0.  0.
<mgrwt>
<rscale>  2 0.44595980E+03</rscale>
<asrwt>0</asrwt>
<pdfrwt beam="1">  1       21 0.33283834E-01 0.44595980E+03</pdfrwt>
<pdfrwt beam="2">  1       21 0.32305782E-01 0.44595980E+03</pdfrwt>
<totfact> 0.74435492E+04</totfact>
</mgrwt>
</event>
<event>
 7    0  0.4775379E-002  0.4306607E+03  0.7546771E-02  0.1033651E+00
         21   -1    0    0  502  501  0.00000000000E+00  0.00000000000E+00  0.20243766102E+02  0.20243766102E+02  0.00000000000E+00 0. -1.
         21   -1    0    0  501  502 -0.00000000000E+00 -0.00000000000E+00 -0.22904409204E+04  0.22904409204E+04  0.00000000000E+00 0. -1.
      99926    2    1    2    0    0  0.00000000000E+00  0.00000000000E+00 -0.22701971542E+04  0.23106846865E+04  0.43066065648E+03 0.  0.
      99925    2    3    3    0    0  0.71573992928E+02 -0.38506048897E+02 -0.16513381202E+04  0.16741003917E+04  0.26284783018E+03 0.  0.
         25    1    3    3    0    0 -0.71573992928E+02  0.38506048897E+02 -0.61885903403E+03  0.63658429478E+03  0.12509000000E+03 0.  0.
         25    1    4    4    0    0 -0.44054243409E+01 -0.15720884192E+02 -0.69419874462E+03  0.70556782743E+03  0.12509000000E+03 0.  0.
         25    1    4    4    0    0  0.75979417269E+02 -0.22785164706E+02 -0.95713937560E+03  0.96853256424E+03  0.12509000000E+03 0.  0.
<mgrwt>
<rscale>  2 0.43066066E+03</rscale>
<asrwt>0</asrwt>
<pdfrwt beam="1">  1       21 0.29770275E-02 0.43066066E+03</pdfrwt>
<pdfrwt beam="2">  1       21 0.33682920E+00 0.43066066E+03</pdfrwt>
<totfact> 0.11250254E+04</totfact>
</mgrwt>
</event>
<event>
 7    0  0.4775379E-002  0.4515631E+03  0.7546771E-02  0.1027257E+00
         21   -1    0    0  502  501  0.00000000000E+00  0.00000000000E+00  0.14630073663E+03  0.14630073663E+03  0.00000000000E+00 0.  1.
         21   -1    0    0  501  502 -0.00000000000E+00 -0.00000000000E+00 -0.34844193993E+03  0.34844193993E+03  0.00000000000E+00 0.  1.
      99926    2    1    2    0    0  0.00000000000E+00  0.00000000000E+00 -0.20214120330E+03  0.49474267656E+03  0.45156311844E+03 0.  0.
      99925    2    3    3    0    0 -0.65670340754E+02  0.79869737456E+02 -0.16853083453E+03  0.32900513222E+03  0.26296381162E+03 0.  0.
         25    1    3    3    0    0  0.65670340754E+02 -0.79869737456E+02 -0.33610368769E+02  0.16573754434E+03  0.12509000000E+03 0.  0.
         25    1    4    4    0    0 -0.46506659351E+02  0.19865291141E+02 -0.12062345463E+03  0.18098349390E+03  0.12509000000E+03 0.  0.
         25    1    4    4    0    0 -0.19163681403E+02  0.60004446315E+02 -0.47907379902E+02  0.14802163832E+03  0.12509000000E+03 0.  0.
<mgrwt>
<rscale>  2 0.45156312E+03</rscale>
<asrwt>0</asrwt>
<pdfrwt beam="1">  1       21 0.21514815E-01 0.45156312E+03</pdfrwt>
<pdfrwt beam="2">  1       21 0.51241460E-01 0.45156312E+03</pdfrwt>
<totfact> 0.67463529E+04</totfact>
</mgrwt>
</event>
<event>
 7    0  0.4775379E-002  0.4526325E+03  0.7546771E-02  0.1026940E+00
         21   -1    0    0  502  501  0.00000000000E+00  0.00000000000E+00  0.31633193496E+03  0.31633193496E+03  0.00000000000E+00 0.  1.
         21   -1    0    0  501  502 -0.00000000000E+00 -0.00000000000E+00 -0.16191551950E+03  0.16191551950E+03  0.00000000000E+00 0.  1.
      99926    2    1    2    0    0  0.00000000000E+00  0.00000000000E+00  0.15441641546E+03  0.47824745447E+03  0.45263252020E+03 0.  0.
      99925    2    3    3    0    0  0.11811893411E+02  0.98722368381E+02  0.45458187324E+02  0.28484365300E+03  0.26302819813E+03 0.  0.
         25    1    4    4    0    0  0.21205285264E+02  0.84192081949E+02  0.54076785662E+01  0.15236378137E+03  0.12509000000E+03 0.  0.
         25    1    4    4    0    0 -0.93933918533E+01  0.14530286432E+02  0.40050508758E+02  0.13247987163E+03  0.12509000000E+03 0.  0.
         25    1    3    3    0    0 -0.11811893411E+02 -0.98722368381E+02  0.10895822813E+03  0.19340380147E+03  0.12509000000E+03 0.  0.
<mgrwt>
<rscale>  2 0.45263252E+03</rscale>
<asrwt>0</asrwt>
<pdfrwt beam="1">  1       21 0.46519402E-01 0.45263252E+03</pdfrwt>
<pdfrwt beam="2">  1       21 0.23811106E-01 0.45263252E+03</pdfrwt>
<totfact> 0.68098597E+04</totfact>
</mgrwt>
</event>
<event>
 7    0  0.4775379E-002  0.4516275E+03  0.7546771E-02  0.1027238E+00
         21   -1    0    0  502  501  0.00000000000E+00  0.00000000000E+00  0.16182229589E+03  0.16182229589E+03  0.00000000000E+00 0.  1.
         21   -1    0    0  501  502 -0.00000000000E+00 -0.00000000000E+00 -0.31511014041E+03  0.31511014041E+03  0.00000000000E+00 0.  1.
      99926    2    1    2    0    0  0.00000000000E+00  0.00000000000E+00 -0.15328784451E+03  0.47693243630E+03  0.45162748535E+03 0.  0.
      99925    2    3    3    0    0  0.83765660040E+02  0.71145183124E+02 -0.93200680959E+02  0.29991182110E+03  0.26302549424E+03 0.  0.
         25    1    4    4    0    0  0.19738567738E+02  0.69539428666E+02 -0.50194519047E+02  0.15294554926E+03  0.12509000000E+03 0.  0.
         25    1    4    4    0    0  0.64027092302E+02  0.16057544588E+01 -0.43006161912E+02  0.14696627184E+03  0.12509000000E+03 0.  0.
         25    1    3    3    0    0 -0.83765660040E+02 -0.71145183124E+02 -0.60087163556E+02  0.17702061521E+03  0.12509000000E+03 0.  0.
<mgrwt>
<rscale>  2 0.45162749E+03</rscale>
<asrwt>0</asrwt>
<pdfrwt beam="1">  1       21 0.23797397E-01 0.45162749E+03</pdfrwt>
<pdfrwt beam="2">  1       21 0.46339726E-01 0.45162749E+03</pdfrwt>
<totfact> 0.68745929E+04</totfact>
</mgrwt>
</event>
<event>
 7    0  0.4775379E-002  0.4535200E+03  0.7546771E-02  0.1026678E+00
         21   -1    0    0  502  501  0.00000000000E+00  0.00000000000E+00  0.17439185036E+03  0.17439185036E+03  0.00000000000E+00 0. -1.
         21   -1    0    0  501  502 -0.00000000000E+00 -0.00000000000E+00 -0.29485374312E+03  0.29485374312E+03  0.00000000000E+00 0. -1.
      99926    2    1    2    0    0 -0.14210854715E-13  0.00000000000E+00 -0.12046189277E+03  0.46924559348E+03  0.45351996581E+03 0.  0.
      99925    2    3    3    0    0  0.68869179867E+02  0.87993396909E+02 -0.74487978910E+02  0.29532920354E+03  0.26303056405E+03 0.  0.
         25    1    4    4    0    0  0.72161911821E+02  0.45392940109E+02 -0.21410118820E+02  0.15288479917E+03  0.12509000000E+03 0.  0.
         25    1    3    3    0    0 -0.68869179867E+02 -0.87993396909E+02 -0.45973913855E+02  0.17391638994E+03  0.12509000000E+03 0.  0.
         25    1    4    4    0    0 -0.32927319538E+01  0.42600456800E+02 -0.53077860091E+02  0.14244440437E+03  0.12509000000E+03 0.  0.
<mgrwt>
<rscale>  2 0.45351997E+03</rscale>
<asrwt>0</asrwt>
<pdfrwt beam="1">  1       21 0.25645861E-01 0.45351997E+03</pdfrwt>
<pdfrwt beam="2">  1       21 0.43360844E-01 0.45351997E+03</pdfrwt>
<totfact> 0.68290160E+04</totfact>
</mgrwt>
</event>
<event>
 7    0  0.4775379E-002  0.4548709E+03  0.7546771E-02  0.1026279E+00
         21   -1    0    0  502  501  0.00000000000E+00  0.00000000000E+00  0.29496429584E+03  0.29496429584E+03  0.00000000000E+00 0.  1.
         21   -1    0    0  501  502 -0.00000000000E+00 -0.00000000000E+00 -0.17536659020E+03  0.17536659020E+03  0.00000000000E+00 0.  1.
      99926    2    1    2    0    0  0.00000000000E+00  0.00000000000E+00  0.11959770563E+03  0.47033088604E+03  0.45487089506E+03 0.  0.
      99925    2    3    3    0    0 -0.90843936404E+02 -0.42260621105E+02  0.21262863166E+02  0.28229942532E+03  0.26306325344E+03 0.  0.
         25    1    3    3    0    0  0.90843936404E+02  0.42260621105E+02  0.98334842467E+02  0.18803146072E+03  0.12509000000E+03 0.  0.
         25    1    4    4    0    0 -0.77595644965E+02 -0.86414971372E+01 -0.11907383424E+02  0.14793597761E+03  0.12509000000E+03 0.  0.
         25    1    4    4    0    0 -0.13248291439E+02 -0.33619123967E+02  0.33170246590E+02  0.13436344771E+03  0.12509000000E+03 0.  0.
<mgrwt>
<rscale>  2 0.45487090E+03</rscale>
<asrwt>0</asrwt>
<pdfrwt beam="1">  1       21 0.43377102E-01 0.45487090E+03</pdfrwt>
<pdfrwt beam="2">  1       21 0.25789204E-01 0.45487090E+03</pdfrwt>
<totfact> 0.67480195E+04</totfact>
</mgrwt>
</event>
<event>
 7    0  0.4775379E-002  0.4543222E+03  0.7546771E-02  0.1026441E+00
         21   -1    0    0  502  501  0.00000000000E+00  0.00000000000E+00  0.46885255530E+02  0.46885255530E+02  0.00000000000E+00 0.  1.
         21   -1    0    0  501  502 -0.00000000000E+00 -0.00000000000E+00 -0.11006054690E+04  0.11006054690E+04  0.00000000000E+00 0.  1.
      99926    2    1    2    0    0 -0.71054273576E-14 -0.17763568394E-14 -0.10537202135E+04  0.11474907245E+04  0.45432221452E+03 0.  0.
      99925    2    3    3    0    0  0.41830011537E+02  0.92441820452E+01 -0.92578909395E+03  0.96350951840E+03  0.26349561818E+03 0.  0.
         25    1    3    3    0    0 -0.41830011537E+02 -0.92441820452E+01 -0.12793111951E+03  0.18398120612E+03  0.12509000000E+03 0.  0.
         25    1    4    4    0    0 -0.98871589427E+01 -0.14754239449E+02 -0.51744280411E+03  0.53264435332E+03  0.12509000000E+03 0.  0.
         25    1    4    4    0    0  0.51717170479E+02  0.23998421494E+02 -0.40834628984E+03  0.43086516509E+03  0.12509000000E+03 0.  0.
<mgrwt>
<rscale>  2 0.45432221E+03</rscale>
<asrwt>0</asrwt>
<pdfrwt beam="1">  1       21 0.68948913E-02 0.45432221E+03</pdfrwt>
<pdfrwt beam="2">  1       21 0.16185373E+00 0.45432221E+03</pdfrwt>
<totfact> 0.34045753E+04</totfact>
</mgrwt>
</event>
<event>
 7    0  0.4775379E-002  0.4467375E+03  0.7546771E-02  0.1028699E+00
         21   -1    0    0  502  501  0.00000000000E+00  0.00000000000E+00  0.62898901033E+02  0.62898901033E+02  0.00000000000E+00 0. -1.
         21   -1    0    0  501  502 -0.00000000000E+00 -0.00000000000E+00 -0.79323492771E+03  0.79323492771E+03  0.00000000000E+00 0. -1.
      99926    2    1    2    0    0  0.00000000000E+00 -0.71054273576E-14 -0.73033602668E+03  0.85613382874E+03  0.44673753016E+03 0.  0.
      99925    2    3    3    0    0 -0.82568466690E+02  0.62685127946E+02 -0.42643819978E+03  0.51153496884E+03  0.26281459083E+03 0.  0.
         25    1    4    4    0    0 -0.18405940694E+02  0.30356617271E+02 -0.26402771551E+03  0.29431011794E+03  0.12509000000E+03 0.  0.
         25    1    3    3    0    0  0.82568466690E+02 -0.62685127946E+02 -0.30389782690E+03  0.34459885991E+03  0.12509000000E+03 0.  0.
         25    1    4    4    0    0 -0.64162525996E+02  0.32328510674E+02 -0.16241048427E+03  0.21722485089E+03  0.12509000000E+03 0.  0.
<mgrwt>
<rscale>  2 0.44673753E+03</rscale>
<asrwt>0</asrwt>
<pdfrwt beam="1">  1       21 0.92498388E-02 0.44673753E+03</pdfrwt>
<pdfrwt beam="2">  1       21 0.11665219E+00 0.44673753E+03</pdfrwt>
<totfact> 0.48215892E+04</totfact>
</mgrwt>
</event>
<event>
 7    0  0.4775379E-002  0.4611296E+03  0.7546771E-02  0.1024454E+00
         21   -1    0    0  502  501  0.00000000000E+00  0.00000000000E+00  0.27468004459E+03  0.27468004459E+03  0.00000000000E+00 0. -1.
         21   -1    0    0  501  502 -0.00000000000E+00 -0.00000000000E+00 -0.19353473794E+03  0.19353473794E+03  0.00000000000E+00 0. -1.
      99926    2    1    2    0    0  0.00000000000E+00  0.14210854715E-13  0.81145306650E+02  0.46821478252E+03  0.46112961495E+03 0.  0.
      99925    2    3    3    0    0  0.55209572931E+02  0.89213619827E+02  0.10725670964E+03  0.30287730833E+03  0.26310358271E+03 0.  0.
         25    1    3    3    0    0 -0.55209572931E+02 -0.89213619827E+02 -0.26111402989E+02  0.16533747419E+03  0.12509000000E+03 0.  0.
         25    1    4    4    0    0 -0.57777617634E+01  0.19731570691E+02  0.35965011775E+02  0.13177142173E+03  0.12509000000E+03 0.  0.
         25    1    4    4    0    0  0.60987334695E+02  0.69482049135E+02  0.71291697863E+02  0.17110588660E+03  0.12509000000E+03 0.  0.
<mgrwt>
<rscale>  2 0.46112961E+03</rscale>
<asrwt>0</asrwt>
<pdfrwt beam="1">  1       21 0.40394124E-01 0.46112961E+03</pdfrwt>
<pdfrwt beam="2">  1       21 0.28460991E-01 0.46112961E+03</pdfrwt>
<totfact> 0.64377615E+04</totfact>
</mgrwt>
</event>
<event>
 7    0  0.4775379E-002  0.4564848E+03  0.7546771E-02  0.1025806E+00
         21   -1    0    0  502  501  0.00000000000E+00  0.00000000000E+00  0.12654325663E+03  0.12654325663E+03  0.00000000000E+00 0. -1.
         21   -1    0    0  501  502 -0.00000000000E+00 -0.00000000000E+00 -0.41167420505E+03  0.41167420505E+03  0.00000000000E+00 0. -1.
      99926    2    1    2    0    0  0.66613381478E-15  0.00000000000E+00 -0.28513094842E+03  0.53821746168E+03  0.45648480622E+03 0.  0.
      99925    2    3    3    0    0 -0.58222700357E+00  0.11396033525E+03 -0.19130870366E+03  0.34472994604E+03  0.26315854270E+03 0.  0.
         25    1    4    4    0    0  0.11851109792E+02  0.95985190329E+02 -0.87501009912E+02  0.18071397401E+03  0.12509000000E+03 0.  0.
         25    1    3    3    0    0  0.58222700357E+00 -0.11396033525E+03 -0.93822244754E+02  0.19348751564E+03  0.12509000000E+03 0.  0.
         25    1    4    4    0    0 -0.12433336796E+02  0.17975144921E+02 -0.10380769375E+03  0.16401597203E+03  0.12509000000E+03 0.  0.
<mgrwt>
<rscale>  2 0.45648481E+03</rscale>
<asrwt>0</asrwt>
<pdfrwt beam="1">  1       21 0.18609303E-01 0.45648481E+03</pdfrwt>
<pdfrwt beam="2">  1       21 0.60540323E-01 0.45648481E+03</pdfrwt>
<totfact> 0.61921028E+04</totfact>
</mgrwt>
</event>
<event>
 7    0  0.4775379E-002  0.4536922E+03  0.7546771E-02  0.1026627E+00
         21   -1    0    0  502  501  0.00000000000E+00  0.00000000000E+00  0.93267206028E+03  0.93267206028E+03  0.00000000000E+00 0. -1.
         21   -1    0    0  501  502 -0.00000000000E+00 -0.00000000000E+00 -0.55173899152E+02  0.55173899152E+02  0.00000000000E+00 0. -1.
      99926    2    1    2    0    0 -0.88817841970E-15  0.00000000000E+00  0.87749816112E+03  0.98784595943E+03  0.45369220490E+03 0.  0.
      99925    2    3    3    0    0  0.70426613772E+01  0.11119593006E+03  0.54181640205E+03  0.61268747903E+03  0.26345170237E+03 0.  0.
         25    1    4    4    0    0  0.33248529287E+02  0.56009520841E+02  0.33397492521E+03  0.36253177777E+03  0.12509000000E+03 0.  0.
         25    1    4    4    0    0 -0.26205867910E+02  0.55186409224E+02  0.20784147684E+03  0.25015570126E+03  0.12509000000E+03 0.  0.
         25    1    3    3    0    0 -0.70426613772E+01 -0.11119593006E+03  0.33568175908E+03  0.37515848040E+03  0.12509000000E+03 0.  0.
<mgrwt>
<rscale>  2 0.45369220E+03</rscale>
<asrwt>0</asrwt>
<pdfrwt beam="1">  1       21 0.13715765E+00 0.45369220E+03</pdfrwt>
<pdfrwt beam="2">  1       21 0.81138093E-02 0.45369220E+03</pdfrwt>
<totfact> 0.40050359E+04</totfact>
</mgrwt>
</event>
<event>
 7    0  0.4775379E-002  0.4553718E+03  0.7546771E-02  0.1026132E+00
         21   -1    0    0  502  501  0.00000000000E+00  0.00000000000E+00  0.83781758486E+02  0.83781758486E+02  0.00000000000E+00 0. -1.
         21   -1    0    0  501  502 -0.00000000000E+00 -0.00000000000E+00 -0.61876087041E+03  0.61876087041E+03  0.00000000000E+00 0. -1.
      99926    2    1    2    0    0  0.00000000000E+00  0.00000000000E+00 -0.53497911192E+03  0.70254262889E+03  0.45537182085E+03 0.  0.
      99925    2    3    3    0    0  0.52293507227E+02 -0.27131741043E+02 -0.48505297034E+03  0.55553626854E+03  0.26433580795E+03 0.  0.
         25    1    4    4    0    0 -0.16745113379E+02 -0.14542659032E+02 -0.21378092159E+03  0.24867987110E+03  0.12509000000E+03 0.  0.
         25    1    4    4    0    0  0.69038620606E+02 -0.12589082011E+02 -0.27127204874E+03  0.30685639744E+03  0.12509000000E+03 0.  0.
         25    1    3    3    0    0 -0.52293507227E+02  0.27131741043E+02 -0.49926141585E+02  0.14700636035E+03  0.12509000000E+03 0.  0.
<mgrwt>
<rscale>  2 0.45537182E+03</rscale>
<asrwt>0</asrwt>
<pdfrwt beam="1">  1       21 0.12320847E-01 0.45537182E+03</pdfrwt>
<pdfrwt beam="2">  1       21 0.90994246E-01 0.45537182E+03</pdfrwt>
<totfact> 0.52611015E+04</totfact>
</mgrwt>
</event>
<event>
 7    0  0.4775379E-002  0.4574932E+03  0.7546771E-02  0.1025511E+00
         21   -1    0    0  502  501  0.00000000000E+00  0.00000000000E+00  0.78618360540E+03  0.78618360540E+03  0.00000000000E+00 0.  1.
         21   -1    0    0  501  502 -0.00000000000E+00 -0.00000000000E+00 -0.66555721440E+02  0.66555721440E+02  0.00000000000E+00 0.  1.
      99926    2    1    2    0    0  0.00000000000E+00  0.00000000000E+00  0.71962788396E+03  0.85273932684E+03  0.45749324385E+03 0.  0.
      99925    2    3    3    0    0 -0.60840881579E+02 -0.83769576978E+02  0.35237307808E+03  0.45118913641E+03  0.26207994153E+03 0.  0.
         25    1    4    4    0    0 -0.60559377476E+02 -0.18145408495E+02  0.18708432110E+03  0.23376215552E+03  0.12509000000E+03 0.  0.
         25    1    3    3    0    0  0.60840881579E+02  0.83769576978E+02  0.36725480588E+03  0.40155019043E+03  0.12509000000E+03 0.  0.
         25    1    4    4    0    0 -0.28150410289E+00 -0.65624168482E+02  0.16528875698E+03  0.21742698089E+03  0.12509000000E+03 0.  0.
<mgrwt>
<rscale>  2 0.45749324E+03</rscale>
<asrwt>0</asrwt>
<pdfrwt beam="1">  1       21 0.11561523E+00 0.45749324E+03</pdfrwt>
<pdfrwt beam="2">  1       21 0.97876066E-02 0.45749324E+03</pdfrwt>
<totfact> 0.44441506E+04</totfact>
</mgrwt>
</event>
<event>
 7    0  0.4775379E-002  0.4542431E+03  0.7546771E-02  0.1026464E+00
         21   -1    0    0  502  501  0.00000000000E+00  0.00000000000E+00  0.52080650682E+03  0.52080650682E+03  0.00000000000E+00 0.  1.
         21   -1    0    0  501  502 -0.00000000000E+00 -0.00000000000E+00 -0.99046776323E+02  0.99046776323E+02  0.00000000000E+00 0.  1.
      99926    2    1    2    0    0 -0.71054273576E-14  0.00000000000E+00  0.42175973050E+03  0.61985328314E+03  0.45424313132E+03 0.  0.
      99925    2    3    3    0    0  0.43915981747E+02 -0.67570266306E+02  0.37258644241E+03  0.46313737871E+03  0.26302323119E+03 0.  0.
         25    1    4    4    0    0  0.50874676743E+02 -0.51649887810E+02  0.23880859223E+03  0.27916481775E+03  0.12509000000E+03 0.  0.
         25    1    3    3    0    0 -0.43915981747E+02  0.67570266306E+02  0.49173288086E+02  0.15671590443E+03  0.12509000000E+03 0.  0.
         25    1    4    4    0    0 -0.69586949953E+01 -0.15920378496E+02  0.13377785018E+03  0.18397256096E+03  0.12509000000E+03 0.  0.
<mgrwt>
<rscale>  2 0.45424313E+03</rscale>
<asrwt>0</asrwt>
<pdfrwt beam="1">  1       21 0.76589191E-01 0.45424313E+03</pdfrwt>
<pdfrwt beam="2">  1       21 0.14565703E-01 0.45424313E+03</pdfrwt>
<totfact> 0.57817371E+04</totfact>
</mgrwt>
</event>
<event>
 7    0  0.4775379E-002  0.4480855E+03  0.7546771E-02  0.1028294E+00
         21   -1    0    0  502  501  0.00000000000E+00  0.00000000000E+00  0.50441694060E+03  0.50441694060E+03  0.00000000000E+00 0. -1.
         21   -1    0    0  501  502 -0.00000000000E+00 -0.00000000000E+00 -0.99511249346E+02  0.99511249346E+02  0.00000000000E+00 0. -1.
      99926    2    1    2    0    0  0.00000000000E+00  0.71054273576E-14  0.40490569125E+03  0.60392818995E+03  0.44808552733E+03 0.  0.
      99925    2    3    3    0    0 -0.83248748886E+02 -0.55383602718E+02  0.20705332729E+03  0.34938789123E+03  0.26306485999E+03 0.  0.
         25    1    3    3    0    0  0.83248748886E+02  0.55383602718E+02  0.19785236397E+03  0.25454029871E+03  0.12509000000E+03 0.  0.
         25    1    4    4    0    0 -0.47490559108E+02  0.12664985346E+02  0.10561271407E+03  0.17093071267E+03  0.12509000000E+03 0.  0.
         25    1    4    4    0    0 -0.35758189778E+02 -0.68048588064E+02  0.10144061321E+03  0.17845717857E+03  0.12509000000E+03 0.  0.
<mgrwt>
<rscale>  2 0.44808553E+03</rscale>
<asrwt>0</asrwt>
<pdfrwt beam="1">  1       21 0.74178961E-01 0.44808553E+03</pdfrwt>
<pdfrwt beam="2">  1       21 0.14634007E-01 0.44808553E+03</pdfrwt>
<totfact> 0.61741244E+04</totfact>
</mgrwt>
</event>
<event>
 7    0  0.4775379E-002  0.4338933E+03  0.7546771E-02  0.1032637E+00
         21   -1    0    0  502  501  0.00000000000E+00  0.00000000000E+00  0.16195193996E+03  0.16195193996E+03  0.00000000000E+00 0. -1.
         21   -1    0    0  501  502 -0.00000000000E+00 -0.00000000000E+00 -0.29061610178E+03  0.29061610178E+03  0.00000000000E+00 0. -1.
      99926    2    1    2    0    0  0.00000000000E+00 -0.35527136788E-14 -0.12866416182E+03  0.45256804173E+03  0.43389326552E+03 0.  0.
      99925    2    3    3    0    0  0.53395342954E+02  0.10698011365E+02 -0.16008035793E+03  0.31256805754E+03  0.26288316702E+03 0.  0.
         25    1    3    3    0    0 -0.53395342954E+02 -0.10698011365E+02  0.31416196106E+02  0.13999998419E+03  0.12509000000E+03 0.  0.
         25    1    4    4    0    0  0.40701475860E+02 -0.14664947807E+02 -0.43738652587E+02  0.13939960065E+03  0.12509000000E+03 0.  0.
         25    1    4    4    0    0  0.12693867094E+02  0.25362959172E+02 -0.11634170534E+03  0.17316845689E+03  0.12509000000E+03 0.  0.
<mgrwt>
<rscale>  2 0.43389327E+03</rscale>
<asrwt>0</asrwt>
<pdfrwt beam="1">  1       21 0.23816462E-01 0.43389327E+03</pdfrwt>
<pdfrwt beam="2">  1       21 0.42737662E-01 0.43389327E+03</pdfrwt>
<totfact> 0.81582306E+04</totfact>
</mgrwt>
</event>
<event>
 7    0  0.4775379E-002  0.4147397E+03  0.7546771E-02  0.1038792E+00
         21   -1    0    0  502  501  0.00000000000E+00  0.00000000000E+00  0.21424784650E+03  0.21424784650E+03  0.00000000000E+00 0. -1.
         21   -1    0    0  501  502 -0.00000000000E+00 -0.00000000000E+00 -0.20071264733E+03  0.20071264733E+03  0.00000000000E+00 0. -1.
      99926    2    1    2    0    0  0.17763568394E-14  0.71054273576E-14  0.13535199161E+02  0.41496049383E+03  0.41473968923E+03 0.  0.
      99925    2    3    3    0    0  0.11214788951E+02  0.61660774019E+02  0.38156168975E+02  0.27289880723E+03  0.26284984918E+03 0.  0.
         25    1    3    3    0    0 -0.11214788951E+02 -0.61660774019E+02 -0.24620969814E+02  0.14206168660E+03  0.12509000000E+03 0.  0.
         25    1    4    4    0    0  0.27137494639E+02 -0.36836745652E+01  0.22492881084E+02  0.13001327191E+03  0.12509000000E+03 0.  0.
         25    1    4    4    0    0 -0.15922705687E+02  0.65344448584E+02  0.15663287891E+02  0.14288553532E+03  0.12509000000E+03 0.  0.
<mgrwt>
<rscale>  2 0.41473969E+03</rscale>
<asrwt>0</asrwt>
<pdfrwt beam="1">  1       21 0.31507036E-01 0.41473969E+03</pdfrwt>
<pdfrwt beam="2">  1       21 0.29516566E-01 0.41473969E+03</pdfrwt>
<totfact> 0.10006982E+05</totfact>
</mgrwt>
</event>
<event>
 7    0  0.4775379E-002  0.4561919E+03  0.7546771E-02  0.1025891E+00
         21   -1    0    0  502  501  0.00000000000E+00  0.00000000000E+00  0.73418634247E+03  0.73418634247E+03  0.00000000000E+00 0. -1.
         21   -1    0    0  501  502 -0.00000000000E+00 -0.00000000000E+00 -0.70864506181E+02  0.70864506181E+02  0.00000000000E+00 0. -1.
      99926    2    1    2    0    0 -0.14210854715E-13 -0.35527136788E-14  0.66332183629E+03  0.80505084865E+03  0.45619185703E+03 0.  0.
      99925    2    3    3    0    0 -0.11013408179E+03  0.13229307122E+02  0.46581449698E+03  0.54628224986E+03  0.26293843457E+03 0.  0.
         25    1    3    3    0    0  0.11013408179E+03 -0.13229307122E+02  0.19750733931E+03  0.25876859879E+03  0.12509000000E+03 0.  0.
         25    1    4    4    0    0 -0.60126959909E+02  0.44704899569E+02  0.26422761852E+03  0.30179052643E+03  0.12509000000E+03 0.  0.
         25    1    4    4    0    0 -0.50007121885E+02 -0.31475592447E+02  0.20158687846E+03  0.24449172343E+03  0.12509000000E+03 0.  0.
<mgrwt>
<rscale>  2 0.45619186E+03</rscale>
<asrwt>0</asrwt>
<pdfrwt beam="1">  1       21 0.10796858E+00 0.45619186E+03</pdfrwt>
<pdfrwt beam="2">  1       21 0.10421251E-01 0.45619186E+03</pdfrwt>
<totfact> 0.47079587E+04</totfact>
</mgrwt>
</event>
<event>
 6    0  0.4775379E-002  0.4362111E+03  0.7546771E-02  0.1031916E+00
         21   -1    0    0  502  501  0.00000000000E+00  0.00000000000E+00  0.10154974631E+04  0.10154974631E+04  0.00000000000E+00 0.  1.
         21   -1    0    0  501  502 -0.00000000000E+00 -0.00000000000E+00 -0.46844056640E+02  0.46844056640E+02  0.00000000000E+00 0.  1.
      99926    2    1    2    0    0  0.00000000000E+00  0.00000000000E+00  0.96865340642E+03  0.10623415197E+04  0.43621105294E+03 0.  0.
         25    1    3    3    0    0  0.21472947921E+02  0.86288489315E+02  0.33817554069E+03  0.37137177505E+03  0.12509000000E+03 0.  0.
         25    1    3    3    0    0 -0.38848160861E+02 -0.79838849261E+02  0.39391533246E+03  0.42272948644E+03  0.12509000000E+03 0.  0.
         25    1    3    3    0    0  0.17375212940E+02 -0.64496400538E+01  0.23656253326E+03  0.26824025821E+03  0.12509000000E+03 0.  0.
<mgrwt>
<rscale>  2 0.43621105E+03</rscale>
<asrwt>0</asrwt>
<pdfrwt beam="1">  1       21 0.14933785E+00 0.43621105E+03</pdfrwt>
<pdfrwt beam="2">  1       21 0.68888325E-02 0.43621105E+03</pdfrwt>
<totfact> 0.42762337E+04</totfact>
</mgrwt>
</event>
<event>
 7    0  0.4775379E-002  0.4692610E+03  0.7546771E-02  0.1022129E+00
         21   -1    0    0  502  501  0.00000000000E+00  0.00000000000E+00  0.65216335788E+03  0.65216335788E+03  0.00000000000E+00 0. -1.
         21   -1    0    0  501  502 -0.00000000000E+00 -0.00000000000E+00 -0.84413613565E+02  0.84413613565E+02  0.00000000000E+00 0. -1.
      99926    2    1    2    0    0  0.00000000000E+00  0.00000000000E+00  0.56774974431E+03  0.73657697145E+03  0.46926097504E+03 0.  0.
      99925    2    3    3    0    0 -0.23318147201E+02  0.10512188509E+03  0.24997399589E+03  0.37849418618E+03  0.26301426508E+03 0.  0.
         25    1    4    4    0    0 -0.24418973911E+02  0.74345009543E+02  0.17700717149E+03  0.23043982640E+03  0.12509000000E+03 0.  0.
         25    1    3    3    0    0  0.23318147201E+02 -0.10512188509E+03  0.31777574843E+03  0.35808278526E+03  0.12509000000E+03 0.  0.
         25    1    4    4    0    0  0.11008267105E+01  0.30776875552E+02  0.72966824396E+02  0.14805435978E+03  0.12509000000E+03 0.  0.
<mgrwt>
<rscale>  2 0.46926098E+03</rscale>
<asrwt>0</asrwt>
<pdfrwt beam="1">  1       21 0.95906374E-01 0.46926098E+03</pdfrwt>
<pdfrwt beam="2">  1       21 0.12413767E-01 0.46926098E+03</pdfrwt>
<totfact> 0.45626430E+04</totfact>
</mgrwt>
</event>
<event>
 7    0  0.4775379E-002  0.4520539E+03  0.7546771E-02  0.1027111E+00
         21   -1    0    0  502  501  0.00000000000E+00  0.00000000000E+00  0.11979690258E+04  0.11979690258E+04  0.00000000000E+00 0.  1.
         21   -1    0    0  501  502 -0.00000000000E+00 -0.00000000000E+00 -0.42645655451E+02  0.42645655451E+02  0.00000000000E+00 0.  1.
      99926    2    1    2    0    0  0.00000000000E+00  0.00000000000E+00  0.11553233704E+04  0.12406146813E+04  0.45205386545E+03 0.  0.
      99925    2    3    3    0    0  0.59728430675E+02 -0.20356310872E+02  0.48040954063E+03  0.55131209858E+03  0.26300159409E+03 0.  0.
         25    1    4    4    0    0  0.11412876712E+02 -0.43224864378E+02  0.26726902317E+03  0.29846085422E+03  0.12509000000E+03 0.  0.
         25    1    3    3    0    0 -0.59728430675E+02  0.20356310872E+02  0.67491382974E+03  0.68930258269E+03  0.12509000000E+03 0.  0.
         25    1    4    4    0    0  0.48315553962E+02  0.22868553506E+02  0.21314051745E+03  0.25285124436E+03  0.12509000000E+03 0.  0.
<mgrwt>
<rscale>  2 0.45205387E+03</rscale>
<asrwt>0</asrwt>
<pdfrwt beam="1">  1       21 0.17617189E+00 0.45205387E+03</pdfrwt>
<pdfrwt beam="2">  1       21 0.62714207E-02 0.45205387E+03</pdfrwt>
<totfact> 0.31608069E+04</totfact>
</mgrwt>
</event>
<event>
 7    0  0.4775379E-002  0.4624115E+03  0.7546771E-02  0.1024084E+00
         21   -1    0    0  502  501  0.00000000000E+00  0.00000000000E+00  0.39978338851E+03  0.39978338851E+03  0.00000000000E+00 0.  1.
         21   -1    0    0  501  502 -0.00000000000E+00 -0.00000000000E+00 -0.13371264155E+03  0.13371264155E+03  0.00000000000E+00 0.  1.
      99926    2    1    2    0    0  0.00000000000E+00  0.17763568394E-14  0.26607074696E+03  0.53349603006E+03  0.46241147444E+03 0.  0.
      99925    2    3    3    0    0 -0.56429824034E+02 -0.13040136271E+02  0.44741927913E+02  0.27275032168E+03  0.26274803076E+03 0.  0.
         25    1    4    4    0    0 -0.24976727568E+02 -0.45030629561E+02  0.11487409042E+02  0.13576105180E+03  0.12509000000E+03 0.  0.
         25    1    4    4    0    0 -0.31453096466E+02  0.31990493290E+02  0.33254518871E+02  0.13698926988E+03  0.12509000000E+03 0.  0.
         25    1    3    3    0    0  0.56429824034E+02  0.13040136271E+02  0.22132881905E+03  0.26074570837E+03  0.12509000000E+03 0.  0.
<mgrwt>
<rscale>  2 0.46241147E+03</rscale>
<asrwt>0</asrwt>
<pdfrwt beam="1">  1       21 0.58791675E-01 0.46241147E+03</pdfrwt>
<pdfrwt beam="2">  1       21 0.19663624E-01 0.46241147E+03</pdfrwt>
<totfact> 0.59403374E+04</totfact>
</mgrwt>
</event>
<event>
 7    0  0.4775379E-002  0.4506173E+03  0.7546771E-02  0.1027538E+00
         21   -1    0    0  502  501  0.00000000000E+00  0.00000000000E+00  0.94803644076E+02  0.94803644076E+02  0.00000000000E+00 0. -1.
         21   -1    0    0  501  502 -0.00000000000E+00 -0.00000000000E+00 -0.53546443908E+03  0.53546443908E+03  0.00000000000E+00 0. -1.
      99926    2    1    2    0    0 -0.14210854715E-13  0.00000000000E+00 -0.44066079501E+03  0.63026808316E+03  0.45061726597E+03 0.  0.
      99925    2    3    3    0    0 -0.87375961960E+02 -0.24915196957E+02 -0.19422381391E+03  0.33934881683E+03  0.26301977840E+03 0.  0.
         25    1    4    4    0    0 -0.84222600233E+02 -0.13642835215E+02 -0.90282390893E+02  0.17628951060E+03  0.12509000000E+03 0.  0.
         25    1    3    3    0    0  0.87375961960E+02  0.24915196957E+02 -0.24643698109E+03  0.29091926632E+03  0.12509000000E+03 0.  0.
         25    1    4    4    0    0 -0.31533617269E+01 -0.11272361742E+02 -0.10394142302E+03  0.16305930623E+03  0.12509000000E+03 0.  0.
<mgrwt>
<rscale>  2 0.45061727E+03</rscale>
<asrwt>0</asrwt>
<pdfrwt beam="1">  1       21 0.13941712E-01 0.45061727E+03</pdfrwt>
<pdfrwt beam="2">  1       21 0.78744773E-01 0.45061727E+03</pdfrwt>
<totfact> 0.58862969E+04</totfact>
</mgrwt>
</event>
<event>
 7    0  0.4775379E-002  0.4516109E+03  0.7546771E-02  0.1027243E+00
         21   -1    0    0  502  501  0.00000000000E+00  0.00000000000E+00  0.41997697958E+03  0.41997697958E+03  0.00000000000E+00 0. -1.
         21   -1    0    0  501  502 -0.00000000000E+00 -0.00000000000E+00 -0.12140688053E+03  0.12140688053E+03  0.00000000000E+00 0. -1.
      99926    2    1    2    0    0  0.39968028887E-14  0.00000000000E+00  0.29857009904E+03  0.54138386011E+03  0.45161087226E+03 0.  0.
      99925    2    3    3    0    0  0.21995994852E+01 -0.44238234805E+02  0.30912873059E+03  0.40826416789E+03  0.26297756377E+03 0.  0.
         25    1    4    4    0    0  0.34926167164E+02 -0.40412550656E+02  0.13821722724E+03  0.19391885264E+03  0.12509000000E+03 0.  0.
         25    1    3    3    0    0 -0.21995994852E+01  0.44238234805E+02 -0.10558631547E+02  0.13311969222E+03  0.12509000000E+03 0.  0.
         25    1    4    4    0    0 -0.32726567678E+02 -0.38256841492E+01  0.17091150336E+03  0.21434531525E+03  0.12509000000E+03 0.  0.
<mgrwt>
<rscale>  2 0.45161087E+03</rscale>
<asrwt>0</asrwt>
<pdfrwt beam="1">  1       21 0.61761320E-01 0.45161087E+03</pdfrwt>
<pdfrwt beam="2">  1       21 0.17853953E-01 0.45161087E+03</pdfrwt>
<totfact> 0.64142571E+04</totfact>
</mgrwt>
</event>
<event>
 7    0  0.4775379E-002  0.4571767E+03  0.7546771E-02  0.1025603E+00
         21   -1    0    0  502  501  0.00000000000E+00  0.00000000000E+00  0.23690775507E+03  0.23690775507E+03  0.00000000000E+00 0.  1.
         21   -1    0    0  501  502 -0.00000000000E+00 -0.00000000000E+00 -0.22056107622E+03  0.22056107622E+03  0.00000000000E+00 0.  1.
      99926    2    1    2    0    0 -0.14210854715E-13  0.00000000000E+00  0.16346678850E+02  0.45746883128E+03  0.45717668104E+03 0.  0.
      99925    2    3    3    0    0  0.10498115417E+03 -0.42808322373E+02  0.30261576779E+02  0.28807364930E+03  0.26309137043E+03 0.  0.
         25    1    3    3    0    0 -0.10498115417E+03  0.42808322373E+02 -0.13914897929E+02  0.16939518198E+03  0.12509000000E+03 0.  0.
         25    1    4    4    0    0  0.13684387204E+02 -0.35359867878E+02  0.24071144307E+02  0.13290790344E+03  0.12509000000E+03 0.  0.
         25    1    4    4    0    0  0.91296766965E+02 -0.74484544959E+01  0.61904324719E+01  0.15516574586E+03  0.12509000000E+03 0.  0.
<mgrwt>
<rscale>  2 0.45717668E+03</rscale>
<asrwt>0</asrwt>
<pdfrwt beam="1">  1       21 0.34839376E-01 0.45717668E+03</pdfrwt>
<pdfrwt beam="2">  1       21 0.32435452E-01 0.45717668E+03</pdfrwt>
<totfact> 0.67190777E+04</totfact>
</mgrwt>
</event>
<event>
 7    0  0.4775379E-002  0.4344672E+03  0.7546771E-02  0.1032458E+00
         21   -1    0    0  502  501  0.00000000000E+00  0.00000000000E+00  0.28159054286E+02  0.28159054286E+02  0.00000000000E+00 0.  1.
         21   -1    0    0  501  502 -0.00000000000E+00 -0.00000000000E+00 -0.16758531552E+04  0.16758531552E+04  0.00000000000E+00 0.  1.
      99926    2    1    2    0    0  0.71054273576E-14  0.00000000000E+00 -0.16476941009E+04  0.17040122095E+04  0.43446721383E+03 0.  0.
      99925    2    3    3    0    0 -0.62852362578E+02 -0.67719549106E+02 -0.10764538603E+04  0.11119824151E+04  0.26308861888E+03 0.  0.
         25    1    4    4    0    0 -0.71350239380E+02 -0.46185841186E+02 -0.61392615448E+03  0.63227906801E+03  0.12509000000E+03 0.  0.
         25    1    4    4    0    0  0.84978768021E+01 -0.21533707920E+02 -0.46252770579E+03  0.47970334709E+03  0.12509000000E+03 0.  0.
         25    1    3    3    0    0  0.62852362578E+02  0.67719549106E+02 -0.57124024068E+03  0.59202979442E+03  0.12509000000E+03 0.  0.
<mgrwt>
<rscale>  2 0.43446721E+03</rscale>
<asrwt>0</asrwt>
<pdfrwt beam="1">  1       21 0.41410371E-02 0.43446721E+03</pdfrwt>
<pdfrwt beam="2">  1       21 0.24644901E+00 0.43446721E+03</pdfrwt>
<totfact> 0.22567036E+04</totfact>
</mgrwt>
</event>
<event>
 7    0  0.4775379E-002  0.4550411E+03  0.7546771E-02  0.1026229E+00
         21   -1    0    0  502  501  0.00000000000E+00  0.00000000000E+00  0.10191619638E+04  0.10191619638E+04  0.00000000000E+00 0.  1.
         21   -1    0    0  501  502 -0.00000000000E+00 -0.00000000000E+00 -0.50792327825E+02  0.50792327825E+02  0.00000000000E+00 0.  1.
      99926    2    1    2    0    0  0.00000000000E+00  0.00000000000E+00  0.96836963593E+03  0.10699542916E+04  0.45504113471E+03 0.  0.
      99925    2    3    3    0    0 -0.34711423270E+02 -0.96085313066E+01  0.86170715544E+03  0.90166406720E+03  0.26298604821E+03 0.  0.
         25    1    4    4    0    0 -0.43822361280E+02  0.20097222671E+02  0.50076611798E+03  0.51839995247E+03  0.12509000000E+03 0.  0.
         25    1    3    3    0    0  0.34711423270E+02  0.96085313066E+01  0.10666248049E+03  0.16829022439E+03  0.12509000000E+03 0.  0.
         25    1    4    4    0    0  0.91109380105E+01 -0.29705753978E+02  0.36094103746E+03  0.38326411473E+03  0.12509000000E+03 0.  0.
<mgrwt>
<rscale>  2 0.45504113E+03</rscale>
<asrwt>0</asrwt>
<pdfrwt beam="1">  1       21 0.14987675E+00 0.45504113E+03</pdfrwt>
<pdfrwt beam="2">  1       21 0.74694606E-02 0.45504113E+03</pdfrwt>
<totfact> 0.36541896E+04</totfact>
</mgrwt>
</event>
<event>
 6    0  0.4775379E-002  0.4472818E+03  0.7546771E-02  0.1028536E+00
         21   -1    0    0  502  501  0.00000000000E+00  0.00000000000E+00  0.32207269704E+02  0.32207269704E+02  0.00000000000E+00 0. -1.
         21   -1    0    0  501  502 -0.00000000000E+00 -0.00000000000E+00 -0.15529179869E+04  0.15529179869E+04  0.00000000000E+00 0. -1.
      99926    2    1    2    0    0  0.00000000000E+00 -0.14210854715E-13 -0.15207107172E+04  0.15851252566E+04  0.44728178336E+03 0.  0.
         25    1    3    3    0    0  0.10808530575E+02  0.71484816752E+02 -0.27272460040E+03  0.30863104044E+03  0.12509000000E+03 0.  0.
         25    1    3    3    0    0  0.22199110356E+01 -0.63894754064E+01 -0.52160671395E+03  0.53643902314E+03  0.12509000000E+03 0.  0.
         25    1    3    3    0    0 -0.13028441611E+02 -0.65095341345E+02 -0.72637940287E+03  0.74005519306E+03  0.12509000000E+03 0.  0.
<mgrwt>
<rscale>  2 0.44728178E+03</rscale>
<asrwt>0</asrwt>
<pdfrwt beam="1">  1       21 0.47363626E-02 0.44728178E+03</pdfrwt>
<pdfrwt beam="2">  1       21 0.22837032E+00 0.44728178E+03</pdfrwt>
<totfact> 0.23122965E+04</totfact>
</mgrwt>
</event>
<event>
 7    0  0.4775379E-002  0.4404210E+03  0.7546771E-02  0.1030618E+00
         21   -1    0    0  502  501  0.00000000000E+00  0.00000000000E+00  0.13491919581E+03  0.13491919581E+03  0.00000000000E+00 0. -1.
         21   -1    0    0  501  502 -0.00000000000E+00 -0.00000000000E+00 -0.35942003408E+03  0.35942003408E+03  0.00000000000E+00 0. -1.
      99926    2    1    2    0    0  0.00000000000E+00  0.00000000000E+00 -0.22450083828E+03  0.49433922989E+03  0.44042098931E+03 0.  0.
      99925    2    3    3    0    0  0.44976765034E+02 -0.27292130203E+02 -0.23734167084E+03  0.35803015153E+03  0.26284358642E+03 0.  0.
         25    1    3    3    0    0 -0.44976765034E+02  0.27292130203E+02  0.12840832563E+02  0.13630907837E+03  0.12509000000E+03 0.  0.
         25    1    4    4    0    0 -0.17331328305E+02 -0.10631799546E+02 -0.12430363791E+03  0.17751707693E+03  0.12509000000E+03 0.  0.
         25    1    4    4    0    0  0.62308093339E+02 -0.16660330657E+02 -0.11303803293E+03  0.18051307460E+03  0.12509000000E+03 0.  0.
<mgrwt>
<rscale>  2 0.44042099E+03</rscale>
<asrwt>0</asrwt>
<pdfrwt beam="1">  1       21 0.19841059E-01 0.44042099E+03</pdfrwt>
<pdfrwt beam="2">  1       21 0.52855886E-01 0.44042099E+03</pdfrwt>
<totfact> 0.73853772E+04</totfact>
</mgrwt>
</event>
<event>
 7    0  0.4775379E-002  0.4596101E+03  0.7546771E-02  0.1024894E+00
         21   -1    0    0  502  501  0.00000000000E+00  0.00000000000E+00  0.28556875495E+02  0.28556875495E+02  0.00000000000E+00 0.  1.
         21   -1    0    0  501  502 -0.00000000000E+00 -0.00000000000E+00 -0.18493043445E+04  0.18493043445E+04  0.00000000000E+00 0.  1.
      99926    2    1    2    0    0 -0.71054273576E-14 -0.71054273576E-14 -0.18207474690E+04  0.18778612200E+04  0.45961006916E+03 0.  0.
      99925    2    3    3    0    0  0.33095086200E+02  0.38660327768E+02 -0.15734570926E+04  0.15960990081E+04  0.26301124657E+03 0.  0.
         25    1    4    4    0    0 -0.85940479857E+01  0.17787217244E+02 -0.95772526811E+03  0.96606181999E+03  0.12509000000E+03 0.  0.
         25    1    4    4    0    0  0.41689134186E+02  0.20873110525E+02 -0.61573182444E+03  0.63003718810E+03  0.12509000000E+03 0.  0.
         25    1    3    3    0    0 -0.33095086200E+02 -0.38660327768E+02 -0.24729037641E+03  0.28176221187E+03  0.12509000000E+03 0.  0.
<mgrwt>
<rscale>  2 0.45961007E+03</rscale>
<asrwt>0</asrwt>
<pdfrwt beam="1">  1       21 0.41995402E-02 0.45961007E+03</pdfrwt>
<pdfrwt beam="2">  1       21 0.27195654E+00 0.45961007E+03</pdfrwt>
<totfact> 0.15255071E+04</totfact>
</mgrwt>
</event>
<event>
 7    0  0.4775379E-002  0.4570538E+03  0.7546771E-02  0.1025639E+00
         21   -1    0    0  502  501  0.00000000000E+00  0.00000000000E+00  0.60985331473E+03  0.60985331473E+03  0.00000000000E+00 0. -1.
         21   -1    0    0  501  502 -0.00000000000E+00 -0.00000000000E+00 -0.85634608932E+02  0.85634608932E+02  0.00000000000E+00 0. -1.
      99926    2    1    2    0    0  0.00000000000E+00 -0.14210854715E-13  0.52421870580E+03  0.69548792366E+03  0.45705382664E+03 0.  0.
      99925    2    3    3    0    0  0.65889453202E+02 -0.93856464706E+02  0.34295679973E+03  0.44718600522E+03  0.26306938395E+03 0.  0.
         25    1    4    4    0    0  0.23400962145E+02 -0.47298894537E+01  0.16195165977E+03  0.20602384592E+03  0.12509000000E+03 0.  0.
         25    1    4    4    0    0  0.42488491056E+02 -0.89126575252E+02  0.18100513996E+03  0.24116215931E+03  0.12509000000E+03 0.  0.
         25    1    3    3    0    0 -0.65889453202E+02  0.93856464706E+02  0.18126190606E+03  0.24830191844E+03  0.12509000000E+03 0.  0.
<mgrwt>
<rscale>  2 0.45705383E+03</rscale>
<asrwt>0</asrwt>
<pdfrwt beam="1">  1       21 0.89684308E-01 0.45705383E+03</pdfrwt>
<pdfrwt beam="2">  1       21 0.12593325E-01 0.45705383E+03</pdfrwt>
<totfact> 0.52298090E+04</totfact>
</mgrwt>
</event>
<event>
 7    0  0.4775379E-002  0.4539042E+03  0.7546771E-02  0.1026564E+00
         21   -1    0    0  502  501  0.00000000000E+00  0.00000000000E+00  0.23561821455E+03  0.23561821455E+03  0.00000000000E+00 0. -1.
         21   -1    0    0  501  502 -0.00000000000E+00 -0.00000000000E+00 -0.21860471352E+03  0.21860471352E+03  0.00000000000E+00 0. -1.
      99926    2    1    2    0    0  0.00000000000E+00  0.00000000000E+00  0.17013501030E+02  0.45422292808E+03  0.45390418501E+03 0.  0.
      99925    2    3    3    0    0 -0.45721669379E+02 -0.27852596467E+02  0.10941862680E+03  0.28974662720E+03  0.26289624170E+03 0.  0.
         25    1    3    3    0    0  0.45721669379E+02  0.27852596467E+02 -0.92405125773E+02  0.16447630088E+03  0.12509000000E+03 0.  0.
         25    1    4    4    0    0 -0.63761872543E+02 -0.17373522864E+02  0.57532373081E+02  0.15272490871E+03  0.12509000000E+03 0.  0.
         25    1    4    4    0    0  0.18040203164E+02 -0.10479073604E+02  0.51886253722E+02  0.13702171849E+03  0.12509000000E+03 0.  0.
<mgrwt>
<rscale>  2 0.45390419E+03</rscale>
<asrwt>0</asrwt>
<pdfrwt beam="1">  1       21 0.34649738E-01 0.45390419E+03</pdfrwt>
<pdfrwt beam="2">  1       21 0.32147752E-01 0.45390419E+03</pdfrwt>
<totfact> 0.69205893E+04</totfact>
</mgrwt>
</event>
<event>
 7    0  0.4775379E-002  0.4529524E+03  0.7546771E-02  0.1026845E+00
         21   -1    0    0  502  501  0.00000000000E+00  0.00000000000E+00  0.88231017421E+02  0.88231017421E+02  0.00000000000E+00 0. -1.
         21   -1    0    0  501  502 -0.00000000000E+00 -0.00000000000E+00 -0.58133153772E+03  0.58133153772E+03  0.00000000000E+00 0. -1.
      99926    2    1    2    0    0  0.71054273576E-14  0.00000000000E+00 -0.49310052030E+03  0.66956255514E+03  0.45295241707E+03 0.  0.
      99925    2    3    3    0    0  0.56411211573E+02  0.80794881000E+02 -0.38729798301E+03  0.47837750713E+03  0.26293587449E+03 0.  0.
         25    1    4    4    0    0  0.18207356928E+02  0.64869164427E+02 -0.25345382572E+03  0.29056129510E+03  0.12509000000E+03 0.  0.
         25    1    3    3    0    0 -0.56411211573E+02 -0.80794881000E+02 -0.10580253728E+03  0.19118504801E+03  0.12509000000E+03 0.  0.
         25    1    4    4    0    0  0.38203854646E+02  0.15925716574E+02 -0.13384415730E+03  0.18781621203E+03  0.12509000000E+03 0.  0.
<mgrwt>
<rscale>  2 0.45295242E+03</rscale>
<asrwt>0</asrwt>
<pdfrwt beam="1">  1       21 0.12975150E-01 0.45295242E+03</pdfrwt>
<pdfrwt beam="2">  1       21 0.85489932E-01 0.45295242E+03</pdfrwt>
<totfact> 0.55476968E+04</totfact>
</mgrwt>
</event>
<event>
 6    0  0.4775379E-002  0.4365922E+03  0.7546771E-02  0.1031798E+00
         21   -1    0    0  502  501  0.00000000000E+00  0.00000000000E+00  0.10306080364E+03  0.10306080364E+03  0.00000000000E+00 0.  1.
         21   -1    0    0  501  502 -0.00000000000E+00 -0.00000000000E+00 -0.46237925963E+03  0.46237925963E+03  0.00000000000E+00 0.  1.
      99926    2    1    2    0    0  0.35527136788E-14  0.00000000000E+00 -0.35931845599E+03  0.56544006328E+03  0.43659215791E+03 0.  0.
         25    1    3    3    0    0  0.43405384634E+02  0.29528275429E+02 -0.15500605286E+03  0.20598623980E+03  0.12509000000E+03 0.  0.
         25    1    3    3    0    0  0.89977181022E+01 -0.75829515148E+02 -0.67603509029E+02  0.16139645855E+03  0.12509000000E+03 0.  0.
         25    1    3    3    0    0 -0.52403102736E+02  0.46301239718E+02 -0.13670889410E+03  0.19805736492E+03  0.12509000000E+03 0.  0.
<mgrwt>
<rscale>  2 0.43659216E+03</rscale>
<asrwt>0</asrwt>
<pdfrwt beam="1">  1       21 0.15156001E-01 0.43659216E+03</pdfrwt>
<pdfrwt beam="2">  1       21 0.67996949E-01 0.43659216E+03</pdfrwt>
<totfact> 0.70585665E+04</totfact>
</mgrwt>
</event>
<event>
 7    0  0.4775379E-002  0.4337768E+03  0.7546771E-02  0.1032674E+00
         21   -1    0    0  502  501  0.00000000000E+00  0.00000000000E+00  0.95460179110E+03  0.95460179110E+03  0.00000000000E+00 0. -1.
         21   -1    0    0  501  502 -0.00000000000E+00 -0.00000000000E+00 -0.49277693032E+02  0.49277693032E+02  0.00000000000E+00 0. -1.
      99926    2    1    2    0    0 -0.71054273576E-14  0.00000000000E+00  0.90532409807E+03  0.10038794841E+04  0.43377678144E+03 0.  0.
      99925    2    3    3    0    0 -0.43392947487E+02 -0.71786750350E+02  0.49443913132E+03  0.56626064379E+03  0.26295394410E+03 0.  0.
         25    1    3    3    0    0  0.43392947487E+02  0.71786750350E+02  0.41088496675E+03  0.43761884034E+03  0.12509000000E+03 0.  0.
         25    1    4    4    0    0 -0.52115070935E+02 -0.94608343594E+01  0.23450614388E+03  0.27100946040E+03  0.12509000000E+03 0.  0.
         25    1    4    4    0    0  0.87221234487E+01 -0.62325915990E+02  0.25993298743E+03  0.29525118340E+03  0.12509000000E+03 0.  0.
<mgrwt>
<rscale>  2 0.43377678E+03</rscale>
<asrwt>0</asrwt>
<pdfrwt beam="1">  1       21 0.14038260E+00 0.43377678E+03</pdfrwt>
<pdfrwt beam="2">  1       21 0.72467202E-02 0.43377678E+03</pdfrwt>
<totfact> 0.46213499E+04</totfact>
</mgrwt>
</event>
<event>
 7    0  0.4775379E-002  0.4391003E+03  0.7546771E-02  0.1031023E+00
         21   -1    0    0  502  501  0.00000000000E+00  0.00000000000E+00  0.14677590735E+04  0.14677590735E+04  0.00000000000E+00 0. -1.
         21   -1    0    0  501  502 -0.00000000000E+00 -0.00000000000E+00 -0.32840724499E+02  0.32840724499E+02  0.00000000000E+00 0. -1.
      99926    2    1    2    0    0 -0.71054273576E-14  0.14210854715E-13  0.14349183490E+04  0.15005997980E+04  0.43910031365E+03 0.  0.
      99925    2    3    3    0    0  0.50687560603E+02 -0.80717422801E+02  0.98807073756E+03  0.10268859317E+04  0.26291900505E+03 0.  0.
         25    1    4    4    0    0 -0.96876973862E+01 -0.16361790726E+02  0.45703440207E+03  0.47422517062E+03  0.12509000000E+03 0.  0.
         25    1    4    4    0    0  0.60375257989E+02 -0.64355632075E+02  0.53103633549E+03  0.55266076111E+03  0.12509000000E+03 0.  0.
         25    1    3    3    0    0 -0.50687560603E+02  0.80717422801E+02  0.44684761142E+03  0.47371386625E+03  0.12509000000E+03 0.  0.
<mgrwt>
<rscale>  2 0.43910031E+03</rscale>
<asrwt>0</asrwt>
<pdfrwt beam="1">  1       21 0.21584688E+00 0.43910031E+03</pdfrwt>
<pdfrwt beam="2">  1       21 0.48295193E-02 0.43910031E+03</pdfrwt>
<totfact> 0.26941289E+04</totfact>
</mgrwt>
</event>
<event>
 7    0  0.4775379E-002  0.4533343E+03  0.7546771E-02  0.1026732E+00
         21   -1    0    0  502  501  0.00000000000E+00  0.00000000000E+00  0.57646184269E+02  0.57646184269E+02  0.00000000000E+00 0.  1.
         21   -1    0    0  501  502 -0.00000000000E+00 -0.00000000000E+00 -0.89126467933E+03  0.89126467933E+03  0.00000000000E+00 0.  1.
      99926    2    1    2    0    0  0.00000000000E+00  0.00000000000E+00 -0.83361849506E+03  0.94891086360E+03  0.45333434874E+03 0.  0.
      99925    2    3    3    0    0 -0.10116881502E+02 -0.96735556450E+02 -0.41069014088E+03  0.49727381901E+03  0.26297288850E+03 0.  0.
         25    1    4    4    0    0 -0.22835167830E+02 -0.19463657785E+02 -0.23427181810E+03  0.26726591949E+03  0.12509000000E+03 0.  0.
         25    1    3    3    0    0  0.10116881502E+02  0.96735556450E+02 -0.42292835418E+03  0.45163704458E+03  0.12509000000E+03 0.  0.
         25    1    4    4    0    0  0.12718286328E+02 -0.77271898666E+02 -0.17641832278E+03  0.23000789952E+03  0.12509000000E+03 0.  0.
<mgrwt>
<rscale>  2 0.45333435E+03</rscale>
<asrwt>0</asrwt>
<pdfrwt beam="1">  1       21 0.84773800E-02 0.45333435E+03</pdfrwt>
<pdfrwt beam="2">  1       21 0.13106834E+00 0.45333435E+03</pdfrwt>
<totfact> 0.41725777E+04</totfact>
</mgrwt>
</event>
<event>
 7    0  0.4775379E-002  0.4488333E+03  0.7546771E-02  0.1028071E+00
         21   -1    0    0  502  501  0.00000000000E+00  0.00000000000E+00  0.12039750251E+04  0.12039750251E+04  0.00000000000E+00 0. -1.
         21   -1    0    0  501  502 -0.00000000000E+00 -0.00000000000E+00 -0.41830463129E+02  0.41830463129E+02  0.00000000000E+00 0. -1.
      99926    2    1    2    0    0  0.35527136788E-14 -0.71054273576E-14  0.11621445619E+04  0.12458054882E+04  0.44883330043E+03 0.  0.
      99925    2    3    3    0    0 -0.19783246456E+02  0.40953803035E+02  0.46502882800E+03  0.53609678357E+03  0.26282952584E+03 0.  0.
         25    1    4    4    0    0 -0.17957380919E+02  0.38853428764E+01  0.15704727674E+03  0.20161576985E+03  0.12509000000E+03 0.  0.
         25    1    4    4    0    0 -0.18258655363E+01  0.37068460159E+02  0.30798155126E+03  0.33448101372E+03  0.12509000000E+03 0.  0.
         25    1    3    3    0    0  0.19783246456E+02 -0.40953803035E+02  0.69711573393E+03  0.70970870462E+03  0.12509000000E+03 0.  0.
<mgrwt>
<rscale>  2 0.44883330E+03</rscale>
<asrwt>0</asrwt>
<pdfrwt beam="1">  1       21 0.17705513E+00 0.44883330E+03</pdfrwt>
<pdfrwt beam="2">  1       21 0.61515395E-02 0.44883330E+03</pdfrwt>
<totfact> 0.32250742E+04</totfact>
</mgrwt>
</event>
<event>
 7    0  0.4775379E-002  0.4505851E+03  0.7546771E-02  0.1027548E+00
         21   -1    0    0  502  501  0.00000000000E+00  0.00000000000E+00  0.22521553702E+03  0.22521553702E+03  0.00000000000E+00 0. -1.
         21   -1    0    0  501  502 -0.00000000000E+00 -0.00000000000E+00 -0.22536954933E+03  0.22536954933E+03  0.00000000000E+00 0. -1.
      99926    2    1    2    0    0  0.17763568394E-14 -0.14210854715E-13 -0.15401230618E+00  0.45058508635E+03  0.45058506003E+03 0.  0.
      99925    2    3    3    0    0 -0.12038403000E+02  0.10852668622E+03  0.15302128472E+01  0.28453295754E+03  0.26274264520E+03 0.  0.
         25    1    3    3    0    0  0.12038403000E+02 -0.10852668622E+03 -0.16842251533E+01  0.16605212881E+03  0.12509000000E+03 0.  0.
         25    1    4    4    0    0 -0.61566465747E+01  0.90747904515E+02 -0.20922585693E+02  0.15607161549E+03  0.12509000000E+03 0.  0.
         25    1    4    4    0    0 -0.58817564255E+01  0.17778781703E+02  0.22452798540E+02  0.12846134204E+03  0.12509000000E+03 0.  0.
<mgrwt>
<rscale>  2 0.45058506E+03</rscale>
<asrwt>0</asrwt>
<pdfrwt beam="1">  1       21 0.33119932E-01 0.45058506E+03</pdfrwt>
<pdfrwt beam="2">  1       21 0.33142581E-01 0.45058506E+03</pdfrwt>
<totfact> 0.71350963E+04</totfact>
</mgrwt>
</event>
<event>
 7    0  0.4775379E-002  0.4275906E+03  0.7546771E-02  0.1034624E+00
         21   -1    0    0  502  501  0.00000000000E+00  0.00000000000E+00  0.25870339103E+03  0.25870339103E+03  0.00000000000E+00 0.  1.
         21   -1    0    0  501  502 -0.00000000000E+00 -0.00000000000E+00 -0.17668277497E+03  0.17668277497E+03  0.00000000000E+00 0.  1.
      99926    2    1    2    0    0  0.88817841970E-15  0.00000000000E+00  0.82020616066E+02  0.43538616600E+03  0.42759061272E+03 0.  0.
      99925    2    3    3    0    0 -0.56429289257E+01  0.76349873980E+02  0.91243263484E+02  0.28843817782E+03  0.26269774151E+03 0.  0.
         25    1    4    4    0    0  0.27216863252E+02  0.61804742639E+02  0.61757826652E+02  0.15499071298E+03  0.12509000000E+03 0.  0.
         25    1    3    3    0    0  0.56429289257E+01 -0.76349873980E+02 -0.92226474187E+01  0.14694798818E+03  0.12509000000E+03 0.  0.
         25    1    4    4    0    0 -0.32859792178E+02  0.14545131341E+02  0.29485436832E+02  0.13344746484E+03  0.12509000000E+03 0.  0.
<mgrwt>
<rscale>  2 0.42759061E+03</rscale>
<asrwt>0</asrwt>
<pdfrwt beam="1">  1       21 0.38044617E-01 0.42759061E+03</pdfrwt>
<pdfrwt beam="2">  1       21 0.25982761E-01 0.42759061E+03</pdfrwt>
<totfact> 0.87655169E+04</totfact>
</mgrwt>
</event>
<event>
 7    0  0.4775379E-002  0.4550971E+03  0.7546771E-02  0.1026213E+00
         21   -1    0    0  502  501  0.00000000000E+00  0.00000000000E+00  0.22034005290E+03  0.22034005290E+03  0.00000000000E+00 0.  1.
         21   -1    0    0  501  502 -0.00000000000E+00 -0.00000000000E+00 -0.23499286761E+03  0.23499286761E+03  0.00000000000E+00 0.  1.
      99926    2    1    2    0    0  0.00000000000E+00 -0.14210854715E-13 -0.14652814711E+02  0.45533292052E+03  0.45509709242E+03 0.  0.
      99925    2    3    3    0    0 -0.48489880287E+02 -0.65668935620E+02  0.69254799997E+02  0.28400961941E+03  0.26306189196E+03 0.  0.
         25    1    4    4    0    0 -0.19767010702E+02 -0.30513481116E+02 -0.73301893648E+01  0.13047239945E+03  0.12509000000E+03 0.  0.
         25    1    3    3    0    0  0.48489880287E+02  0.65668935620E+02 -0.83907614708E+02  0.17132330111E+03  0.12509000000E+03 0.  0.
         25    1    4    4    0    0 -0.28722869584E+02 -0.35155454505E+02  0.76584989362E+02  0.15353721996E+03  0.12509000000E+03 0.  0.
<mgrwt>
<rscale>  2 0.45509709E+03</rscale>
<asrwt>0</asrwt>
<pdfrwt beam="1">  1       21 0.32402949E-01 0.45509709E+03</pdfrwt>
<pdfrwt beam="2">  1       21 0.34557775E-01 0.45509709E+03</pdfrwt>
<totfact> 0.68468365E+04</totfact>
</mgrwt>
</event>
<event>
 7    0  0.4775379E-002  0.4425767E+03  0.7546771E-02  0.1029959E+00
         21   -1    0    0  502  501  0.00000000000E+00  0.00000000000E+00  0.24179157098E+03  0.24179157098E+03  0.00000000000E+00 0. -1.
         21   -1    0    0  501  502 -0.00000000000E+00 -0.00000000000E+00 -0.20252371976E+03  0.20252371976E+03  0.00000000000E+00 0. -1.
      99926    2    1    2    0    0  0.00000000000E+00  0.00000000000E+00  0.39267851221E+02  0.44431529075E+03  0.44257667522E+03 0.  0.
      99925    2    3    3    0    0  0.38783497208E+02 -0.43656893090E+01  0.11858009966E+03  0.29114492889E+03  0.26302264291E+03 0.  0.
         25    1    3    3    0    0 -0.38783497208E+02  0.43656893090E+01 -0.79312248440E+02  0.15317036186E+03  0.12509000000E+03 0.  0.
         25    1    4    4    0    0  0.23156924382E+02  0.26470975084E+02  0.28114664969E+02  0.13294697498E+03  0.12509000000E+03 0.  0.
         25    1    4    4    0    0  0.15626572826E+02 -0.30836664393E+02  0.90465434692E+02  0.15819795392E+03  0.12509000000E+03 0.  0.
<mgrwt>
<rscale>  2 0.44257668E+03</rscale>
<asrwt>0</asrwt>
<pdfrwt beam="1">  1       21 0.35557584E-01 0.44257668E+03</pdfrwt>
<pdfrwt beam="2">  1       21 0.29782900E-01 0.44257668E+03</pdfrwt>
<totfact> 0.76656932E+04</totfact>
</mgrwt>
</event>
<event>
 7    0  0.4775379E-002  0.4466188E+03  0.7546771E-02  0.1028735E+00
         21   -1    0    0  502  501  0.00000000000E+00  0.00000000000E+00  0.27408252879E+02  0.27408252879E+02  0.00000000000E+00 0.  1.
         21   -1    0    0  501  502 -0.00000000000E+00 -0.00000000000E+00 -0.18194184616E+04  0.18194184616E+04  0.00000000000E+00 0.  1.
      99926    2    1    2    0    0  0.00000000000E+00  0.00000000000E+00 -0.17920102087E+04  0.18468267145E+04  0.44661876937E+03 0.  0.
      99925    2    3    3    0    0  0.53603144482E+02 -0.25899157277E+02 -0.14980201421E+04  0.15218317440E+04  0.26146404639E+03 0.  0.
         25    1    3    3    0    0 -0.53603144482E+02  0.25899157277E+02 -0.29399006663E+03  0.32499497046E+03  0.12509000000E+03 0.  0.
         25    1    4    4    0    0  0.63906020540E+02 -0.34167301425E+01 -0.80933884707E+03  0.82144539136E+03  0.12509000000E+03 0.  0.
         25    1    4    4    0    0 -0.10302876058E+02 -0.22482427135E+02 -0.68868129501E+03  0.70038635265E+03  0.12509000000E+03 0.  0.
<mgrwt>
<rscale>  2 0.44661877E+03</rscale>
<asrwt>0</asrwt>
<pdfrwt beam="1">  1       21 0.40306233E-02 0.44661877E+03</pdfrwt>
<pdfrwt beam="2">  1       21 0.26756168E+00 0.44661877E+03</pdfrwt>
<totfact> 0.17486054E+04</totfact>
</mgrwt>
</event>
<event>
 7    0  0.4775379E-002  0.4581312E+03  0.7546771E-02  0.1025325E+00
         21   -1    0    0  502  501  0.00000000000E+00  0.00000000000E+00  0.30861703151E+03  0.30861703151E+03  0.00000000000E+00 0. -1.
         21   -1    0    0  501  502 -0.00000000000E+00 -0.00000000000E+00 -0.17001993978E+03  0.17001993978E+03  0.00000000000E+00 0. -1.
      99926    2    1    2    0    0  0.00000000000E+00  0.00000000000E+00  0.13859709172E+03  0.47863697129E+03  0.45813120004E+03 0.  0.
      99925    2    3    3    0    0  0.66625776090E+02  0.81412090011E+02  0.13809805253E+03  0.31519071229E+03  0.26307259562E+03 0.  0.
         25    1    3    3    0    0 -0.66625776090E+02 -0.81412090011E+02  0.49903919039E+00  0.16344625900E+03  0.12509000000E+03 0.  0.
         25    1    4    4    0    0  0.10073049494E+02  0.68583900428E+02  0.49671515866E+02  0.15139347843E+03  0.12509000000E+03 0.  0.
         25    1    4    4    0    0  0.56552726596E+02  0.12828189583E+02  0.88426536665E+02  0.16379723386E+03  0.12509000000E+03 0.  0.
<mgrwt>
<rscale>  2 0.45813120E+03</rscale>
<asrwt>0</asrwt>
<pdfrwt beam="1">  1       21 0.45384858E-01 0.45813120E+03</pdfrwt>
<pdfrwt beam="2">  1       21 0.25002932E-01 0.45813120E+03</pdfrwt>
<totfact> 0.65164934E+04</totfact>
</mgrwt>
</event>
<event>
 7    0  0.4775379E-002  0.4544729E+03  0.7546771E-02  0.1026397E+00
         21   -1    0    0  502  501  0.00000000000E+00  0.00000000000E+00  0.58575595835E+02  0.58575595835E+02  0.00000000000E+00 0.  1.
         21   -1    0    0  501  502 -0.00000000000E+00 -0.00000000000E+00 -0.88153428069E+03  0.88153428069E+03  0.00000000000E+00 0.  1.
      99926    2    1    2    0    0  0.71054273576E-14  0.00000000000E+00 -0.82295868485E+03  0.94010987652E+03  0.45447286273E+03 0.  0.
      99925    2    3    3    0    0  0.62476857710E+02  0.19319263818E+02 -0.32843248227E+03  0.42583342864E+03  0.26303920209E+03 0.  0.
         25    1    3    3    0    0 -0.62476857710E+02 -0.19319263818E+02 -0.49452620258E+03  0.51427644788E+03  0.12509000000E+03 0.  0.
         25    1    4    4    0    0  0.32086899956E+02  0.39869757827E+02 -0.20985910054E+03  0.24961473698E+03  0.12509000000E+03 0.  0.
         25    1    4    4    0    0  0.30389957754E+02 -0.20550494010E+02 -0.11857338173E+03  0.17621869166E+03  0.12509000000E+03 0.  0.
<mgrwt>
<rscale>  2 0.45447286E+03</rscale>
<asrwt>0</asrwt>
<pdfrwt beam="1">  1       21 0.86140577E-02 0.45447286E+03</pdfrwt>
<pdfrwt beam="2">  1       21 0.12963740E+00 0.45447286E+03</pdfrwt>
<totfact> 0.41715603E+04</totfact>
</mgrwt>
</event>
<event>
 7    0  0.4775379E-002  0.4539470E+03  0.7546771E-02  0.1026552E+00
         21   -1    0    0  502  501  0.00000000000E+00  0.00000000000E+00  0.90210335374E+03  0.90210335374E+03  0.00000000000E+00 0.  1.
         21   -1    0    0  501  502 -0.00000000000E+00 -0.00000000000E+00 -0.57107614694E+02  0.57107614694E+02  0.00000000000E+00 0.  1.
      99926    2    1    2    0    0  0.00000000000E+00  0.00000000000E+00  0.84499573905E+03  0.95921096844E+03  0.45394700457E+03 0.  0.
      99925    2    3    3    0    0 -0.10545113530E+03  0.37387343277E+02  0.57051984507E+03  0.63749326633E+03  0.26150911194E+03 0.  0.
         25    1    4    4    0    0 -0.79161634760E+02  0.17598865694E+01  0.24929601780E+03  0.28994081157E+03  0.12509000000E+03 0.  0.
         25    1    4    4    0    0 -0.26289500538E+02  0.35627456708E+02  0.32122382726E+03  0.34755245476E+03  0.12509000000E+03 0.  0.
         25    1    3    3    0    0  0.10545113530E+03 -0.37387343277E+02  0.27447589398E+03  0.32171770211E+03  0.12509000000E+03 0.  0.
<mgrwt>
<rscale>  2 0.45394700E+03</rscale>
<asrwt>0</asrwt>
<pdfrwt beam="1">  1       21 0.13266225E+00 0.45394700E+03</pdfrwt>
<pdfrwt beam="2">  1       21 0.83981792E-02 0.45394700E+03</pdfrwt>
<totfact> 0.41107497E+04</totfact>
</mgrwt>
</event>
<event>
 7    0  0.4775379E-002  0.4529268E+03  0.7546771E-02  0.1026853E+00
         21   -1    0    0  502  501  0.00000000000E+00  0.00000000000E+00  0.12971192197E+04  0.12971192197E+04  0.00000000000E+00 0.  1.
         21   -1    0    0  501  502 -0.00000000000E+00 -0.00000000000E+00 -0.39538139516E+02  0.39538139516E+02  0.00000000000E+00 0.  1.
      99926    2    1    2    0    0  0.00000000000E+00  0.00000000000E+00  0.12575810802E+04  0.13366573592E+04  0.45292684035E+03 0.  0.
      99925    2    3    3    0    0 -0.89360672913E+02 -0.50335796126E+02  0.91996666357E+03  0.96229119535E+03  0.26295752575E+03 0.  0.
         25    1    4    4    0    0 -0.53649675935E+02 -0.65160956402E+02  0.51860734972E+03  0.54011603314E+03  0.12509000000E+03 0.  0.
         25    1    4    4    0    0 -0.35710996978E+02  0.14825160276E+02  0.40135931384E+03  0.42217516222E+03  0.12509000000E+03 0.  0.
         25    1    3    3    0    0  0.89360672913E+02  0.50335796126E+02  0.33761441659E+03  0.37436616384E+03  0.12509000000E+03 0.  0.
<mgrwt>
<rscale>  2 0.45292684E+03</rscale>
<asrwt>0</asrwt>
<pdfrwt beam="1">  1       21 0.19075280E+00 0.45292684E+03</pdfrwt>
<pdfrwt beam="2">  1       21 0.58144331E-02 0.45292684E+03</pdfrwt>
<totfact> 0.28525498E+04</totfact>
</mgrwt>
</event>
<event>
 7    0  0.4775379E-002  0.4528384E+03  0.7546771E-02  0.1026879E+00
         21   -1    0    0  502  501  0.00000000000E+00  0.00000000000E+00  0.50037376502E+03  0.50037376502E+03  0.00000000000E+00 0. -1.
         21   -1    0    0  501  502 -0.00000000000E+00 -0.00000000000E+00 -0.10245473131E+03  0.10245473131E+03  0.00000000000E+00 0. -1.
      99926    2    1    2    0    0  0.00000000000E+00  0.00000000000E+00  0.39791903371E+03  0.60282849632E+03  0.45283842437E+03 0.  0.
      99925    2    3    3    0    0  0.56374546740E+02 -0.52820351295E+02  0.35716926667E+03  0.45026332781E+03  0.26305721864E+03 0.  0.
         25    1    4    4    0    0  0.16791734244E+02 -0.17613869630E+02  0.11054340497E+03  0.16869962426E+03  0.12509000000E+03 0.  0.
         25    1    4    4    0    0  0.39582812497E+02 -0.35206481665E+02  0.24662586170E+03  0.28156370355E+03  0.12509000000E+03 0.  0.
         25    1    3    3    0    0 -0.56374546740E+02  0.52820351295E+02  0.40749767040E+02  0.15256516852E+03  0.12509000000E+03 0.  0.
<mgrwt>
<rscale>  2 0.45283842E+03</rscale>
<asrwt>0</asrwt>
<pdfrwt beam="1">  1       21 0.73584376E-01 0.45283842E+03</pdfrwt>
<pdfrwt beam="2">  1       21 0.15066872E-01 0.45283842E+03</pdfrwt>
<totfact> 0.59514371E+04</totfact>
</mgrwt>
</event>
<event>
 7    0  0.4775379E-002  0.4503031E+03  0.7546771E-02  0.1027632E+00
         21   -1    0    0  502  501  0.00000000000E+00  0.00000000000E+00  0.21147821662E+03  0.21147821662E+03  0.00000000000E+00 0. -1.
         21   -1    0    0  501  502 -0.00000000000E+00 -0.00000000000E+00 -0.23970893084E+03  0.23970893084E+03  0.00000000000E+00 0. -1.
      99926    2    1    2    0    0  0.71054273576E-14  0.00000000000E+00 -0.28230714228E+02  0.45118714746E+03  0.45030308549E+03 0.  0.
      99925    2    3    3    0    0  0.39857746675E+02  0.99913997547E+02 -0.33777945329E+02  0.28611223492E+03  0.26295972031E+03 0.  0.
         25    1    4    4    0    0  0.37493240949E+02  0.89772028658E+02 -0.14715463707E+02  0.15915028501E+03  0.12509000000E+03 0.  0.
         25    1    3    3    0    0 -0.39857746675E+02 -0.99913997547E+02  0.55472311007E+01  0.16507491254E+03  0.12509000000E+03 0.  0.
         25    1    4    4    0    0  0.23645057258E+01  0.10141968888E+02 -0.19062481622E+02  0.12696194991E+03  0.12509000000E+03 0.  0.
<mgrwt>
<rscale>  2 0.45030309E+03</rscale>
<asrwt>0</asrwt>
<pdfrwt beam="1">  1       21 0.31099738E-01 0.45030309E+03</pdfrwt>
<pdfrwt beam="2">  1       21 0.35251313E-01 0.45030309E+03</pdfrwt>
<totfact> 0.71467023E+04</totfact>
</mgrwt>
</event>
<event>
 7    0  0.4775379E-002  0.4617674E+03  0.7546771E-02  0.1024270E+00
         21   -1    0    0  502  501  0.00000000000E+00  0.00000000000E+00  0.75732931805E+02  0.75732931805E+02  0.00000000000E+00 0. -1.
         21   -1    0    0  501  502 -0.00000000000E+00 -0.00000000000E+00 -0.70388513098E+03  0.70388513098E+03  0.00000000000E+00 0. -1.
      99926    2    1    2    0    0  0.00000000000E+00  0.00000000000E+00 -0.62815219917E+03  0.77961806278E+03  0.46176740735E+03 0.  0.
      99925    2    3    3    0    0 -0.73593620080E+02 -0.89462689468E+02 -0.34388679923E+03  0.44814571186E+03  0.26297690897E+03 0.  0.
         25    1    3    3    0    0  0.73593620080E+02  0.89462689468E+02 -0.28426539995E+03  0.33147235093E+03  0.12509000000E+03 0.  0.
         25    1    4    4    0    0 -0.68508635270E+02 -0.46175564462E+02 -0.22368026903E+03  0.26926935718E+03  0.12509000000E+03 0.  0.
         25    1    4    4    0    0 -0.50849848102E+01 -0.43287125006E+02 -0.12020653019E+03  0.17887635468E+03  0.12509000000E+03 0.  0.
<mgrwt>
<rscale>  2 0.46176741E+03</rscale>
<asrwt>0</asrwt>
<pdfrwt beam="1">  1       21 0.11137196E-01 0.46176741E+03</pdfrwt>
<pdfrwt beam="2">  1       21 0.10351252E+00 0.46176741E+03</pdfrwt>
<totfact> 0.46259862E+04</totfact>
</mgrwt>
</event>
<event>
 7    0  0.4775379E-002  0.4476280E+03  0.7546771E-02  0.1028432E+00
         21   -1    0    0  502  501  0.00000000000E+00  0.00000000000E+00  0.28150916188E+03  0.28150916188E+03  0.00000000000E+00 0. -1.
         21   -1    0    0  501  502 -0.00000000000E+00 -0.00000000000E+00 -0.17794341269E+03  0.17794341269E+03  0.00000000000E+00 0. -1.
      99926    2    1    2    0    0  0.00000000000E+00  0.00000000000E+00  0.10356574919E+03  0.45945257456E+03  0.44762797485E+03 0.  0.
      99925    2    3    3    0    0 -0.76580460718E+02  0.18751592448E+02  0.13780668420E+03  0.30767596598E+03  0.26354815243E+03 0.  0.
         25    1    3    3    0    0  0.76580460718E+02 -0.18751592448E+02 -0.34240935008E+02  0.15177660858E+03  0.12509000000E+03 0.  0.
         25    1    4    4    0    0 -0.38797225614E+02  0.30957534995E+02  0.30112608002E+02  0.13790529703E+03  0.12509000000E+03 0.  0.
         25    1    4    4    0    0 -0.37783235104E+02 -0.12205942547E+02  0.10769407619E+03  0.16977066895E+03  0.12509000000E+03 0.  0.
<mgrwt>
<rscale>  2 0.44762797E+03</rscale>
<asrwt>0</asrwt>
<pdfrwt beam="1">  1       21 0.41398406E-01 0.44762797E+03</pdfrwt>
<pdfrwt beam="2">  1       21 0.26168149E-01 0.44762797E+03</pdfrwt>
<totfact> 0.72368621E+04</totfact>
</mgrwt>
</event>
<event>
 7    0  0.4775379E-002  0.4568939E+03  0.7546771E-02  0.1025686E+00
         21   -1    0    0  502  501  0.00000000000E+00  0.00000000000E+00  0.11760665053E+03  0.11760665053E+03  0.00000000000E+00 0.  1.
         21   -1    0    0  501  502 -0.00000000000E+00 -0.00000000000E+00 -0.44375040005E+03  0.44375040005E+03  0.00000000000E+00 0.  1.
      99926    2    1    2    0    0  0.00000000000E+00  0.00000000000E+00 -0.32614374951E+03  0.56135705058E+03  0.45689385298E+03 0.  0.
      99925    2    3    3    0    0  0.84601262815E+02 -0.65323878978E+02 -0.15325639684E+03  0.32268965095E+03  0.26309029785E+03 0.  0.
         25    1    4    4    0    0  0.49332706329E+02 -0.55068295227E+02 -0.41877096374E+02  0.15121981469E+03  0.12509000000E+03 0.  0.
         25    1    3    3    0    0 -0.84601262815E+02  0.65323878978E+02 -0.17288735267E+03  0.23866739963E+03  0.12509000000E+03 0.  0.
         25    1    4    4    0    0  0.35268556486E+02 -0.10255583751E+02 -0.11137930047E+03  0.17146983626E+03  0.12509000000E+03 0.  0.
<mgrwt>
<rscale>  2 0.45689385E+03</rscale>
<asrwt>0</asrwt>
<pdfrwt beam="1">  1       21 0.17295095E-01 0.45689385E+03</pdfrwt>
<pdfrwt beam="2">  1       21 0.65257412E-01 0.45689385E+03</pdfrwt>
<totfact> 0.60215123E+04</totfact>
</mgrwt>
</event>
<event>
 7    0  0.4775379E-002  0.4438594E+03  0.7546771E-02  0.1029569E+00
         21   -1    0    0  502  501  0.00000000000E+00  0.00000000000E+00  0.32613486019E+03  0.32613486019E+03  0.00000000000E+00 0.  1.
         21   -1    0    0  501  502 -0.00000000000E+00 -0.00000000000E+00 -0.15101970976E+03  0.15101970976E+03  0.00000000000E+00 0.  1.
      99926    2    1    2    0    0  0.00000000000E+00  0.00000000000E+00  0.17511515043E+03  0.47715456995E+03  0.44385940084E+03 0.  0.
      99925    2    3    3    0    0  0.39795270000E+02 -0.33968756294E+02  0.20605282975E+03  0.33807837494E+03  0.26287198222E+03 0.  0.
         25    1    4    4    0    0  0.19376726574E+02 -0.35547551188E+02  0.15004788613E+03  0.19950178486E+03  0.12509000000E+03 0.  0.
         25    1    3    3    0    0 -0.39795270000E+02  0.33968756294E+02 -0.30937679319E+02  0.13907619502E+03  0.12509000000E+03 0.  0.
         25    1    4    4    0    0  0.20418543426E+02  0.15787948936E+01  0.56004943619E+02  0.13857659008E+03  0.12509000000E+03 0.  0.
<mgrwt>
<rscale>  2 0.44385940E+03</rscale>
<asrwt>0</asrwt>
<pdfrwt beam="1">  1       21 0.47961009E-01 0.44385940E+03</pdfrwt>
<pdfrwt beam="2">  1       21 0.22208781E-01 0.44385940E+03</pdfrwt>
<totfact> 0.73167414E+04</totfact>
</mgrwt>
</event>
<event>
 7    0  0.4775379E-002  0.4544626E+03  0.7546771E-02  0.1026400E+00
         21   -1    0    0  502  501  0.00000000000E+00  0.00000000000E+00  0.30683393503E+03  0.30683393503E+03  0.00000000000E+00 0. -1.
         21   -1    0    0  501  502 -0.00000000000E+00 -0.00000000000E+00 -0.16828014238E+03  0.16828014238E+03  0.00000000000E+00 0. -1.
      99926    2    1    2    0    0  0.00000000000E+00  0.00000000000E+00  0.13855379265E+03  0.47511407741E+03  0.45446257612E+03 0.  0.
      99925    2    3    3    0    0  0.53464792576E+02 -0.96758584962E+02  0.65644236675E+02  0.29294926395E+03  0.26322879332E+03 0.  0.
         25    1    4    4    0    0  0.68142705310E+02 -0.56313503241E+02  0.32679121787E+02  0.15662079056E+03  0.12509000000E+03 0.  0.
         25    1    3    3    0    0 -0.53464792576E+02  0.96758584962E+02  0.72909555977E+02  0.18216481346E+03  0.12509000000E+03 0.  0.
         25    1    4    4    0    0 -0.14677912734E+02 -0.40445081721E+02  0.32965114888E+02  0.13632847339E+03  0.12509000000E+03 0.  0.
<mgrwt>
<rscale>  2 0.45446258E+03</rscale>
<asrwt>0</asrwt>
<pdfrwt beam="1">  1       21 0.45122638E-01 0.45446258E+03</pdfrwt>
<pdfrwt beam="2">  1       21 0.24747080E-01 0.45446258E+03</pdfrwt>
<totfact> 0.67344283E+04</totfact>
</mgrwt>
</event>
<event>
 7    0  0.4775379E-002  0.4550121E+03  0.7546771E-02  0.1026238E+00
         21   -1    0    0  502  501  0.00000000000E+00  0.00000000000E+00  0.29951229986E+03  0.29951229986E+03  0.00000000000E+00 0.  1.
         21   -1    0    0  501  502 -0.00000000000E+00 -0.00000000000E+00 -0.17281091004E+03  0.17281091004E+03  0.00000000000E+00 0.  1.
      99926    2    1    2    0    0  0.00000000000E+00  0.00000000000E+00  0.12670138982E+03  0.47232320989E+03  0.45501205745E+03 0.  0.
      99925    2    3    3    0    0 -0.11169591225E+03  0.18851886485E+02  0.82453626067E+02  0.29786191581E+03  0.26285309585E+03 0.  0.
         25    1    4    4    0    0 -0.70787078013E+02 -0.15004500614E+01  0.80350093267E+02  0.16467151348E+03  0.12509000000E+03 0.  0.
         25    1    3    3    0    0  0.11169591225E+03 -0.18851886485E+02  0.44247763755E+02  0.17446129409E+03  0.12509000000E+03 0.  0.
         25    1    4    4    0    0 -0.40908834235E+02  0.20352336547E+02  0.21035328003E+01  0.13319040233E+03  0.12509000000E+03 0.  0.
<mgrwt>
<rscale>  2 0.45501206E+03</rscale>
<asrwt>0</asrwt>
<pdfrwt beam="1">  1       21 0.44045927E-01 0.45501206E+03</pdfrwt>
<pdfrwt beam="2">  1       21 0.25413369E-01 0.45501206E+03</pdfrwt>
<totfact> 0.67256926E+04</totfact>
</mgrwt>
</event>
<event>
 7    0  0.4775379E-002  0.4554358E+03  0.7546771E-02  0.1026113E+00
         21   -1    0    0  502  501  0.00000000000E+00  0.00000000000E+00  0.35597574542E+02  0.35597574542E+02  0.00000000000E+00 0.  1.
         21   -1    0    0  501  502 -0.00000000000E+00 -0.00000000000E+00 -0.14567125291E+04  0.14567125291E+04  0.00000000000E+00 0.  1.
      99926    2    1    2    0    0  0.00000000000E+00  0.14210854715E-13 -0.14211149546E+04  0.14923101037E+04  0.45543575987E+03 0.  0.
      99925    2    3    3    0    0  0.18258183252E+02 -0.10761421673E+03 -0.99703368700E+03  0.10368909445E+04  0.26296858543E+03 0.  0.
         25    1    3    3    0    0 -0.18258183252E+02  0.10761421673E+03 -0.42408126757E+03  0.45541915913E+03  0.12509000000E+03 0.  0.
         25    1    4    4    0    0  0.17195711930E+02 -0.90768949744E+02 -0.62381603231E+03  0.64290640455E+03  0.12509000000E+03 0.  0.
         25    1    4    4    0    0  0.10624713216E+01 -0.16845266988E+02 -0.37321765470E+03  0.39398453998E+03  0.12509000000E+03 0.  0.
<mgrwt>
<rscale>  2 0.45543576E+03</rscale>
<asrwt>0</asrwt>
<pdfrwt beam="1">  1       21 0.52349373E-02 0.45543576E+03</pdfrwt>
<pdfrwt beam="2">  1       21 0.21422244E+00 0.45543576E+03</pdfrwt>
<totfact> 0.23887265E+04</totfact>
</mgrwt>
</event>
<event>
 7    0  0.4775379E-002  0.4568458E+03  0.7546771E-02  0.1025700E+00
         21   -1    0    0  502  501  0.00000000000E+00  0.00000000000E+00  0.39756424654E+03  0.39756424654E+03  0.00000000000E+00 0. -1.
         21   -1    0    0  501  502 -0.00000000000E+00 -0.00000000000E+00 -0.13124176108E+03  0.13124176108E+03  0.00000000000E+00 0. -1.
      99926    2    1    2    0    0 -0.71054273576E-14 -0.35527136788E-14  0.26632248546E+03  0.52880600762E+03  0.45684584646E+03 0.  0.
      99925    2    3    3    0    0 -0.34052163917E+02 -0.18186099311E+02  0.29268727413E+03  0.39526614744E+03  0.26282922744E+03 0.  0.
         25    1    3    3    0    0  0.34052163917E+02  0.18186099311E+02 -0.26364788670E+02  0.13353986018E+03  0.12509000000E+03 0.  0.
         25    1    4    4    0    0 -0.40595094201E+02 -0.34304184326E+02  0.11987978286E+03  0.18122750667E+03  0.12509000000E+03 0.  0.
         25    1    4    4    0    0  0.65429302842E+01  0.16118085015E+02  0.17280749127E+03  0.21403864077E+03  0.12509000000E+03 0.  0.
<mgrwt>
<rscale>  2 0.45684585E+03</rscale>
<asrwt>0</asrwt>
<pdfrwt beam="1">  1       21 0.58465330E-01 0.45684585E+03</pdfrwt>
<pdfrwt beam="2">  1       21 0.19300259E-01 0.45684585E+03</pdfrwt>
<totfact> 0.62369883E+04</totfact>
</mgrwt>
</event>
<event>
 7    0  0.4775379E-002  0.4407602E+03  0.7546771E-02  0.1030514E+00
         21   -1    0    0  502  501  0.00000000000E+00  0.00000000000E+00  0.51283751380E+03  0.51283751380E+03  0.00000000000E+00 0. -1.
         21   -1    0    0  501  502 -0.00000000000E+00 -0.00000000000E+00 -0.94703277536E+02  0.94703277536E+02  0.00000000000E+00 0. -1.
      99926    2    1    2    0    0  0.00000000000E+00  0.00000000000E+00  0.41813423627E+03  0.60754079134E+03  0.44076022235E+03 0.  0.
      99925    2    3    3    0    0 -0.66950976505E+02 -0.35991803283E+02  0.35443890305E+03  0.44790856799E+03  0.26309182071E+03 0.  0.
         25    1    3    3    0    0  0.66950976505E+02  0.35991803283E+02  0.63695333218E+02  0.15963222335E+03  0.12509000000E+03 0.  0.
         25    1    4    4    0    0 -0.40105974480E+02  0.52256814053E+01  0.12172473832E+03  0.17916533413E+03  0.12509000000E+03 0.  0.
         25    1    4    4    0    0 -0.26845002025E+02 -0.41217484688E+02  0.23271416473E+03  0.26874323386E+03  0.12509000000E+03 0.  0.
<mgrwt>
<rscale>  2 0.44076022E+03</rscale>
<asrwt>0</asrwt>
<pdfrwt beam="1">  1       21 0.75417280E-01 0.44076022E+03</pdfrwt>
<pdfrwt beam="2">  1       21 0.13926953E-01 0.44076022E+03</pdfrwt>
<totfact> 0.65252018E+04</totfact>
</mgrwt>
</event>
<event>
 7    0  0.4775379E-002  0.4595485E+03  0.7546771E-02  0.1024912E+00
         21   -1    0    0  502  501  0.00000000000E+00  0.00000000000E+00  0.12384904189E+03  0.12384904189E+03  0.00000000000E+00 0. -1.
         21   -1    0    0  501  502 -0.00000000000E+00 -0.00000000000E+00 -0.42629474173E+03  0.42629474173E+03  0.00000000000E+00 0. -1.
      99926    2    1    2    0    0  0.00000000000E+00  0.71054273576E-14 -0.30244569983E+03  0.55014378362E+03  0.45954845371E+03 0.  0.
      99925    2    3    3    0    0 -0.13904107177E+02  0.59124503972E+02 -0.69547708436E+02  0.27889110868E+03  0.26316218495E+03 0.  0.
         25    1    4    4    0    0 -0.31229613265E+02  0.47300181497E+02 -0.65089879538E+02  0.15197630221E+03  0.12509000000E+03 0.  0.
         25    1    4    4    0    0  0.17325506088E+02  0.11824322474E+02 -0.44578288979E+01  0.12691480647E+03  0.12509000000E+03 0.  0.
         25    1    3    3    0    0  0.13904107177E+02 -0.59124503972E+02 -0.23289799140E+03  0.27125267494E+03  0.12509000000E+03 0.  0.
<mgrwt>
<rscale>  2 0.45954845E+03</rscale>
<asrwt>0</asrwt>
<pdfrwt beam="1">  1       21 0.18213094E-01 0.45954845E+03</pdfrwt>
<pdfrwt beam="2">  1       21 0.62690403E-01 0.45954845E+03</pdfrwt>
<totfact> 0.59680118E+04</totfact>
</mgrwt>
</event>
<event>
 7    0  0.4775379E-002  0.4867417E+03  0.7546771E-02  0.1017299E+00
         21   -1    0    0  502  501  0.00000000000E+00  0.00000000000E+00  0.39968351008E+03  0.39968351008E+03  0.00000000000E+00 0. -1.
         21   -1    0    0  501  502 -0.00000000000E+00 -0.00000000000E+00 -0.14819066613E+03  0.14819066613E+03  0.00000000000E+00 0. -1.
      99926    2    1    2    0    0  0.00000000000E+00  0.00000000000E+00  0.25149284395E+03  0.54787417621E+03  0.48674167933E+03 0.  0.
      99925    2    3    3    0    0  0.10318207400E+03  0.94149759405E+02  0.17478581769E+03  0.34528544609E+03  0.26298524602E+03 0.  0.
         25    1    4    4    0    0  0.47860329354E+02  0.36731434144E+02  0.39170847064E+02  0.14429716816E+03  0.12509000000E+03 0.  0.
         25    1    4    4    0    0  0.55321744648E+02  0.57418325261E+02  0.13561497063E+03  0.20098827793E+03  0.12509000000E+03 0.  0.
         25    1    3    3    0    0 -0.10318207400E+03 -0.94149759405E+02  0.76707026263E+02  0.20258873011E+03  0.12509000000E+03 0.  0.
<mgrwt>
<rscale>  2 0.48674168E+03</rscale>
<asrwt>0</asrwt>
<pdfrwt beam="1">  1       21 0.58776987E-01 0.48674168E+03</pdfrwt>
<pdfrwt beam="2">  1       21 0.21792745E-01 0.48674168E+03</pdfrwt>
<totfact> 0.48588186E+04</totfact>
</mgrwt>
</event>
<event>
 7    0  0.4775379E-002  0.4496071E+03  0.7546771E-02  0.1027839E+00
         21   -1    0    0  502  501  0.00000000000E+00  0.00000000000E+00  0.30842988660E+02  0.30842988660E+02  0.00000000000E+00 0.  1.
         21   -1    0    0  501  502 -0.00000000000E+00 -0.00000000000E+00 -0.16385129314E+04  0.16385129314E+04  0.00000000000E+00 0.  1.
      99926    2    1    2    0    0  0.00000000000E+00  0.00000000000E+00 -0.16076699427E+04  0.16693559201E+04  0.44960709853E+03 0.  0.
      99925    2    3    3    0    0  0.21209759835E+02 -0.60950123411E+02 -0.69515347733E+03  0.74604742383E+03  0.26302781243E+03 0.  0.
         25    1    4    4    0    0  0.11226527021E+02  0.13978376285E+01 -0.40127591582E+03  0.42047337321E+03  0.12509000000E+03 0.  0.
         25    1    4    4    0    0  0.99832328145E+01 -0.62347961040E+02 -0.29387756150E+03  0.32557405062E+03  0.12509000000E+03 0.  0.
         25    1    3    3    0    0 -0.21209759835E+02  0.60950123411E+02 -0.91251646540E+03  0.92330849622E+03  0.12509000000E+03 0.  0.
<mgrwt>
<rscale>  2 0.44960710E+03</rscale>
<asrwt>0</asrwt>
<pdfrwt beam="1">  1       21 0.45357315E-02 0.44960710E+03</pdfrwt>
<pdfrwt beam="2">  1       21 0.24095790E+00 0.44960710E+03</pdfrwt>
<totfact> 0.20762827E+04</totfact>
</mgrwt>
</event>
<event>
 7    0  0.4775379E-002  0.4500935E+03  0.7546771E-02  0.1027694E+00
         21   -1    0    0  502  501  0.00000000000E+00  0.00000000000E+00  0.10439032511E+03  0.10439032511E+03  0.00000000000E+00 0.  1.
         21   -1    0    0  501  502 -0.00000000000E+00 -0.00000000000E+00 -0.48516025528E+03  0.48516025528E+03  0.00000000000E+00 0.  1.
      99926    2    1    2    0    0  0.71054273576E-14  0.00000000000E+00 -0.38076993017E+03  0.58955058039E+03  0.45009348708E+03 0.  0.
      99925    2    3    3    0    0  0.35102228566E+02  0.37059322262E+02 -0.36702879006E+03  0.45374967153E+03  0.26186460597E+03 0.  0.
         25    1    3    3    0    0 -0.35102228566E+02 -0.37059322262E+02 -0.13741140115E+02  0.13580090886E+03  0.12509000000E+03 0.  0.
         25    1    4    4    0    0 -0.36374330638E+01 -0.77595187675E+01 -0.14076172573E+03  0.18850679718E+03  0.12509000000E+03 0.  0.
         25    1    4    4    0    0  0.38739661630E+02  0.44818841029E+02 -0.22626706433E+03  0.26524287435E+03  0.12509000000E+03 0.  0.
<mgrwt>
<rscale>  2 0.45009349E+03</rscale>
<asrwt>0</asrwt>
<pdfrwt beam="1">  1       21 0.15351519E-01 0.45009349E+03</pdfrwt>
<pdfrwt beam="2">  1       21 0.71347096E-01 0.45009349E+03</pdfrwt>
<totfact> 0.61683525E+04</totfact>
</mgrwt>
</event>
<event>
 7    0  0.4775379E-002  0.4265442E+03  0.7546771E-02  0.1034957E+00
         21   -1    0    0  502  501  0.00000000000E+00  0.00000000000E+00  0.74000364442E+03  0.74000364442E+03  0.00000000000E+00 0.  1.
         21   -1    0    0  501  502 -0.00000000000E+00 -0.00000000000E+00 -0.61465888611E+02  0.61465888611E+02  0.00000000000E+00 0.  1.
      99926    2    1    2    0    0  0.00000000000E+00  0.00000000000E+00  0.67853775581E+03  0.80146953303E+03  0.42654416690E+03 0.  0.
      99925    2    3    3    0    0 -0.58722377084E+02 -0.46798759754E+02  0.50777341024E+03  0.57686674743E+03  0.26325456625E+03 0.  0.
         25    1    4    4    0    0 -0.20208605310E+00  0.73324214267E+01  0.24096446345E+03  0.27159747051E+03  0.12509000000E+03 0.  0.
         25    1    3    3    0    0  0.58722377084E+02  0.46798759754E+02  0.17076434556E+03  0.22460278560E+03  0.12509000000E+03 0.  0.
         25    1    4    4    0    0 -0.58520291030E+02 -0.54131181180E+02  0.26680894680E+03  0.30526927692E+03  0.12509000000E+03 0.  0.
<mgrwt>
<rscale>  2 0.42654417E+03</rscale>
<asrwt>0</asrwt>
<pdfrwt beam="1">  1       21 0.10882406E+00 0.42654417E+03</pdfrwt>
<pdfrwt beam="2">  1       21 0.90391017E-02 0.42654417E+03</pdfrwt>
<totfact> 0.60015512E+04</totfact>
</mgrwt>
</event>
<event>
 7    0  0.4775379E-002  0.4571811E+03  0.7546771E-02  0.1025602E+00
         21   -1    0    0  502  501  0.00000000000E+00  0.00000000000E+00  0.10742264475E+03  0.10742264475E+03  0.00000000000E+00 0.  1.
         21   -1    0    0  501  502 -0.00000000000E+00 -0.00000000000E+00 -0.48643047423E+03  0.48643047423E+03  0.00000000000E+00 0.  1.
      99926    2    1    2    0    0  0.00000000000E+00  0.71054273576E-14 -0.37900782948E+03  0.59385311897E+03  0.45718113709E+03 0.  0.
      99925    2    3    3    0    0 -0.92494826363E+02  0.45017145169E+02 -0.30503680802E+03  0.41580521424E+03  0.26318184907E+03 0.  0.
         25    1    4    4    0    0 -0.49942141638E+02 -0.17073430914E+02 -0.16274542039E+03  0.21194173613E+03  0.12509000000E+03 0.  0.
         25    1    4    4    0    0 -0.42552684725E+02  0.62090576083E+02 -0.14229138763E+03  0.20386347811E+03  0.12509000000E+03 0.  0.
         25    1    3    3    0    0  0.92494826363E+02 -0.45017145169E+02 -0.73971021462E+02  0.17804790473E+03  0.12509000000E+03 0.  0.
<mgrwt>
<rscale>  2 0.45718114E+03</rscale>
<asrwt>0</asrwt>
<pdfrwt beam="1">  1       21 0.15797448E-01 0.45718114E+03</pdfrwt>
<pdfrwt beam="2">  1       21 0.71533892E-01 0.45718114E+03</pdfrwt>
<totfact> 0.58051114E+04</totfact>
</mgrwt>
</event>
<event>
 7    0  0.4775379E-002  0.4429476E+03  0.7546771E-02  0.1029846E+00
         21   -1    0    0  502  501  0.00000000000E+00  0.00000000000E+00  0.35051614398E+02  0.35051614398E+02  0.00000000000E+00 0.  1.
         21   -1    0    0  501  502 -0.00000000000E+00 -0.00000000000E+00 -0.13993832900E+04  0.13993832900E+04  0.00000000000E+00 0.  1.
      99926    2    1    2    0    0  0.71054273576E-14  0.00000000000E+00 -0.13643316756E+04  0.14344349044E+04  0.44294759725E+03 0.  0.
      99925    2    3    3    0    0  0.51923975484E+02  0.76012574849E+02 -0.10043238052E+04  0.10423543188E+04  0.26336706216E+03 0.  0.
         25    1    4    4    0    0 -0.15841613745E+02  0.32608156971E+02 -0.46365162437E+03  0.48159587364E+03  0.12509000000E+03 0.  0.
         25    1    3    3    0    0 -0.51923975484E+02 -0.76012574849E+02 -0.36000787040E+03  0.39208058561E+03  0.12509000000E+03 0.  0.
         25    1    4    4    0    0  0.67765589229E+02  0.43404417878E+02 -0.54067218085E+03  0.56075844516E+03  0.12509000000E+03 0.  0.
<mgrwt>
<rscale>  2 0.44294760E+03</rscale>
<asrwt>0</asrwt>
<pdfrwt beam="1">  1       21 0.51546483E-02 0.44294760E+03</pdfrwt>
<pdfrwt beam="2">  1       21 0.20579169E+00 0.44294760E+03</pdfrwt>
<totfact> 0.27956559E+04</totfact>
</mgrwt>
</event>
<event>
 7    0  0.4775379E-002  0.4401786E+03  0.7546771E-02  0.1030692E+00
         21   -1    0    0  502  501  0.00000000000E+00  0.00000000000E+00  0.42100298989E+03  0.42100298989E+03  0.00000000000E+00 0.  1.
         21   -1    0    0  501  502 -0.00000000000E+00 -0.00000000000E+00 -0.11505692819E+03  0.11505692819E+03  0.00000000000E+00 0.  1.
      99926    2    1    2    0    0  0.00000000000E+00  0.00000000000E+00  0.30594606170E+03  0.53605991808E+03  0.44017864908E+03 0.  0.
      99925    2    3    3    0    0  0.94064452730E+02 -0.19152831680E+02  0.16737562030E+03  0.32614510784E+03  0.26294691644E+03 0.  0.
         25    1    4    4    0    0  0.43698423025E+02 -0.16876737789E+02  0.37095449994E+02  0.13862884607E+03  0.12509000000E+03 0.  0.
         25    1    3    3    0    0 -0.94064452730E+02  0.19152831680E+02  0.13857044140E+03  0.20991481024E+03  0.12509000000E+03 0.  0.
         25    1    4    4    0    0  0.50366029705E+02 -0.22760938917E+01  0.13028017030E+03  0.18751626176E+03  0.12509000000E+03 0.  0.
<mgrwt>
<rscale>  2 0.44017865E+03</rscale>
<asrwt>0</asrwt>
<pdfrwt beam="1">  1       21 0.61912204E-01 0.44017865E+03</pdfrwt>
<pdfrwt beam="2">  1       21 0.16920137E-01 0.44017865E+03</pdfrwt>
<totfact> 0.70736909E+04</totfact>
</mgrwt>
</event>
<event>
 7    0  0.4775379E-002  0.4536104E+03  0.7546771E-02  0.1026651E+00
         21   -1    0    0  502  501  0.00000000000E+00  0.00000000000E+00  0.17884026839E+03  0.17884026839E+03  0.00000000000E+00 0.  1.
         21   -1    0    0  501  502 -0.00000000000E+00 -0.00000000000E+00 -0.28763434288E+03  0.28763434288E+03  0.00000000000E+00 0.  1.
      99926    2    1    2    0    0  0.00000000000E+00  0.35527136788E-14 -0.10879407449E+03  0.46647461127E+03  0.45361041910E+03 0.  0.
      99925    2    3    3    0    0 -0.74398207033E+02 -0.69890956867E+01 -0.15411037020E+03  0.31388032755E+03  0.26303405322E+03 0.  0.
         25    1    4    4    0    0 -0.26997489132E+02  0.33794574388E+02 -0.60050097284E+02  0.14534256074E+03  0.12509000000E+03 0.  0.
         25    1    4    4    0    0 -0.47400717901E+02 -0.40783670075E+02 -0.94060272914E+02  0.16853776681E+03  0.12509000000E+03 0.  0.
         25    1    3    3    0    0  0.74398207033E+02  0.69890956867E+01  0.45316295710E+02  0.15259428372E+03  0.12509000000E+03 0.  0.
<mgrwt>
<rscale>  2 0.45361042E+03</rscale>
<asrwt>0</asrwt>
<pdfrwt beam="1">  1       21 0.26300040E-01 0.45361042E+03</pdfrwt>
<pdfrwt beam="2">  1       21 0.42299168E-01 0.45361042E+03</pdfrwt>
<totfact> 0.68450367E+04</totfact>
</mgrwt>
</event>
<event>
 7    0  0.4775379E-002  0.4799005E+03  0.7546771E-02  0.1019163E+00
         21   -1    0    0  502  501  0.00000000000E+00  0.00000000000E+00  0.51795190883E+02  0.51795190883E+02  0.00000000000E+00 0.  1.
         21   -1    0    0  501  502 -0.00000000000E+00 -0.00000000000E+00 -0.11116114710E+04  0.11116114710E+04  0.00000000000E+00 0.  1.
      99926    2    1    2    0    0  0.00000000000E+00  0.35527136788E-14 -0.10598162802E+04  0.11634066619E+04  0.47990052440E+03 0.  0.
      99925    2    3    3    0    0 -0.83514343645E+02 -0.20362659674E+02 -0.40004526968E+03  0.48640254239E+03  0.26298656229E+03 0.  0.
         25    1    3    3    0    0  0.83514343645E+02  0.20362659674E+02 -0.65977101048E+03  0.67700411954E+03  0.12509000000E+03 0.  0.
         25    1    4    4    0    0 -0.68079101752E+02  0.14625575740E+02 -0.17495456790E+03  0.22606477056E+03  0.12509000000E+03 0.  0.
         25    1    4    4    0    0 -0.15435241892E+02 -0.34988235414E+02 -0.22509070178E+03  0.26033777182E+03  0.12509000000E+03 0.  0.
<mgrwt>
<rscale>  2 0.47990052E+03</rscale>
<asrwt>0</asrwt>
<pdfrwt beam="1">  1       21 0.76169404E-02 0.47990052E+03</pdfrwt>
<pdfrwt beam="2">  1       21 0.16347226E+00 0.47990052E+03</pdfrwt>
<totfact> 0.27583862E+04</totfact>
</mgrwt>
</event>
<event>
 7    0  0.4775379E-002  0.4506712E+03  0.7546771E-02  0.1027522E+00
         21   -1    0    0  502  501  0.00000000000E+00  0.00000000000E+00  0.11741487249E+03  0.11741487249E+03  0.00000000000E+00 0.  1.
         21   -1    0    0  501  502 -0.00000000000E+00 -0.00000000000E+00 -0.43245063919E+03  0.43245063919E+03  0.00000000000E+00 0.  1.
      99926    2    1    2    0    0 -0.17763568394E-14  0.00000000000E+00 -0.31503576670E+03  0.54986551168E+03  0.45067121789E+03 0.  0.
      99925    2    3    3    0    0  0.95243705500E+01  0.10219093027E+03 -0.15445559956E+03  0.32190236105E+03  0.26311765040E+03 0.  0.
         25    1    4    4    0    0 -0.34364976428E+02  0.57362444744E+02 -0.66879192082E+02  0.15681752487E+03  0.12509000000E+03 0.  0.
         25    1    4    4    0    0  0.43889346978E+02  0.44828485525E+02 -0.87576407474E+02  0.16508483619E+03  0.12509000000E+03 0.  0.
         25    1    3    3    0    0 -0.95243705500E+01 -0.10219093027E+03 -0.16058016714E+03  0.22796315063E+03  0.12509000000E+03 0.  0.
<mgrwt>
<rscale>  2 0.45067122E+03</rscale>
<asrwt>0</asrwt>
<pdfrwt beam="1">  1       21 0.17266893E-01 0.45067122E+03</pdfrwt>
<pdfrwt beam="2">  1       21 0.63595681E-01 0.45067122E+03</pdfrwt>
<totfact> 0.64040693E+04</totfact>
</mgrwt>
</event>
<event>
 7    0  0.4775379E-002  0.4531223E+03  0.7546771E-02  0.1026795E+00
         21   -1    0    0  502  501  0.00000000000E+00  0.00000000000E+00  0.29668796582E+03  0.29668796582E+03  0.00000000000E+00 0. -1.
         21   -1    0    0  501  502 -0.00000000000E+00 -0.00000000000E+00 -0.17300990599E+03  0.17300990599E+03  0.00000000000E+00 0. -1.
      99926    2    1    2    0    0  0.35527136788E-14  0.00000000000E+00  0.12367805984E+03  0.46969787181E+03  0.45312231053E+03 0.  0.
      99925    2    3    3    0    0 -0.11474139181E+02  0.10025259330E+03  0.28650745246E+02  0.28298971197E+03  0.26283088392E+03 0.  0.
         25    1    4    4    0    0 -0.43804026281E+02  0.39023716648E+02  0.21597503672E+02  0.13984135098E+03  0.12509000000E+03 0.  0.
         25    1    3    3    0    0  0.11474139181E+02 -0.10025259330E+03  0.95027314589E+02  0.18670815984E+03  0.12509000000E+03 0.  0.
         25    1    4    4    0    0  0.32329887100E+02  0.61228876652E+02  0.70532415742E+01  0.14314836098E+03  0.12509000000E+03 0.  0.
<mgrwt>
<rscale>  2 0.45312231E+03</rscale>
<asrwt>0</asrwt>
<pdfrwt beam="1">  1       21 0.43630583E-01 0.45312231E+03</pdfrwt>
<pdfrwt beam="2">  1       21 0.25442633E-01 0.45312231E+03</pdfrwt>
<totfact> 0.68472516E+04</totfact>
</mgrwt>
</event>
<event>
 7    0  0.4775379E-002  0.4978492E+03  0.7546771E-02  0.1014342E+00
         21   -1    0    0  502  501  0.00000000000E+00  0.00000000000E+00  0.17189383959E+03  0.17189383959E+03  0.00000000000E+00 0.  1.
         21   -1    0    0  501  502 -0.00000000000E+00 -0.00000000000E+00 -0.36047508991E+03  0.36047508991E+03  0.00000000000E+00 0.  1.
      99926    2    1    2    0    0  0.00000000000E+00  0.00000000000E+00 -0.18858125031E+03  0.53236892950E+03  0.49784916303E+03 0.  0.
      99925    2    3    3    0    0  0.30533734295E+02  0.66813497838E+02 -0.25429524976E+03  0.37311381892E+03  0.26296671917E+03 0.  0.
         25    1    4    4    0    0 -0.49416541084E+01 -0.17712311159E+01 -0.10252383777E+03  0.16182151469E+03  0.12509000000E+03 0.  0.
         25    1    4    4    0    0  0.35475388403E+02  0.68584728954E+02 -0.15177141200E+03  0.21129230423E+03  0.12509000000E+03 0.  0.
         25    1    3    3    0    0 -0.30533734295E+02 -0.66813497838E+02  0.65713999450E+02  0.15925511058E+03  0.12509000000E+03 0.  0.
<mgrwt>
<rscale>  2 0.49784916E+03</rscale>
<asrwt>0</asrwt>
<pdfrwt beam="1">  1       21 0.25278506E-01 0.49784916E+03</pdfrwt>
<pdfrwt beam="2">  1       21 0.53011042E-01 0.49784916E+03</pdfrwt>
<totfact> 0.45497758E+04</totfact>
</mgrwt>
</event>
<event>
 7    0  0.4775379E-002  0.4562603E+03  0.7546771E-02  0.1025871E+00
         21   -1    0    0  502  501  0.00000000000E+00  0.00000000000E+00  0.99326134326E+03  0.99326134326E+03  0.00000000000E+00 0.  1.
         21   -1    0    0  501  502 -0.00000000000E+00 -0.00000000000E+00 -0.52396449839E+02  0.52396449839E+02  0.00000000000E+00 0.  1.
      99926    2    1    2    0    0 -0.14210854715E-13  0.00000000000E+00  0.94086489343E+03  0.10456577931E+04  0.45626031232E+03 0.  0.
      99925    2    3    3    0    0 -0.79297573577E+02 -0.64056722497E+02  0.47273952544E+03  0.55050101276E+03  0.26301584983E+03 0.  0.
         25    1    4    4    0    0 -0.18435613250E+02 -0.66133494305E+02  0.22750984033E+03  0.26855492260E+03  0.12509000000E+03 0.  0.
         25    1    4    4    0    0 -0.60861960327E+02  0.20767718079E+01  0.24522968511E+03  0.28194609016E+03  0.12509000000E+03 0.  0.
         25    1    3    3    0    0  0.79297573577E+02  0.64056722497E+02  0.46812536798E+03  0.49515678035E+03  0.12509000000E+03 0.  0.
<mgrwt>
<rscale>  2 0.45626031E+03</rscale>
<asrwt>0</asrwt>
<pdfrwt beam="1">  1       21 0.14606783E+00 0.45626031E+03</pdfrwt>
<pdfrwt beam="2">  1       21 0.77053609E-02 0.45626031E+03</pdfrwt>
<totfact> 0.37071091E+04</totfact>
</mgrwt>
</event>
<event>
 7    0  0.4775379E-002  0.4583431E+03  0.7546771E-02  0.1025263E+00
         21   -1    0    0  502  501  0.00000000000E+00  0.00000000000E+00  0.57749250837E+02  0.57749250837E+02  0.00000000000E+00 0.  1.
         21   -1    0    0  501  502 -0.00000000000E+00 -0.00000000000E+00 -0.90944198794E+03  0.90944198794E+03  0.00000000000E+00 0.  1.
      99926    2    1    2    0    0  0.00000000000E+00 -0.35527136788E-14 -0.85169273710E+03  0.96719123877E+03  0.45834307449E+03 0.  0.
      99925    2    3    3    0    0  0.47472996428E+02  0.21710361547E+02 -0.31515305399E+03  0.41379502914E+03  0.26302063324E+03 0.  0.
         25    1    3    3    0    0 -0.47472996428E+02 -0.21710361547E+02 -0.53653968311E+03  0.55339620963E+03  0.12509000000E+03 0.  0.
         25    1    4    4    0    0 -0.55264548352E+01  0.38165434529E+02 -0.16543703126E+03  0.21095985757E+03  0.12509000000E+03 0.  0.
         25    1    4    4    0    0  0.52999451263E+02 -0.16455072983E+02 -0.14971602273E+03  0.20283517157E+03  0.12509000000E+03 0.  0.
<mgrwt>
<rscale>  2 0.45834307E+03</rscale>
<asrwt>0</asrwt>
<pdfrwt beam="1">  1       21 0.84925371E-02 0.45834307E+03</pdfrwt>
<pdfrwt beam="2">  1       21 0.13374146E+00 0.45834307E+03</pdfrwt>
<totfact> 0.39412191E+04</totfact>
</mgrwt>
</event>
<event>
 7    0  0.4775379E-002  0.4381903E+03  0.7546771E-02  0.1031304E+00
         21   -1    0    0  502  501  0.00000000000E+00  0.00000000000E+00  0.21404839088E+03  0.21404839088E+03  0.00000000000E+00 0. -1.
         21   -1    0    0  501  502 -0.00000000000E+00 -0.00000000000E+00 -0.22426085299E+03  0.22426085299E+03  0.00000000000E+00 0. -1.
      99926    2    1    2    0    0  0.00000000000E+00  0.17763568394E-14 -0.10212462119E+02  0.43830924387E+03  0.43819025420E+03 0.  0.
      99925    2    3    3    0    0 -0.95303143380E+02  0.15418617877E+02 -0.84008139100E+01  0.28028641930E+03  0.26300091303E+03 0.  0.
         25    1    4    4    0    0 -0.65956705874E+02  0.36405303809E+02  0.18969636892E+02  0.14725144624E+03  0.12509000000E+03 0.  0.
         25    1    4    4    0    0 -0.29346437507E+02 -0.20986685932E+02 -0.27370450802E+02  0.13303497306E+03  0.12509000000E+03 0.  0.
         25    1    3    3    0    0  0.95303143380E+02 -0.15418617877E+02 -0.18116482086E+01  0.15802282457E+03  0.12509000000E+03 0.  0.
<mgrwt>
<rscale>  2 0.43819025E+03</rscale>
<asrwt>0</asrwt>
<pdfrwt beam="1">  1       21 0.31477705E-01 0.43819025E+03</pdfrwt>
<pdfrwt beam="2">  1       21 0.32979537E-01 0.43819025E+03</pdfrwt>
<totfact> 0.79988193E+04</totfact>
</mgrwt>
</event>
<event>
 7    0  0.4775379E-002  0.4657677E+03  0.7546771E-02  0.1023122E+00
         21   -1    0    0  502  501  0.00000000000E+00  0.00000000000E+00  0.44849988977E+03  0.44849988977E+03  0.00000000000E+00 0. -1.
         21   -1    0    0  501  502 -0.00000000000E+00 -0.00000000000E+00 -0.12092508072E+03  0.12092508072E+03  0.00000000000E+00 0. -1.
      99926    2    1    2    0    0  0.00000000000E+00  0.17763568394E-14  0.32757480905E+03  0.56942497049E+03  0.46576769048E+03 0.  0.
      99925    2    3    3    0    0 -0.27747096024E+02 -0.12549899059E+02  0.35009924428E+03  0.43872585195E+03  0.26264708454E+03 0.  0.
         25    1    4    4    0    0 -0.65336040905E+01 -0.33183058598E+02  0.22325578855E+03  0.25813651153E+03  0.12509000000E+03 0.  0.
         25    1    3    3    0    0  0.27747096024E+02  0.12549899059E+02 -0.22524435237E+02  0.13069911854E+03  0.12509000000E+03 0.  0.
         25    1    4    4    0    0 -0.21213491934E+02  0.20633159538E+02  0.12684345573E+03  0.18058934042E+03  0.12509000000E+03 0.  0.
<mgrwt>
<rscale>  2 0.46576769E+03</rscale>
<asrwt>0</asrwt>
<pdfrwt beam="1">  1       21 0.65955866E-01 0.46576769E+03</pdfrwt>
<pdfrwt beam="2">  1       21 0.17783100E-01 0.46576769E+03</pdfrwt>
<totfact> 0.55703784E+04</totfact>
</mgrwt>
</event>
<event>
 7    0  0.4775379E-002  0.4619253E+03  0.7546771E-02  0.1024224E+00
         21   -1    0    0  502  501  0.00000000000E+00  0.00000000000E+00  0.21393733041E+03  0.21393733041E+03  0.00000000000E+00 0. -1.
         21   -1    0    0  501  502 -0.00000000000E+00 -0.00000000000E+00 -0.24934286745E+03  0.24934286745E+03  0.00000000000E+00 0. -1.
      99926    2    1    2    0    0  0.14210854715E-13  0.00000000000E+00 -0.35405537033E+02  0.46328019786E+03  0.46192530747E+03 0.  0.
      99925    2    3    3    0    0  0.73226755666E+02 -0.93847036555E+02 -0.11325982766E+02  0.28893354017E+03  0.26303020498E+03 0.  0.
         25    1    4    4    0    0  0.32427104638E+01 -0.30997248086E+02  0.16511395826E+02  0.12996722222E+03  0.12509000000E+03 0.  0.
         25    1    4    4    0    0  0.69984045203E+02 -0.62849788469E+02 -0.27837378592E+02  0.15896631794E+03  0.12509000000E+03 0.  0.
         25    1    3    3    0    0 -0.73226755666E+02  0.93847036555E+02 -0.24079554267E+02  0.17434665769E+03  0.12509000000E+03 0.  0.
<mgrwt>
<rscale>  2 0.46192531E+03</rscale>
<asrwt>0</asrwt>
<pdfrwt beam="1">  1       21 0.31461372E-01 0.46192531E+03</pdfrwt>
<pdfrwt beam="2">  1       21 0.36668069E-01 0.46192531E+03</pdfrwt>
<totfact> 0.64315524E+04</totfact>
</mgrwt>
</event>
<event>
 7    0  0.4775379E-002  0.4403643E+03  0.7546771E-02  0.1030635E+00
         21   -1    0    0  502  501  0.00000000000E+00  0.00000000000E+00  0.12057985587E+03  0.12057985587E+03  0.00000000000E+00 0. -1.
         21   -1    0    0  501  502 -0.00000000000E+00 -0.00000000000E+00 -0.40205865315E+03  0.40205865315E+03  0.00000000000E+00 0. -1.
      99926    2    1    2    0    0  0.00000000000E+00  0.00000000000E+00 -0.28147879728E+03  0.52263850902E+03  0.44036427851E+03 0.  0.
      99925    2    3    3    0    0  0.85333397539E+02  0.49009896460E+02 -0.16955425187E+03  0.32806623286E+03  0.26304952029E+03 0.  0.
         25    1    4    4    0    0  0.53158076143E+02 -0.78463899596E+01 -0.10942905093E+03  0.17466989489E+03  0.12509000000E+03 0.  0.
         25    1    4    4    0    0  0.32175321396E+02  0.56856286419E+02 -0.60125200949E+02  0.15339633797E+03  0.12509000000E+03 0.  0.
         25    1    3    3    0    0 -0.85333397539E+02 -0.49009896460E+02 -0.11192454541E+03  0.19457227616E+03  0.12509000000E+03 0.  0.
<mgrwt>
<rscale>  2 0.44036428E+03</rscale>
<asrwt>0</asrwt>
<pdfrwt beam="1">  1       21 0.17732332E-01 0.44036428E+03</pdfrwt>
<pdfrwt beam="2">  1       21 0.59126272E-01 0.44036428E+03</pdfrwt>
<totfact> 0.71661328E+04</totfact>
</mgrwt>
</event>
<event>
 7    0  0.4775379E-002  0.4567632E+03  0.7546771E-02  0.1025724E+00
         21   -1    0    0  502  501  0.00000000000E+00  0.00000000000E+00  0.14471811454E+03  0.14471811454E+03  0.00000000000E+00 0.  1.
         21   -1    0    0  501  502 -0.00000000000E+00 -0.00000000000E+00 -0.36041202384E+03  0.36041202384E+03  0.00000000000E+00 0.  1.
      99926    2    1    2    0    0  0.00000000000E+00  0.00000000000E+00 -0.21569390930E+03  0.50513013838E+03  0.45676317079E+03 0.  0.
      99925    2    3    3    0    0  0.12203065706E+02  0.10129142774E+03 -0.76129566600E+02  0.29174180224E+03  0.26250466685E+03 0.  0.
         25    1    4    4    0    0  0.19078250312E+02  0.26296352914E+02 -0.66675595919E+02  0.14542565455E+03  0.12509000000E+03 0.  0.
         25    1    4    4    0    0 -0.68751846054E+01  0.74995074826E+02 -0.94539706814E+01  0.14631614768E+03  0.12509000000E+03 0.  0.
         25    1    3    3    0    0 -0.12203065706E+02 -0.10129142774E+03 -0.13956434270E+03  0.21338833614E+03  0.12509000000E+03 0.  0.
<mgrwt>
<rscale>  2 0.45676317E+03</rscale>
<asrwt>0</asrwt>
<pdfrwt beam="1">  1       21 0.21282076E-01 0.45676317E+03</pdfrwt>
<pdfrwt beam="2">  1       21 0.53001767E-01 0.45676317E+03</pdfrwt>
<totfact> 0.64011195E+04</totfact>
</mgrwt>
</event>
<event>
 7    0  0.4775379E-002  0.4555032E+03  0.7546771E-02  0.1026094E+00
         21   -1    0    0  502  501  0.00000000000E+00  0.00000000000E+00  0.42162823705E+03  0.42162823705E+03  0.00000000000E+00 0.  1.
         21   -1    0    0  501  502 -0.00000000000E+00 -0.00000000000E+00 -0.12302497121E+03  0.12302497121E+03  0.00000000000E+00 0.  1.
      99926    2    1    2    0    0 -0.71054273576E-14  0.00000000000E+00  0.29860326584E+03  0.54465320826E+03  0.45550324576E+03 0.  0.
      99925    2    3    3    0    0 -0.60221751998E+02 -0.20634498320E+02  0.75488530963E+02  0.28106236063E+03  0.26314461864E+03 0.  0.
         25    1    3    3    0    0  0.60221751998E+02  0.20634498320E+02  0.22311473488E+03  0.26359084763E+03  0.12509000000E+03 0.  0.
         25    1    4    4    0    0 -0.30449304642E+02  0.10781481999E+02  0.10435094774E+01  0.12919751360E+03  0.12509000000E+03 0.  0.
         25    1    4    4    0    0 -0.29772447355E+02 -0.31415980319E+02  0.74445021486E+02  0.15186484703E+03  0.12509000000E+03 0.  0.
<mgrwt>
<rscale>  2 0.45550325E+03</rscale>
<asrwt>0</asrwt>
<pdfrwt beam="1">  1       21 0.62004152E-01 0.45550325E+03</pdfrwt>
<pdfrwt beam="2">  1       21 0.18091908E-01 0.45550325E+03</pdfrwt>
<totfact> 0.61974061E+04</totfact>
</mgrwt>
</event>
<event>
 7    0  0.4775379E-002  0.4238461E+03  0.7546771E-02  0.1035822E+00
         21   -1    0    0  502  501  0.00000000000E+00  0.00000000000E+00  0.95862614340E+02  0.95862614340E+02  0.00000000000E+00 0. -1.
         21   -1    0    0  501  502 -0.00000000000E+00 -0.00000000000E+00 -0.46849740747E+03  0.46849740747E+03  0.00000000000E+00 0. -1.
      99926    2    1    2    0    0  0.00000000000E+00  0.00000000000E+00 -0.37263479313E+03  0.56436002181E+03  0.42384613383E+03 0.  0.
      99925    2    3    3    0    0 -0.64510449969E+02 -0.23665371708E+02 -0.18601333990E+03  0.32942019360E+03  0.26304952643E+03 0.  0.
         25    1    4    4    0    0 -0.57043655113E+02 -0.79520193739E+01 -0.13610793370E+03  0.19362358048E+03  0.12509000000E+03 0.  0.
         25    1    4    4    0    0 -0.74667948561E+01 -0.15713352334E+02 -0.49905406194E+02  0.13579661312E+03  0.12509000000E+03 0.  0.
         25    1    3    3    0    0  0.64510449969E+02  0.23665371708E+02 -0.18662145324E+03  0.23493982821E+03  0.12509000000E+03 0.  0.
<mgrwt>
<rscale>  2 0.42384613E+03</rscale>
<asrwt>0</asrwt>
<pdfrwt beam="1">  1       21 0.14097443E-01 0.42384613E+03</pdfrwt>
<pdfrwt beam="2">  1       21 0.68896677E-01 0.42384613E+03</pdfrwt>
<totfact> 0.78568707E+04</totfact>
</mgrwt>
</event>
<event>
 7    0  0.4775379E-002  0.4489815E+03  0.7546771E-02  0.1028026E+00
         21   -1    0    0  502  501  0.00000000000E+00  0.00000000000E+00  0.17083230352E+03  0.17083230352E+03  0.00000000000E+00 0. -1.
         21   -1    0    0  501  502 -0.00000000000E+00 -0.00000000000E+00 -0.29500330019E+03  0.29500330019E+03  0.00000000000E+00 0. -1.
      99926    2    1    2    0    0  0.00000000000E+00  0.00000000000E+00 -0.12417099667E+03  0.46583560371E+03  0.44898148433E+03 0.  0.
      99925    2    3    3    0    0  0.98983149646E+02  0.19665495939E+02 -0.40466621702E+02  0.28462212150E+03  0.26303575599E+03 0.  0.
         25    1    3    3    0    0 -0.98983149646E+02 -0.19665495939E+02 -0.83704374971E+02  0.18121348221E+03  0.12509000000E+03 0.  0.
         25    1    4    4    0    0  0.61075503746E+02  0.49111081562E+02 -0.25599938255E+02  0.14981648917E+03  0.12509000000E+03 0.  0.
         25    1    4    4    0    0  0.37907645900E+02 -0.29445585623E+02 -0.14866683447E+02  0.13480563233E+03  0.12509000000E+03 0.  0.
<mgrwt>
<rscale>  2 0.44898148E+03</rscale>
<asrwt>0</asrwt>
<pdfrwt beam="1">  1       21 0.25122398E-01 0.44898148E+03</pdfrwt>
<pdfrwt beam="2">  1       21 0.43382838E-01 0.44898148E+03</pdfrwt>
<totfact> 0.71080336E+04</totfact>
</mgrwt>
</event>
<event>
 7    0  0.4775379E-002  0.4946433E+03  0.7546771E-02  0.1015187E+00
         21   -1    0    0  502  501  0.00000000000E+00  0.00000000000E+00  0.53425856775E+03  0.53425856775E+03  0.00000000000E+00 0. -1.
         21   -1    0    0  501  502 -0.00000000000E+00 -0.00000000000E+00 -0.11449136246E+03  0.11449136246E+03  0.00000000000E+00 0. -1.
      99926    2    1    2    0    0  0.00000000000E+00  0.35527136788E-14  0.41976720528E+03  0.64874993021E+03  0.49464327077E+03 0.  0.
      99925    2    3    3    0    0 -0.76808896206E+02  0.10426349741E+02  0.91465672963E+02  0.28897539035E+03  0.26293058322E+03 0.  0.
         25    1    4    4    0    0 -0.26379089294E+02  0.39442417889E+02  0.64007969346E+02  0.14831078491E+03  0.12509000000E+03 0.  0.
         25    1    4    4    0    0 -0.50429806912E+02 -0.29016068148E+02  0.27457703617E+02  0.14066460544E+03  0.12509000000E+03 0.  0.
         25    1    3    3    0    0  0.76808896206E+02 -0.10426349741E+02  0.32830153232E+03  0.35977453986E+03  0.12509000000E+03 0.  0.
<mgrwt>
<rscale>  2 0.49464327E+03</rscale>
<asrwt>0</asrwt>
<pdfrwt beam="1">  1       21 0.78567435E-01 0.49464327E+03</pdfrwt>
<pdfrwt beam="2">  1       21 0.16836965E-01 0.49464327E+03</pdfrwt>
<totfact> 0.41266373E+04</totfact>
</mgrwt>
</event>
<event>
 7    0  0.4775379E-002  0.4570106E+03  0.7546771E-02  0.1025652E+00
         21   -1    0    0  502  501  0.00000000000E+00  0.00000000000E+00  0.53776715405E+03  0.53776715405E+03  0.00000000000E+00 0.  1.
         21   -1    0    0  501  502 -0.00000000000E+00 -0.00000000000E+00 -0.97095319832E+02  0.97095319832E+02  0.00000000000E+00 0.  1.
      99926    2    1    2    0    0 -0.35527136788E-14  0.00000000000E+00  0.44067183421E+03  0.63486247388E+03  0.45701060739E+03 0.  0.
      99925    2    3    3    0    0  0.25562111956E+02  0.11212513865E+03  0.27865286051E+03  0.40007933090E+03  0.26304103494E+03 0.  0.
         25    1    4    4    0    0  0.24100658762E+02  0.97871520439E+02  0.16819082216E+03  0.23258404293E+03  0.12509000000E+03 0.  0.
         25    1    4    4    0    0  0.14614531944E+01  0.14253618211E+02  0.11046203835E+03  0.16749528797E+03  0.12509000000E+03 0.  0.
         25    1    3    3    0    0 -0.25562111956E+02 -0.11212513865E+03  0.16201897370E+03  0.23478314297E+03  0.12509000000E+03 0.  0.
<mgrwt>
<rscale>  2 0.45701061E+03</rscale>
<asrwt>0</asrwt>
<pdfrwt beam="1">  1       21 0.79083404E-01 0.45701061E+03</pdfrwt>
<pdfrwt beam="2">  1       21 0.14278724E-01 0.45701061E+03</pdfrwt>
<totfact> 0.55692995E+04</totfact>
</mgrwt>
</event>
<event>
 7    0  0.4775379E-002  0.4528311E+03  0.7546771E-02  0.1026881E+00
         21   -1    0    0  502  501  0.00000000000E+00  0.00000000000E+00  0.16947410752E+03  0.16947410752E+03  0.00000000000E+00 0.  1.
         21   -1    0    0  501  502 -0.00000000000E+00 -0.00000000000E+00 -0.30248864399E+03  0.30248864399E+03  0.00000000000E+00 0.  1.
      99926    2    1    2    0    0  0.00000000000E+00  0.00000000000E+00 -0.13301453647E+03  0.47196275151E+03  0.45283106331E+03 0.  0.
      99925    2    3    3    0    0 -0.93020146656E+02  0.40222446981E+02 -0.13142818977E+03  0.31096393934E+03  0.26297264036E+03 0.  0.
         25    1    4    4    0    0 -0.32269928272E+02  0.57647415346E+02 -0.72046767084E+02  0.15875395275E+03  0.12509000000E+03 0.  0.
         25    1    3    3    0    0  0.93020146656E+02 -0.40222446981E+02 -0.15863466996E+01  0.16099881217E+03  0.12509000000E+03 0.  0.
         25    1    4    4    0    0 -0.60750218384E+02 -0.17424968366E+02 -0.59381422684E+02  0.15220998659E+03  0.12509000000E+03 0.  0.
<mgrwt>
<rscale>  2 0.45283106E+03</rscale>
<asrwt>0</asrwt>
<pdfrwt beam="1">  1       21 0.24922663E-01 0.45283106E+03</pdfrwt>
<pdfrwt beam="2">  1       21 0.44483624E-01 0.45283106E+03</pdfrwt>
<totfact> 0.68460693E+04</totfact>
</mgrwt>
</event>
<event>
 7    0  0.4775379E-002  0.4284912E+03  0.7546771E-02  0.1034338E+00
         21   -1    0    0  502  501  0.00000000000E+00  0.00000000000E+00  0.52970566160E+03  0.52970566160E+03  0.00000000000E+00 0. -1.
         21   -1    0    0  501  502 -0.00000000000E+00 -0.00000000000E+00 -0.86654112792E+02  0.86654112792E+02  0.00000000000E+00 0. -1.
      99926    2    1    2    0    0  0.00000000000E+00  0.00000000000E+00  0.44305154881E+03  0.61635977440E+03  0.42849118613E+03 0.  0.
      99925    2    3    3    0    0 -0.61905837785E+02  0.59367852132E+02  0.28130656516E+03  0.39462609979E+03  0.26313399707E+03 0.  0.
         25    1    3    3    0    0  0.61905837785E+02 -0.59367852132E+02  0.16174498365E+03  0.22173367461E+03  0.12509000000E+03 0.  0.
         25    1    4    4    0    0 -0.13528481583E+02  0.61318372719E+02  0.11629708066E+03  0.18197659662E+03  0.12509000000E+03 0.  0.
         25    1    4    4    0    0 -0.48377356202E+02 -0.19505205862E+01  0.16500948450E+03  0.21264950317E+03  0.12509000000E+03 0.  0.
<mgrwt>
<rscale>  2 0.42849119E+03</rscale>
<asrwt>0</asrwt>
<pdfrwt beam="1">  1       21 0.77897890E-01 0.42849119E+03</pdfrwt>
<pdfrwt beam="2">  1       21 0.12743252E-01 0.42849119E+03</pdfrwt>
<totfact> 0.71516033E+04</totfact>
</mgrwt>
</event>
<event>
 7    0  0.4775379E-002  0.4566788E+03  0.7546771E-02  0.1025749E+00
         21   -1    0    0  502  501  0.00000000000E+00  0.00000000000E+00  0.11728799604E+03  0.11728799604E+03  0.00000000000E+00 0.  1.
         21   -1    0    0  501  502 -0.00000000000E+00 -0.00000000000E+00 -0.44453731443E+03  0.44453731443E+03  0.00000000000E+00 0.  1.
      99926    2    1    2    0    0  0.00000000000E+00  0.00000000000E+00 -0.32724931839E+03  0.56182531046E+03  0.45667884020E+03 0.  0.
      99925    2    3    3    0    0 -0.32054817414E+02 -0.49420962665E+02 -0.32673352043E+03  0.42355847779E+03  0.26301529968E+03 0.  0.
         25    1    4    4    0    0  0.63025023701E+01 -0.19716037011E+02 -0.21200153754E+03  0.24702348809E+03  0.12509000000E+03 0.  0.
         25    1    4    4    0    0 -0.38357319784E+02 -0.29704925654E+02 -0.11473198289E+03  0.17653498970E+03  0.12509000000E+03 0.  0.
         25    1    3    3    0    0  0.32054817414E+02  0.49420962665E+02 -0.51579796398E+00  0.13826683267E+03  0.12509000000E+03 0.  0.
<mgrwt>
<rscale>  2 0.45667884E+03</rscale>
<asrwt>0</asrwt>
<pdfrwt beam="1">  1       21 0.17248235E-01 0.45667884E+03</pdfrwt>
<pdfrwt beam="2">  1       21 0.65373134E-01 0.45667884E+03</pdfrwt>
<totfact> 0.60287242E+04</totfact>
</mgrwt>
</event>
<event>
 7    0  0.4775379E-002  0.4522203E+03  0.7546771E-02  0.1027062E+00
         21   -1    0    0  502  501  0.00000000000E+00  0.00000000000E+00  0.51072086294E+02  0.51072086294E+02  0.00000000000E+00 0.  1.
         21   -1    0    0  501  502 -0.00000000000E+00 -0.00000000000E+00 -0.10010515748E+04  0.10010515748E+04  0.00000000000E+00 0.  1.
      99926    2    1    2    0    0  0.14210854715E-13  0.00000000000E+00 -0.94997948846E+03  0.10521236611E+04  0.45222026673E+03 0.  0.
      99925    2    3    3    0    0  0.91318365989E+02 -0.50733250583E+02 -0.68326501860E+03  0.73955843072E+03  0.26302600654E+03 0.  0.
         25    1    4    4    0    0  0.68572897934E+02  0.79686712266E+01 -0.35479495482E+03  0.38248230040E+03  0.12509000000E+03 0.  0.
         25    1    4    4    0    0  0.22745468056E+02 -0.58701921810E+02 -0.32847006378E+03  0.35707613032E+03  0.12509000000E+03 0.  0.
         25    1    3    3    0    0 -0.91318365989E+02  0.50733250583E+02 -0.26671446986E+03  0.31256523034E+03  0.12509000000E+03 0.  0.
<mgrwt>
<rscale>  2 0.45222027E+03</rscale>
<asrwt>0</asrwt>
<pdfrwt beam="1">  1       21 0.75106005E-02 0.45222027E+03</pdfrwt>
<pdfrwt beam="2">  1       21 0.14721347E+00 0.45222027E+03</pdfrwt>
<totfact> 0.38017712E+04</totfact>
</mgrwt>
</event>
<event>
 7    0  0.4775379E-002  0.4566802E+03  0.7546771E-02  0.1025748E+00
         21   -1    0    0  502  501  0.00000000000E+00  0.00000000000E+00  0.15408893844E+03  0.15408893844E+03  0.00000000000E+00 0. -1.
         21   -1    0    0  501  502 -0.00000000000E+00 -0.00000000000E+00 -0.33837076688E+03  0.33837076688E+03  0.00000000000E+00 0. -1.
      99926    2    1    2    0    0  0.00000000000E+00  0.35527136788E-14 -0.18428182844E+03  0.49245970532E+03  0.45668016058E+03 0.  0.
      99925    2    3    3    0    0 -0.36839031556E+02  0.29137675793E+02 -0.28413176844E+01  0.26712820410E+03  0.26295110942E+03 0.  0.
         25    1    4    4    0    0 -0.46431265931E+02  0.37703806574E+02 -0.20442795055E+02  0.14015297163E+03  0.12509000000E+03 0.  0.
         25    1    4    4    0    0  0.95922343750E+01 -0.85661307816E+01  0.17601477370E+02  0.12697523248E+03  0.12509000000E+03 0.  0.
         25    1    3    3    0    0  0.36839031556E+02 -0.29137675793E+02 -0.18144051076E+03  0.22533150122E+03  0.12509000000E+03 0.  0.
<mgrwt>
<rscale>  2 0.45668016E+03</rscale>
<asrwt>0</asrwt>
<pdfrwt beam="1">  1       21 0.22660138E-01 0.45668016E+03</pdfrwt>
<pdfrwt beam="2">  1       21 0.49760407E-01 0.45668016E+03</pdfrwt>
<totfact> 0.64933271E+04</totfact>
</mgrwt>
</event>
<event>
 7    0  0.4775379E-002  0.4551195E+03  0.7546771E-02  0.1026206E+00
         21   -1    0    0  502  501  0.00000000000E+00  0.00000000000E+00  0.68970695605E+02  0.68970695605E+02  0.00000000000E+00 0.  1.
         21   -1    0    0  501  502 -0.00000000000E+00 -0.00000000000E+00 -0.75080342385E+03  0.75080342385E+03  0.00000000000E+00 0.  1.
      99926    2    1    2    0    0  0.00000000000E+00  0.00000000000E+00 -0.68183272825E+03  0.81977411946E+03  0.45511947621E+03 0.  0.
      99925    2    3    3    0    0 -0.87706417284E+02  0.31777529931E+02 -0.31323179177E+03  0.41950372895E+03  0.26299619045E+03 0.  0.
         25    1    4    4    0    0 -0.31226614960E+02  0.13306115704E+02 -0.20998295450E+03  0.24676406439E+03  0.12509000000E+03 0.  0.
         25    1    3    3    0    0  0.87706417284E+02 -0.31777529931E+02 -0.36860093648E+03  0.40027039051E+03  0.12509000000E+03 0.  0.
         25    1    4    4    0    0 -0.56479802324E+02  0.18471414227E+02 -0.10324883727E+03  0.17273966456E+03  0.12509000000E+03 0.  0.
<mgrwt>
<rscale>  2 0.45511948E+03</rscale>
<asrwt>0</asrwt>
<pdfrwt beam="1">  1       21 0.10142749E-01 0.45511948E+03</pdfrwt>
<pdfrwt beam="2">  1       21 0.11041227E+00 0.45511948E+03</pdfrwt>
<totfact> 0.46779322E+04</totfact>
</mgrwt>
</event>
<event>
 7    0  0.4775379E-002  0.4528864E+03  0.7546771E-02  0.1026865E+00
         21   -1    0    0  502  501  0.00000000000E+00  0.00000000000E+00  0.13607594959E+03  0.13607594959E+03  0.00000000000E+00 0.  1.
         21   -1    0    0  501  502 -0.00000000000E+00 -0.00000000000E+00 -0.37682288040E+03  0.37682288040E+03  0.00000000000E+00 0.  1.
      99926    2    1    2    0    0  0.14210854715E-13  0.00000000000E+00 -0.24074693081E+03  0.51289882999E+03  0.45288643732E+03 0.  0.
      99925    2    3    3    0    0 -0.66686184924E+02  0.75914452850E+02 -0.98537166689E+02  0.29823356376E+03  0.26272349329E+03 0.  0.
         25    1    3    3    0    0  0.66686184924E+02 -0.75914452850E+02 -0.14220976412E+03  0.21466526622E+03  0.12509000000E+03 0.  0.
         25    1    4    4    0    0 -0.16258959642E+02 -0.58383698258E+00 -0.37539103164E+02  0.13161074045E+03  0.12509000000E+03 0.  0.
         25    1    4    4    0    0 -0.50427225283E+02  0.76498289832E+02 -0.60998063525E+02  0.16662282332E+03  0.12509000000E+03 0.  0.
<mgrwt>
<rscale>  2 0.45288644E+03</rscale>
<asrwt>0</asrwt>
<pdfrwt beam="1">  1       21 0.20011169E-01 0.45288644E+03</pdfrwt>
<pdfrwt beam="2">  1       21 0.55415129E-01 0.45288644E+03</pdfrwt>
<totfact> 0.65464741E+04</totfact>
</mgrwt>
</event>
<event>
 7    0  0.4775379E-002  0.4584071E+03  0.7546771E-02  0.1025244E+00
         21   -1    0    0  502  501  0.00000000000E+00  0.00000000000E+00  0.38426426876E+03  0.38426426876E+03  0.00000000000E+00 0.  1.
         21   -1    0    0  501  502 -0.00000000000E+00 -0.00000000000E+00 -0.13671391703E+03  0.13671391703E+03  0.00000000000E+00 0.  1.
      99926    2    1    2    0    0  0.00000000000E+00 -0.17763568394E-14  0.24755035173E+03  0.52097818579E+03  0.45840712629E+03 0.  0.
      99925    2    3    3    0    0 -0.10721264396E+03 -0.65032906590E+01  0.20617959798E+03  0.35099027099E+03  0.26295874181E+03 0.  0.
         25    1    3    3    0    0  0.10721264396E+03  0.65032906590E+01  0.41370753755E+02  0.16998791481E+03  0.12509000000E+03 0.  0.
         25    1    4    4    0    0 -0.61043958674E+02  0.35579819812E+02  0.93444183211E+02  0.17138148075E+03  0.12509000000E+03 0.  0.
         25    1    4    4    0    0 -0.46168685284E+02 -0.42083110471E+02  0.11273541477E+03  0.17960879024E+03  0.12509000000E+03 0.  0.
<mgrwt>
<rscale>  2 0.45840713E+03</rscale>
<asrwt>0</asrwt>
<pdfrwt beam="1">  1       21 0.56509451E-01 0.45840713E+03</pdfrwt>
<pdfrwt beam="2">  1       21 0.20104988E-01 0.45840713E+03</pdfrwt>
<totfact> 0.62124244E+04</totfact>
</mgrwt>
</event>
<event>
 7    0  0.4775379E-002  0.4577453E+03  0.7546771E-02  0.1025437E+00
         21   -1    0    0  502  501  0.00000000000E+00  0.00000000000E+00  0.51453623744E+03  0.51453623744E+03  0.00000000000E+00 0. -1.
         21   -1    0    0  501  502 -0.00000000000E+00 -0.00000000000E+00 -0.10180565497E+03  0.10180565497E+03  0.00000000000E+00 0. -1.
      99926    2    1    2    0    0  0.00000000000E+00  0.00000000000E+00  0.41273058247E+03  0.61634189241E+03  0.45774533818E+03 0.  0.
      99925    2    3    3    0    0  0.96340405142E+02 -0.48082677745E+02  0.20163942585E+03  0.34838592202E+03  0.26290849177E+03 0.  0.
         25    1    3    3    0    0 -0.96340405142E+02  0.48082677745E+02  0.21109115663E+03  0.26795597039E+03  0.12509000000E+03 0.  0.
         25    1    4    4    0    0  0.90536925862E+02 -0.20380815482E+02  0.10609486262E+03  0.18845673392E+03  0.12509000000E+03 0.  0.
         25    1    4    4    0    0  0.58034792796E+01 -0.27701862262E+02  0.95544563228E+02  0.15992918810E+03  0.12509000000E+03 0.  0.
<mgrwt>
<rscale>  2 0.45774534E+03</rscale>
<asrwt>0</asrwt>
<pdfrwt beam="1">  1       21 0.75667093E-01 0.45774534E+03</pdfrwt>
<pdfrwt beam="2">  1       21 0.14971420E-01 0.45774534E+03</pdfrwt>
<totfact> 0.56449593E+04</totfact>
</mgrwt>
</event>
<event>
 7    0  0.4775379E-002  0.4572514E+03  0.7546771E-02  0.1025581E+00
         21   -1    0    0  502  501  0.00000000000E+00  0.00000000000E+00  0.71958678934E+03  0.71958678934E+03  0.00000000000E+00 0. -1.
         21   -1    0    0  501  502 -0.00000000000E+00 -0.00000000000E+00 -0.72638504626E+02  0.72638504626E+02  0.00000000000E+00 0. -1.
      99926    2    1    2    0    0  0.00000000000E+00  0.00000000000E+00  0.64694828472E+03  0.79222529397E+03  0.45725138962E+03 0.  0.
      99925    2    3    3    0    0  0.41596730052E+02 -0.69677204720E+02  0.26452197035E+03  0.38175898009E+03  0.26302632049E+03 0.  0.
         25    1    3    3    0    0 -0.41596730052E+02  0.69677204720E+02  0.38242631437E+03  0.41046631388E+03  0.12509000000E+03 0.  0.
         25    1    4    4    0    0 -0.54185311104E+01 -0.88848899547E+01  0.94464796540E+02  0.15709680975E+03  0.12509000000E+03 0.  0.
         25    1    4    4    0    0  0.47015261163E+02 -0.60792314765E+02  0.17005717381E+03  0.22466217033E+03  0.12509000000E+03 0.  0.
<mgrwt>
<rscale>  2 0.45725139E+03</rscale>
<asrwt>0</asrwt>
<pdfrwt beam="1">  1       21 0.10582158E+00 0.45725139E+03</pdfrwt>
<pdfrwt beam="2">  1       21 0.10682133E-01 0.45725139E+03</pdfrwt>
<totfact> 0.47301822E+04</totfact>
</mgrwt>
</event>
<event>
 7    0  0.4775379E-002  0.4527824E+03  0.7546771E-02  0.1026896E+00
         21   -1    0    0  502  501  0.00000000000E+00  0.00000000000E+00  0.49932624627E+03  0.49932624627E+03  0.00000000000E+00 0. -1.
         21   -1    0    0  501  502 -0.00000000000E+00 -0.00000000000E+00 -0.10264428375E+03  0.10264428375E+03  0.00000000000E+00 0. -1.
      99926    2    1    2    0    0  0.00000000000E+00  0.71054273576E-14  0.39668196252E+03  0.60197053001E+03  0.45278244182E+03 0.  0.
      99925    2    3    3    0    0 -0.13081898214E+02 -0.35550889787E+02  0.38891565675E+03  0.47103991697E+03  0.26303652501E+03 0.  0.
         25    1    4    4    0    0  0.93026507105E+00 -0.46452180932E+02  0.24914458567E+03  0.28262909117E+03  0.12509000000E+03 0.  0.
         25    1    4    4    0    0 -0.14012163285E+02  0.10901291145E+02  0.13977107109E+03  0.18841082581E+03  0.12509000000E+03 0.  0.
         25    1    3    3    0    0  0.13081898214E+02  0.35550889787E+02  0.77663057623E+01  0.13093061304E+03  0.12509000000E+03 0.  0.
<mgrwt>
<rscale>  2 0.45278244E+03</rscale>
<asrwt>0</asrwt>
<pdfrwt beam="1">  1       21 0.73430329E-01 0.45278244E+03</pdfrwt>
<pdfrwt beam="2">  1       21 0.15094748E-01 0.45278244E+03</pdfrwt>
<totfact> 0.59594409E+04</totfact>
</mgrwt>
</event>
<event>
 7    0  0.4775379E-002  0.4560501E+03  0.7546771E-02  0.1025933E+00
         21   -1    0    0  502  501  0.00000000000E+00  0.00000000000E+00  0.25929189899E+03  0.25929189899E+03  0.00000000000E+00 0.  1.
         21   -1    0    0  501  502 -0.00000000000E+00 -0.00000000000E+00 -0.20052851328E+03  0.20052851328E+03  0.00000000000E+00 0.  1.
      99926    2    1    2    0    0  0.00000000000E+00  0.00000000000E+00  0.58763385708E+02  0.45982041226E+03  0.45605008062E+03 0.  0.
      99925    2    3    3    0    0 -0.29072809610E+02 -0.10753711295E+03  0.13282054742E+02  0.28625336906E+03  0.26335360146E+03 0.  0.
         25    1    4    4    0    0 -0.25633276401E+02 -0.48817637353E+02 -0.32731194591E+02  0.14056694411E+03  0.12509000000E+03 0.  0.
         25    1    3    3    0    0  0.29072809610E+02  0.10753711295E+03  0.45481330965E+02  0.17356704320E+03  0.12509000000E+03 0.  0.
         25    1    4    4    0    0 -0.34395332090E+01 -0.58719475593E+02  0.46013249333E+02  0.14568642496E+03  0.12509000000E+03 0.  0.
<mgrwt>
<rscale>  2 0.45605008E+03</rscale>
<asrwt>0</asrwt>
<pdfrwt beam="1">  1       21 0.38131162E-01 0.45605008E+03</pdfrwt>
<pdfrwt beam="2">  1       21 0.29489487E-01 0.45605008E+03</pdfrwt>
<totfact> 0.67625551E+04</totfact>
</mgrwt>
</event>
<event>
 7    0  0.4775379E-002  0.4465025E+03  0.7546771E-02  0.1028770E+00
         21   -1    0    0  502  501  0.00000000000E+00  0.00000000000E+00  0.36428876289E+02  0.36428876289E+02  0.00000000000E+00 0.  1.
         21   -1    0    0  501  502 -0.00000000000E+00 -0.00000000000E+00 -0.13681759773E+04  0.13681759773E+04  0.00000000000E+00 0.  1.
      99926    2    1    2    0    0 -0.35527136788E-14  0.00000000000E+00 -0.13317471010E+04  0.14046048536E+04  0.44650246771E+03 0.  0.
      99925    2    3    3    0    0 -0.31374192194E+02 -0.10018623907E+03 -0.83593796447E+03  0.88259352190E+03  0.26297798771E+03 0.  0.
         25    1    4    4    0    0 -0.11294425710E+02 -0.87026885755E+02 -0.39148107564E+03  0.42024538496E+03  0.12509000000E+03 0.  0.
         25    1    3    3    0    0  0.31374192194E+02  0.10018623907E+03 -0.49580913655E+03  0.52201133170E+03  0.12509000000E+03 0.  0.
         25    1    4    4    0    0 -0.20079766484E+02 -0.13159353317E+02 -0.44445688882E+03  0.46234813693E+03  0.12509000000E+03 0.  0.
<mgrwt>
<rscale>  2 0.44650247E+03</rscale>
<asrwt>0</asrwt>
<pdfrwt beam="1">  1       21 0.53571877E-02 0.44650247E+03</pdfrwt>
<pdfrwt beam="2">  1       21 0.20120235E+00 0.44650247E+03</pdfrwt>
<totfact> 0.28014320E+04</totfact>
</mgrwt>
</event>
<event>
 7    0  0.4775379E-002  0.4115461E+03  0.7546771E-02  0.1039853E+00
         21   -1    0    0  502  501  0.00000000000E+00  0.00000000000E+00  0.53863628001E+02  0.53863628001E+02  0.00000000000E+00 0.  1.
         21   -1    0    0  501  502 -0.00000000000E+00 -0.00000000000E+00 -0.78610643167E+03  0.78610643167E+03  0.00000000000E+00 0.  1.
      99926    2    1    2    0    0  0.00000000000E+00  0.00000000000E+00 -0.73224280367E+03  0.83997005967E+03  0.41154608201E+03 0.  0.
      99925    2    3    3    0    0 -0.14155164293E+02 -0.44707301680E+02 -0.39225066738E+03  0.47467391633E+03  0.26316464293E+03 0.  0.
         25    1    4    4    0    0 -0.12618000703E+02 -0.56780184877E+02 -0.24419741411E+03  0.28046940741E+03  0.12509000000E+03 0.  0.
         25    1    3    3    0    0  0.14155164293E+02  0.44707301680E+02 -0.33999213629E+03  0.36529614334E+03  0.12509000000E+03 0.  0.
         25    1    4    4    0    0 -0.15371635899E+01  0.12072883197E+02 -0.14805325327E+03  0.19420450892E+03  0.12509000000E+03 0.  0.
<mgrwt>
<rscale>  2 0.41154608E+03</rscale>
<asrwt>0</asrwt>
<pdfrwt beam="1">  1       21 0.79211222E-02 0.41154608E+03</pdfrwt>
<pdfrwt beam="2">  1       21 0.11560388E+00 0.41154608E+03</pdfrwt>
<totfact> 0.65528690E+04</totfact>
</mgrwt>
</event>
<event>
 7    0  0.4775379E-002  0.4544515E+03  0.7546771E-02  0.1026403E+00
         21   -1    0    0  502  501  0.00000000000E+00  0.00000000000E+00  0.54259807417E+02  0.54259807417E+02  0.00000000000E+00 0.  1.
         21   -1    0    0  501  502 -0.00000000000E+00 -0.00000000000E+00 -0.95156162199E+03  0.95156162199E+03  0.00000000000E+00 0.  1.
      99926    2    1    2    0    0  0.00000000000E+00  0.00000000000E+00 -0.89730181457E+03  0.10058214294E+04  0.45445153913E+03 0.  0.
      99925    2    3    3    0    0  0.54720259684E+02 -0.21010695694E+02 -0.35213172632E+03  0.44342149219E+03  0.26304013173E+03 0.  0.
         25    1    4    4    0    0  0.21241127027E+02  0.22200844719E+02 -0.13226854316E+03  0.18462540072E+03  0.12509000000E+03 0.  0.
         25    1    4    4    0    0  0.33479132656E+02 -0.43211540412E+02 -0.21986318316E+03  0.25879609147E+03  0.12509000000E+03 0.  0.
         25    1    3    3    0    0 -0.54720259684E+02  0.21010695694E+02 -0.54517008825E+03  0.56239993721E+03  0.12509000000E+03 0.  0.
<mgrwt>
<rscale>  2 0.45445154E+03</rscale>
<asrwt>0</asrwt>
<pdfrwt beam="1">  1       21 0.79793845E-02 0.45445154E+03</pdfrwt>
<pdfrwt beam="2">  1       21 0.13993551E+00 0.45445154E+03</pdfrwt>
<totfact> 0.39108363E+04</totfact>
</mgrwt>
</event>
<event>
 7    0  0.4775379E-002  0.4550255E+03  0.7546771E-02  0.1026234E+00
         21   -1    0    0  502  501  0.00000000000E+00  0.00000000000E+00  0.27916059998E+03  0.27916059998E+03  0.00000000000E+00 0. -1.
         21   -1    0    0  501  502 -0.00000000000E+00 -0.00000000000E+00 -0.18542036624E+03  0.18542036624E+03  0.00000000000E+00 0. -1.
      99926    2    1    2    0    0 -0.17763568394E-14  0.00000000000E+00  0.93740233746E+02  0.46458096622E+03  0.45502554077E+03 0.  0.
      99925    2    3    3    0    0 -0.85561012533E+01 -0.95332598228E+02  0.12073146980E+03  0.30477625391E+03  0.26296571258E+03 0.  0.
         25    1    4    4    0    0  0.15061121728E+01 -0.22693555232E+02  0.21185022002E+02  0.12889367355E+03  0.12509000000E+03 0.  0.
         25    1    4    4    0    0 -0.10062213426E+02 -0.72639042996E+02  0.99546447794E+02  0.17588258036E+03  0.12509000000E+03 0.  0.
         25    1    3    3    0    0  0.85561012533E+01  0.95332598228E+02 -0.26991236050E+02  0.15980471231E+03  0.12509000000E+03 0.  0.
<mgrwt>
<rscale>  2 0.45502554E+03</rscale>
<asrwt>0</asrwt>
<pdfrwt beam="1">  1       21 0.41053029E-01 0.45502554E+03</pdfrwt>
<pdfrwt beam="2">  1       21 0.27267701E-01 0.45502554E+03</pdfrwt>
<totfact> 0.67827623E+04</totfact>
</mgrwt>
</event>
<event>
 7    0  0.4775379E-002  0.4563414E+03  0.7546771E-02  0.1025848E+00
         21   -1    0    0  502  501  0.00000000000E+00  0.00000000000E+00  0.75679056148E+03  0.75679056148E+03  0.00000000000E+00 0. -1.
         21   -1    0    0  501  502 -0.00000000000E+00 -0.00000000000E+00 -0.68792954106E+02  0.68792954106E+02  0.00000000000E+00 0. -1.
      99926    2    1    2    0    0  0.00000000000E+00  0.00000000000E+00  0.68799760738E+03  0.82558351559E+03  0.45634135628E+03 0.  0.
      99925    2    3    3    0    0 -0.61100130066E+02 -0.87827569655E+02  0.50556754508E+03  0.57986997584E+03  0.26306603422E+03 0.  0.
         25    1    3    3    0    0  0.61100130066E+02  0.87827569655E+02  0.18243006230E+03  0.24571353975E+03  0.12509000000E+03 0.  0.
         25    1    4    4    0    0 -0.59697669366E+01 -0.20965439639E+02  0.17764603639E+03  0.21835936005E+03  0.12509000000E+03 0.  0.
         25    1    4    4    0    0 -0.55130363129E+02 -0.66862130016E+02  0.32792150868E+03  0.36151061578E+03  0.12509000000E+03 0.  0.
<mgrwt>
<rscale>  2 0.45634136E+03</rscale>
<asrwt>0</asrwt>
<pdfrwt beam="1">  1       21 0.11129272E+00 0.45634136E+03</pdfrwt>
<pdfrwt beam="2">  1       21 0.10116611E-01 0.45634136E+03</pdfrwt>
<totfact> 0.46065394E+04</totfact>
</mgrwt>
</event>
<event>
 7    0  0.4775379E-002  0.4535636E+03  0.7546771E-02  0.1026665E+00
         21   -1    0    0  502  501  0.00000000000E+00  0.00000000000E+00  0.33773481159E+03  0.33773481159E+03  0.00000000000E+00 0. -1.
         21   -1    0    0  501  502 -0.00000000000E+00 -0.00000000000E+00 -0.15227919838E+03  0.15227919838E+03  0.00000000000E+00 0. -1.
      99926    2    1    2    0    0 -0.35527136788E-14  0.14210854715E-13  0.18545561321E+03  0.49001400997E+03  0.45356360690E+03 0.  0.
      99925    2    3    3    0    0 -0.29218694079E+02  0.67313152618E+02  0.20797947125E+03  0.34325016947E+03  0.26302172112E+03 0.  0.
         25    1    4    4    0    0  0.13093647847E+02  0.54544162469E+02  0.13227833687E+03  0.19050347970E+03  0.12509000000E+03 0.  0.
         25    1    3    3    0    0  0.29218694079E+02 -0.67313152618E+02 -0.22523858041E+02  0.14676384051E+03  0.12509000000E+03 0.  0.
         25    1    4    4    0    0 -0.42312341926E+02  0.12768990149E+02  0.75701134382E+02  0.15274668977E+03  0.12509000000E+03 0.  0.
<mgrwt>
<rscale>  2 0.45356361E+03</rscale>
<asrwt>0</asrwt>
<pdfrwt beam="1">  1       21 0.49666884E-01 0.45356361E+03</pdfrwt>
<pdfrwt beam="2">  1       21 0.22394000E-01 0.45356361E+03</pdfrwt>
<totfact> 0.66735812E+04</totfact>
</mgrwt>
</event>
<event>
 7    0  0.4775379E-002  0.4591278E+03  0.7546771E-02  0.1025034E+00
         21   -1    0    0  502  501  0.00000000000E+00  0.00000000000E+00  0.13803674245E+03  0.13803674245E+03  0.00000000000E+00 0.  1.
         21   -1    0    0  501  502 -0.00000000000E+00 -0.00000000000E+00 -0.38177936122E+03  0.38177936122E+03  0.00000000000E+00 0.  1.
      99926    2    1    2    0    0  0.00000000000E+00 -0.14210854715E-13 -0.24374261877E+03  0.51981610368E+03  0.45912777899E+03 0.  0.
      99925    2    3    3    0    0  0.34921778652E+02  0.11109957602E+03 -0.17007715278E+03  0.33370657841E+03  0.26243322228E+03 0.  0.
         25    1    4    4    0    0  0.19535443399E+02  0.94444489260E+02 -0.74400652260E+02  0.17459770977E+03  0.12509000000E+03 0.  0.
         25    1    4    4    0    0  0.15386335253E+02  0.16655086763E+02 -0.95676500523E+02  0.15910886864E+03  0.12509000000E+03 0.  0.
         25    1    3    3    0    0 -0.34921778652E+02 -0.11109957602E+03 -0.73665465985E+02  0.18610952527E+03  0.12509000000E+03 0.  0.
<mgrwt>
<rscale>  2 0.45912778E+03</rscale>
<asrwt>0</asrwt>
<pdfrwt beam="1">  1       21 0.20299521E-01 0.45912778E+03</pdfrwt>
<pdfrwt beam="2">  1       21 0.56144024E-01 0.45912778E+03</pdfrwt>
<totfact> 0.61849175E+04</totfact>
</mgrwt>
</event>
<event>
 7    0  0.4775379E-002  0.4510868E+03  0.7546771E-02  0.1027398E+00
         21   -1    0    0  502  501  0.00000000000E+00  0.00000000000E+00  0.52763940274E+02  0.52763940274E+02  0.00000000000E+00 0.  1.
         21   -1    0    0  501  502 -0.00000000000E+00 -0.00000000000E+00 -0.96410213510E+03  0.96410213510E+03  0.00000000000E+00 0.  1.
      99926    2    1    2    0    0  0.00000000000E+00 -0.35527136788E-14 -0.91133819483E+03  0.10168660754E+04  0.45108680972E+03 0.  0.
      99925    2    3    3    0    0 -0.10428129721E+03  0.31823619171E+02 -0.55311281063E+03  0.62207465492E+03  0.26297483401E+03 0.  0.
         25    1    4    4    0    0 -0.66721811093E+02 -0.15607993546E+02 -0.23432314231E+03  0.27431779501E+03  0.12509000000E+03 0.  0.
         25    1    4    4    0    0 -0.37559486121E+02  0.47431612717E+02 -0.31878966833E+03  0.34775685991E+03  0.12509000000E+03 0.  0.
         25    1    3    3    0    0  0.10428129721E+03 -0.31823619171E+02 -0.35822538419E+03  0.39479142046E+03  0.12509000000E+03 0.  0.
<mgrwt>
<rscale>  2 0.45108681E+03</rscale>
<asrwt>0</asrwt>
<pdfrwt beam="1">  1       21 0.77594028E-02 0.45108681E+03</pdfrwt>
<pdfrwt beam="2">  1       21 0.14177973E+00 0.45108681E+03</pdfrwt>
<totfact> 0.39716825E+04</totfact>
</mgrwt>
</event>
<event>
 7    0  0.4775379E-002  0.4355316E+03  0.7546771E-02  0.1032127E+00
         21   -1    0    0  502  501  0.00000000000E+00  0.00000000000E+00  0.41121923313E+02  0.41121923313E+02  0.00000000000E+00 0.  1.
         21   -1    0    0  501  502 -0.00000000000E+00 -0.00000000000E+00 -0.11532036052E+04  0.11532036052E+04  0.00000000000E+00 0.  1.
      99926    2    1    2    0    0  0.71054273576E-14  0.00000000000E+00 -0.11120816819E+04  0.11943255285E+04  0.43553163016E+03 0.  0.
      99925    2    3    3    0    0  0.18588467605E+02  0.87556149741E+02 -0.63639574035E+03  0.69438929902E+03  0.26299306031E+03 0.  0.
         25    1    4    4    0    0  0.34609216291E+02  0.77793185122E+02 -0.34729486733E+03  0.37882820708E+03  0.12509000000E+03 0.  0.
         25    1    4    4    0    0 -0.16020748686E+02  0.97629646189E+01 -0.28910087302E+03  0.31556109194E+03  0.12509000000E+03 0.  0.
         25    1    3    3    0    0 -0.18588467605E+02 -0.87556149741E+02 -0.47568594157E+03  0.49993622953E+03  0.12509000000E+03 0.  0.
<mgrwt>
<rscale>  2 0.43553163E+03</rscale>
<asrwt>0</asrwt>
<pdfrwt beam="1">  1       21 0.60473420E-02 0.43553163E+03</pdfrwt>
<pdfrwt beam="2">  1       21 0.16958876E+00 0.43553163E+03</pdfrwt>
<totfact> 0.37743456E+04</totfact>
</mgrwt>
</event>
<event>
 7    0  0.4775379E-002  0.4549989E+03  0.7546771E-02  0.1026242E+00
         21   -1    0    0  502  501  0.00000000000E+00  0.00000000000E+00  0.19859810296E+03  0.19859810296E+03  0.00000000000E+00 0. -1.
         21   -1    0    0  501  502 -0.00000000000E+00 -0.00000000000E+00 -0.26060666660E+03  0.26060666660E+03  0.00000000000E+00 0. -1.
      99926    2    1    2    0    0 -0.88817841970E-15  0.14210854715E-13 -0.62008563637E+02  0.45920476956E+03  0.45499885541E+03 0.  0.
      99925    2    3    3    0    0 -0.40504749473E+01 -0.11209376311E+03 -0.54449319405E+02  0.29102014378E+03  0.26295736846E+03 0.  0.
         25    1    3    3    0    0  0.40504749473E+01  0.11209376311E+03 -0.75592442314E+01  0.16818462578E+03  0.12509000000E+03 0.  0.
         25    1    4    4    0    0  0.97093081274E+01 -0.31626069688E+02  0.68213421488E+01  0.12957051268E+03  0.12509000000E+03 0.  0.
         25    1    4    4    0    0 -0.13759783075E+02 -0.80467693420E+02 -0.61270661554E+02  0.16144963110E+03  0.12509000000E+03 0.  0.
<mgrwt>
<rscale>  2 0.45499886E+03</rscale>
<asrwt>0</asrwt>
<pdfrwt beam="1">  1       21 0.29205604E-01 0.45499886E+03</pdfrwt>
<pdfrwt beam="2">  1       21 0.38324510E-01 0.45499886E+03</pdfrwt>
<totfact> 0.68239186E+04</totfact>
</mgrwt>
</event>
<event>
 7    0  0.4775379E-002  0.4495321E+03  0.7546771E-02  0.1027862E+00
         21   -1    0    0  502  501  0.00000000000E+00  0.00000000000E+00  0.74266829898E+03  0.74266829898E+03  0.00000000000E+00 0.  1.
         21   -1    0    0  501  502 -0.00000000000E+00 -0.00000000000E+00 -0.68024681645E+02  0.68024681645E+02  0.00000000000E+00 0.  1.
      99926    2    1    2    0    0  0.14210854715E-13 -0.71054273576E-14  0.67464361733E+03  0.81069298062E+03  0.44953208831E+03 0.  0.
      99925    2    3    3    0    0 -0.79249396267E+02  0.40336683750E+02  0.31616739942E+03  0.42074398168E+03  0.26297558594E+03 0.  0.
         25    1    4    4    0    0 -0.13271155262E+02 -0.14146459534E+01  0.10897892834E+03  0.16643929737E+03  0.12509000000E+03 0.  0.
         25    1    4    4    0    0 -0.65978241005E+02  0.41751329703E+02  0.20718847107E+03  0.25430468431E+03  0.12509000000E+03 0.  0.
         25    1    3    3    0    0  0.79249396267E+02 -0.40336683750E+02  0.35847621792E+03  0.38994899894E+03  0.12509000000E+03 0.  0.
<mgrwt>
<rscale>  2 0.44953209E+03</rscale>
<asrwt>0</asrwt>
<pdfrwt beam="1">  1       21 0.10921592E+00 0.44953209E+03</pdfrwt>
<pdfrwt beam="2">  1       21 0.10003630E-01 0.44953209E+03</pdfrwt>
<totfact> 0.49334989E+04</totfact>
</mgrwt>
</event>
<event>
 7    0  0.4775379E-002  0.4567182E+03  0.7546771E-02  0.1025737E+00
         21   -1    0    0  502  501  0.00000000000E+00  0.00000000000E+00  0.10865789156E+04  0.10865789156E+04  0.00000000000E+00 0. -1.
         21   -1    0    0  501  502 -0.00000000000E+00 -0.00000000000E+00 -0.47992722370E+02  0.47992722370E+02  0.00000000000E+00 0. -1.
      99926    2    1    2    0    0  0.00000000000E+00  0.00000000000E+00  0.10385861932E+04  0.11345716380E+04  0.45671820734E+03 0.  0.
      99925    2    3    3    0    0  0.85102598756E+02  0.76823942391E+02  0.62422420360E+03  0.68681306799E+03  0.26251088275E+03 0.  0.
         25    1    3    3    0    0 -0.85102598756E+02 -0.76823942391E+02  0.41436198963E+03  0.44775856998E+03  0.12509000000E+03 0.  0.
         25    1    4    4    0    0  0.31382110073E+02 -0.20689000155E+01  0.27106383671E+03  0.30018698981E+03  0.12509000000E+03 0.  0.
         25    1    4    4    0    0  0.53720488683E+02  0.78892842406E+02  0.35316036689E+03  0.38662607818E+03  0.12509000000E+03 0.  0.
<mgrwt>
<rscale>  2 0.45671821E+03</rscale>
<asrwt>0</asrwt>
<pdfrwt beam="1">  1       21 0.15979100E+00 0.45671821E+03</pdfrwt>
<pdfrwt beam="2">  1       21 0.70577539E-02 0.45671821E+03</pdfrwt>
<totfact> 0.33846100E+04</totfact>
</mgrwt>
</event>
<event>
 7    0  0.4775379E-002  0.4556043E+03  0.7546771E-02  0.1026064E+00
         21   -1    0    0  502  501  0.00000000000E+00  0.00000000000E+00  0.27883782066E+02  0.27883782066E+02  0.00000000000E+00 0. -1.
         21   -1    0    0  501  502 -0.00000000000E+00 -0.00000000000E+00 -0.18610755287E+04  0.18610755287E+04  0.00000000000E+00 0. -1.
      99926    2    1    2    0    0 -0.35527136788E-14  0.00000000000E+00 -0.18331917467E+04  0.18889593108E+04  0.45560432154E+03 0.  0.
      99925    2    3    3    0    0 -0.26243647118E+02 -0.52206579303E+02 -0.74825211996E+03  0.79527025186E+03  0.26298152509E+03 0.  0.
         25    1    4    4    0    0 -0.10108918189E+02  0.15126307742E+02 -0.34697370439E+03  0.36928208060E+03  0.12509000000E+03 0.  0.
         25    1    3    3    0    0  0.26243647118E+02  0.52206579303E+02 -0.10849396267E+04  0.10936890589E+04  0.12509000000E+03 0.  0.
         25    1    4    4    0    0 -0.16134728929E+02 -0.67332887045E+02 -0.40127841557E+03  0.42598817126E+03  0.12509000000E+03 0.  0.
<mgrwt>
<rscale>  2 0.45560432E+03</rscale>
<asrwt>0</asrwt>
<pdfrwt beam="1">  1       21 0.41005581E-02 0.45560432E+03</pdfrwt>
<pdfrwt beam="2">  1       21 0.27368745E+00 0.45560432E+03</pdfrwt>
<totfact> 0.15535612E+04</totfact>
</mgrwt>
</event>
<event>
 7    0  0.4775379E-002  0.4545429E+03  0.7546771E-02  0.1026376E+00
         21   -1    0    0  502  501  0.00000000000E+00  0.00000000000E+00  0.74185461409E+03  0.74185461409E+03  0.00000000000E+00 0.  1.
         21   -1    0    0  501  502 -0.00000000000E+00 -0.00000000000E+00 -0.69625920307E+02  0.69625920307E+02  0.00000000000E+00 0.  1.
      99926    2    1    2    0    0  0.00000000000E+00  0.14210854715E-13  0.67222869378E+03  0.81148053439E+03  0.45454289232E+03 0.  0.
      99925    2    3    3    0    0  0.69244707579E+02 -0.84109376799E+02  0.47549475869E+03  0.55414618747E+03  0.26289449357E+03 0.  0.
         25    1    4    4    0    0  0.46730965541E+02 -0.10044224962E+02  0.18323145219E+03  0.22694920746E+03  0.12509000000E+03 0.  0.
         25    1    4    4    0    0  0.22513742038E+02 -0.74065151837E+02  0.29226330651E+03  0.32719698001E+03  0.12509000000E+03 0.  0.
         25    1    3    3    0    0 -0.69244707579E+02  0.84109376799E+02  0.19673393508E+03  0.25733434692E+03  0.12509000000E+03 0.  0.
<mgrwt>
<rscale>  2 0.45454289E+03</rscale>
<asrwt>0</asrwt>
<pdfrwt beam="1">  1       21 0.10909626E+00 0.45454289E+03</pdfrwt>
<pdfrwt beam="2">  1       21 0.10239106E-01 0.45454289E+03</pdfrwt>
<totfact> 0.47384258E+04</totfact>
</mgrwt>
</event>
<event>
 7    0  0.4775379E-002  0.4532648E+03  0.7546771E-02  0.1026753E+00
         21   -1    0    0  502  501  0.00000000000E+00  0.00000000000E+00  0.48787151451E+02  0.48787151451E+02  0.00000000000E+00 0. -1.
         21   -1    0    0  501  502 -0.00000000000E+00 -0.00000000000E+00 -0.10527821664E+04  0.10527821664E+04  0.00000000000E+00 0. -1.
      99926    2    1    2    0    0  0.00000000000E+00  0.22204460493E-15 -0.10039950149E+04  0.11015693178E+04  0.45326479235E+03 0.  0.
      99925    2    3    3    0    0 -0.85449245706E+02  0.15571756750E+01 -0.80669211906E+03  0.85281253057E+03  0.26312171890E+03 0.  0.
         25    1    4    4    0    0 -0.85185370202E+02 -0.46068673548E+01 -0.44208354321E+03  0.46729341725E+03  0.12509000000E+03 0.  0.
         25    1    3    3    0    0  0.85449245706E+02 -0.15571756750E+01 -0.19730289585E+03  0.24875678724E+03  0.12509000000E+03 0.  0.
         25    1    4    4    0    0 -0.26387550428E+00  0.61640430298E+01 -0.36460857585E+03  0.38551911332E+03  0.12509000000E+03 0.  0.
<mgrwt>
<rscale>  2 0.45326479E+03</rscale>
<asrwt>0</asrwt>
<pdfrwt beam="1">  1       21 0.71745819E-02 0.45326479E+03</pdfrwt>
<pdfrwt beam="2">  1       21 0.15482089E+00 0.45326479E+03</pdfrwt>
<totfact> 0.35923656E+04</totfact>
</mgrwt>
</event>
<event>
 7    0  0.4775379E-002  0.4562872E+03  0.7546771E-02  0.1025864E+00
         21   -1    0    0  502  501  0.00000000000E+00  0.00000000000E+00  0.16237176184E+04  0.16237176184E+04  0.00000000000E+00 0.  1.
         21   -1    0    0  501  502 -0.00000000000E+00 -0.00000000000E+00 -0.32055763550E+02  0.32055763550E+02  0.00000000000E+00 0.  1.
      99926    2    1    2    0    0  0.00000000000E+00  0.00000000000E+00  0.15916618548E+04  0.16557733819E+04  0.45628722553E+03 0.  0.
      99925    2    3    3    0    0 -0.51852979132E+02 -0.55894726820E+02  0.68966361349E+03  0.74195650344E+03  0.26277481100E+03 0.  0.
         25    1    3    3    0    0  0.51852979132E+02  0.55894726820E+02  0.90199824131E+03  0.91381687846E+03  0.12509000000E+03 0.  0.
         25    1    4    4    0    0 -0.14204279621E+01 -0.33338098709E+02  0.42157120877E+03  0.44100253809E+03  0.12509000000E+03 0.  0.
         25    1    4    4    0    0 -0.50432551170E+02 -0.22556628111E+02  0.26809240472E+03  0.30095396535E+03  0.12509000000E+03 0.  0.
<mgrwt>
<rscale>  2 0.45628723E+03</rscale>
<asrwt>0</asrwt>
<pdfrwt beam="1">  1       21 0.23878195E+00 0.45628723E+03</pdfrwt>
<pdfrwt beam="2">  1       21 0.47140840E-02 0.45628723E+03</pdfrwt>
<totfact> 0.19997683E+04</totfact>
</mgrwt>
</event>
<event>
 7    0  0.4775379E-002  0.4077580E+03  0.7546771E-02  0.1041126E+00
         21   -1    0    0  502  501  0.00000000000E+00  0.00000000000E+00  0.57755162640E+02  0.57755162640E+02  0.00000000000E+00 0.  1.
         21   -1    0    0  501  502 -0.00000000000E+00 -0.00000000000E+00 -0.71970455907E+03  0.71970455907E+03  0.00000000000E+00 0.  1.
      99926    2    1    2    0    0  0.00000000000E+00  0.00000000000E+00 -0.66194939643E+03  0.77745972171E+03  0.40775803542E+03 0.  0.
      99925    2    3    3    0    0 -0.15713825311E+02  0.13921987045E+02 -0.54279696337E+03  0.60343226286E+03  0.26279498927E+03 0.  0.
         25    1    4    4    0    0 -0.71121579029E+01 -0.44654176544E+01 -0.35833193675E+03  0.37963114696E+03  0.12509000000E+03 0.  0.
         25    1    4    4    0    0 -0.86016674078E+01  0.18387404699E+02 -0.18446502662E+03  0.22380111591E+03  0.12509000000E+03 0.  0.
         25    1    3    3    0    0  0.15713825311E+02 -0.13921987045E+02 -0.11915243306E+03  0.17402745885E+03  0.12509000000E+03 0.  0.
<mgrwt>
<rscale>  2 0.40775804E+03</rscale>
<asrwt>0</asrwt>
<pdfrwt beam="1">  1       21 0.84934067E-02 0.40775804E+03</pdfrwt>
<pdfrwt beam="2">  1       21 0.10583890E+00 0.40775804E+03</pdfrwt>
<totfact> 0.72127922E+04</totfact>
</mgrwt>
</event>
<event>
 7    0  0.4775379E-002  0.4537475E+03  0.7546771E-02  0.1026610E+00
         21   -1    0    0  502  501  0.00000000000E+00  0.00000000000E+00  0.22238807292E+03  0.22238807292E+03  0.00000000000E+00 0. -1.
         21   -1    0    0  501  502 -0.00000000000E+00 -0.00000000000E+00 -0.23144992355E+03  0.23144992355E+03  0.00000000000E+00 0. -1.
      99926    2    1    2    0    0  0.00000000000E+00  0.00000000000E+00 -0.90618506282E+01  0.45383799646E+03  0.45374751779E+03 0.  0.
      99925    2    3    3    0    0  0.79687695608E+02 -0.77269472827E+02  0.93514250512E+01  0.28559038999E+03  0.26297095171E+03 0.  0.
         25    1    3    3    0    0 -0.79687695608E+02  0.77269472827E+02 -0.18413275679E+02  0.16824760647E+03  0.12509000000E+03 0.  0.
         25    1    4    4    0    0 -0.17946273983E+01 -0.39431473897E+02 -0.17582661907E+01  0.13118178769E+03  0.12509000000E+03 0.  0.
         25    1    4    4    0    0  0.81482323006E+02 -0.37837998930E+02  0.11109691242E+02  0.15440860230E+03  0.12509000000E+03 0.  0.
<mgrwt>
<rscale>  2 0.45374752E+03</rscale>
<asrwt>0</asrwt>
<pdfrwt beam="1">  1       21 0.32704128E-01 0.45374752E+03</pdfrwt>
<pdfrwt beam="2">  1       21 0.34036754E-01 0.45374752E+03</pdfrwt>
<totfact> 0.69321181E+04</totfact>
</mgrwt>
</event>
<event>
 7    0  0.4775379E-002  0.4265044E+03  0.7546771E-02  0.1034970E+00
         21   -1    0    0  502  501  0.00000000000E+00  0.00000000000E+00  0.23171764458E+03  0.23171764458E+03  0.00000000000E+00 0.  1.
         21   -1    0    0  501  502 -0.00000000000E+00 -0.00000000000E+00 -0.19625828575E+03  0.19625828575E+03  0.00000000000E+00 0.  1.
      99926    2    1    2    0    0 -0.71054273576E-14  0.71054273576E-14  0.35459358827E+02  0.42797593032E+03  0.42650443234E+03 0.  0.
      99925    2    3    3    0    0 -0.55421062608E+02 -0.57382068315E+02 -0.23434926515E+01  0.27487217588E+03  0.26303046434E+03 0.  0.
         25    1    4    4    0    0 -0.65419549124E+01  0.79511233138E+01 -0.12400615745E+01  0.12551917538E+03  0.12509000000E+03 0.  0.
         25    1    3    3    0    0  0.55421062608E+02  0.57382068315E+02  0.37802851478E+02  0.15310375444E+03  0.12509000000E+03 0.  0.
         25    1    4    4    0    0 -0.48879107696E+02 -0.65333191629E+02 -0.11034310770E+01  0.14935300050E+03  0.12509000000E+03 0.  0.
<mgrwt>
<rscale>  2 0.42650443E+03</rscale>
<asrwt>0</asrwt>
<pdfrwt beam="1">  1       21 0.34076124E-01 0.42650443E+03</pdfrwt>
<pdfrwt beam="2">  1       21 0.28861513E-01 0.42650443E+03</pdfrwt>
<totfact> 0.89190311E+04</totfact>
</mgrwt>
</event>
<event>
 7    0  0.4775379E-002  0.4450081E+03  0.7546771E-02  0.1029221E+00
         21   -1    0    0  502  501  0.00000000000E+00  0.00000000000E+00  0.13413489722E+04  0.13413489722E+04  0.00000000000E+00 0.  1.
         21   -1    0    0  501  502 -0.00000000000E+00 -0.00000000000E+00 -0.36909150218E+02  0.36909150218E+02  0.00000000000E+00 0.  1.
      99926    2    1    2    0    0  0.00000000000E+00  0.00000000000E+00  0.13044398220E+04  0.13782581224E+04  0.44500809300E+03 0.  0.
      99925    2    3    3    0    0  0.38125030399E+02  0.82435248074E+02  0.67515840322E+03  0.73026761309E+03  0.26306430627E+03 0.  0.
         25    1    4    4    0    0 -0.20722146859E+02  0.43976266467E+02  0.30225643116E+03  0.33071101835E+03  0.12509000000E+03 0.  0.
         25    1    4    4    0    0  0.58847177258E+02  0.38458981608E+02  0.37290197206E+03  0.39955659474E+03  0.12509000000E+03 0.  0.
         25    1    3    3    0    0 -0.38125030399E+02 -0.82435248074E+02  0.62928141874E+03  0.64799050930E+03  0.12509000000E+03 0.  0.
<mgrwt>
<rscale>  2 0.44500809E+03</rscale>
<asrwt>0</asrwt>
<pdfrwt beam="1">  1       21 0.19725717E+00 0.44500809E+03</pdfrwt>
<pdfrwt beam="2">  1       21 0.54278171E-02 0.44500809E+03</pdfrwt>
<totfact> 0.29113305E+04</totfact>
</mgrwt>
</event>
<event>
 7    0  0.4775379E-002  0.4573188E+03  0.7546771E-02  0.1025562E+00
         21   -1    0    0  502  501  0.00000000000E+00  0.00000000000E+00  0.51792215240E+03  0.51792215240E+03  0.00000000000E+00 0. -1.
         21   -1    0    0  501  502 -0.00000000000E+00 -0.00000000000E+00 -0.10095168485E+03  0.10095168485E+03  0.00000000000E+00 0. -1.
      99926    2    1    2    0    0  0.00000000000E+00  0.00000000000E+00  0.41697046755E+03  0.61887383725E+03  0.45731876807E+03 0.  0.
      99925    2    3    3    0    0 -0.87179277810E+02  0.46151630824E+02  0.18116361787E+03  0.33429945688E+03  0.26306970735E+03 0.  0.
         25    1    4    4    0    0 -0.64257308993E+02 -0.57108583819E+01  0.11549267399E+03  0.18206504746E+03  0.12509000000E+03 0.  0.
         25    1    3    3    0    0  0.87179277810E+02 -0.46151630824E+02  0.23580684968E+03  0.28457438037E+03  0.12509000000E+03 0.  0.
         25    1    4    4    0    0 -0.22921968818E+02  0.51862489206E+02  0.65670943882E+02  0.15223440942E+03  0.12509000000E+03 0.  0.
<mgrwt>
<rscale>  2 0.45731877E+03</rscale>
<asrwt>0</asrwt>
<pdfrwt beam="1">  1       21 0.76165021E-01 0.45731877E+03</pdfrwt>
<pdfrwt beam="2">  1       21 0.14845836E-01 0.45731877E+03</pdfrwt>
<totfact> 0.56489800E+04</totfact>
</mgrwt>
</event>
<event>
 7    0  0.4775379E-002  0.4559867E+03  0.7546771E-02  0.1025952E+00
         21   -1    0    0  502  501  0.00000000000E+00  0.00000000000E+00  0.35876912719E+03  0.35876912719E+03  0.00000000000E+00 0. -1.
         21   -1    0    0  501  502 -0.00000000000E+00 -0.00000000000E+00 -0.14488695364E+03  0.14488695364E+03  0.00000000000E+00 0. -1.
      99926    2    1    2    0    0  0.14210854715E-13 -0.35527136788E-14  0.21388217355E+03  0.50365608084E+03  0.45598669235E+03 0.  0.
      99925    2    3    3    0    0 -0.10319645097E+03  0.24809069263E+02  0.88223764039E+02  0.29701014840E+03  0.26299543399E+03 0.  0.
         25    1    4    4    0    0 -0.80077893283E+02 -0.15405584619E+02  0.58171676387E+02  0.16025371466E+03  0.12509000000E+03 0.  0.
         25    1    3    3    0    0  0.10319645097E+03 -0.24809069263E+02  0.12565840951E+03  0.20664593243E+03  0.12509000000E+03 0.  0.
         25    1    4    4    0    0 -0.23118557687E+02  0.40214653882E+02  0.30052087652E+02  0.13675643374E+03  0.12509000000E+03 0.  0.
<mgrwt>
<rscale>  2 0.45598669E+03</rscale>
<asrwt>0</asrwt>
<pdfrwt beam="1">  1       21 0.52760166E-01 0.45598669E+03</pdfrwt>
<pdfrwt beam="2">  1       21 0.21306905E-01 0.45598669E+03</pdfrwt>
<totfact> 0.64507861E+04</totfact>
</mgrwt>
</event>
<event>
 7    0  0.4775379E-002  0.4555354E+03  0.7546771E-02  0.1026084E+00
         21   -1    0    0  502  501  0.00000000000E+00  0.00000000000E+00  0.40697116934E+03  0.40697116934E+03  0.00000000000E+00 0. -1.
         21   -1    0    0  501  502 -0.00000000000E+00 -0.00000000000E+00 -0.12747369434E+03  0.12747369434E+03  0.00000000000E+00 0. -1.
      99926    2    1    2    0    0  0.00000000000E+00 -0.14210854715E-13  0.27949747500E+03  0.53444486367E+03  0.45553537050E+03 0.  0.
      99925    2    3    3    0    0 -0.17927142534E+02 -0.11178254019E+03  0.16387701000E+03  0.32991535784E+03  0.26300522846E+03 0.  0.
         25    1    3    3    0    0  0.17927142534E+02  0.11178254019E+03  0.11562046500E+03  0.20452950584E+03  0.12509000000E+03 0.  0.
         25    1    4    4    0    0 -0.44943456457E+02 -0.45603363143E+02  0.62778980111E+02  0.15391000439E+03  0.12509000000E+03 0.  0.
         25    1    4    4    0    0  0.27016313924E+02 -0.66179177049E+02  0.10109802989E+03  0.17600535344E+03  0.12509000000E+03 0.  0.
<mgrwt>
<rscale>  2 0.45553537E+03</rscale>
<asrwt>0</asrwt>
<pdfrwt beam="1">  1       21 0.59848701E-01 0.45553537E+03</pdfrwt>
<pdfrwt beam="2">  1       21 0.18746132E-01 0.45553537E+03</pdfrwt>
<totfact> 0.62640356E+04</totfact>
</mgrwt>
</event>
<event>
 7    0  0.4775379E-002  0.4620390E+03  0.7546771E-02  0.1024192E+00
         21   -1    0    0  502  501  0.00000000000E+00  0.00000000000E+00  0.42673614159E+02  0.42673614159E+02  0.00000000000E+00 0. -1.
         21   -1    0    0  501  502 -0.00000000000E+00 -0.00000000000E+00 -0.12506557981E+04  0.12506557981E+04  0.00000000000E+00 0. -1.
      99926    2    1    2    0    0  0.00000000000E+00  0.00000000000E+00 -0.12079821840E+04  0.12933294123E+04  0.46203897228E+03 0.  0.
      99925    2    3    3    0    0 -0.64139581630E+02 -0.99799660479E+02 -0.71180354244E+03  0.76805366511E+03  0.26299865265E+03 0.  0.
         25    1    4    4    0    0 -0.69789348456E+02 -0.63137891728E+02 -0.34888641368E+03  0.38239532461E+03  0.12509000000E+03 0.  0.
         25    1    3    3    0    0  0.64139581630E+02  0.99799660479E+02 -0.49617864155E+03  0.52527574720E+03  0.12509000000E+03 0.  0.
         25    1    4    4    0    0  0.56497668257E+01 -0.36661768752E+02 -0.36291712876E+03  0.38565834050E+03  0.12509000000E+03 0.  0.
<mgrwt>
<rscale>  2 0.46203897E+03</rscale>
<asrwt>0</asrwt>
<pdfrwt beam="1">  1       21 0.62755313E-02 0.46203897E+03</pdfrwt>
<pdfrwt beam="2">  1       21 0.18391998E+00 0.46203897E+03</pdfrwt>
<totfact> 0.27757456E+04</totfact>
</mgrwt>
</event>
<event>
 7    0  0.4775379E-002  0.4468879E+03  0.7546771E-02  0.1028654E+00
         21   -1    0    0  502  501  0.00000000000E+00  0.00000000000E+00  0.12425569971E+04  0.12425569971E+04  0.00000000000E+00 0. -1.
         21   -1    0    0  501  502 -0.00000000000E+00 -0.00000000000E+00 -0.40181014505E+02  0.40181014505E+02  0.00000000000E+00 0. -1.
      99926    2    1    2    0    0  0.00000000000E+00  0.00000000000E+00  0.12023759825E+04  0.12827380116E+04  0.44688790864E+03 0.  0.
      99925    2    3    3    0    0 -0.32173784712E+02  0.90120132392E+02  0.88963705370E+03  0.93258099477E+03  0.26286200528E+03 0.  0.
         25    1    3    3    0    0  0.32173784712E+02 -0.90120132392E+02  0.31273892885E+03  0.35015701679E+03  0.12509000000E+03 0.  0.
         25    1    4    4    0    0 -0.54345135394E+01  0.98778613507E+01  0.47425388423E+03  0.49060305837E+03  0.12509000000E+03 0.  0.
         25    1    4    4    0    0 -0.26739271172E+02  0.80242271041E+02  0.41538316947E+03  0.44197793640E+03  0.12509000000E+03 0.  0.
<mgrwt>
<rscale>  2 0.44688791E+03</rscale>
<asrwt>0</asrwt>
<pdfrwt beam="1">  1       21 0.18272895E+00 0.44688791E+03</pdfrwt>
<pdfrwt beam="2">  1       21 0.59089735E-02 0.44688791E+03</pdfrwt>
<totfact> 0.31565438E+04</totfact>
</mgrwt>
</event>
<event>
 7    0  0.4775379E-002  0.4528774E+03  0.7546771E-02  0.1026867E+00
         21   -1    0    0  502  501  0.00000000000E+00  0.00000000000E+00  0.19577267288E+03  0.19577267288E+03  0.00000000000E+00 0.  1.
         21   -1    0    0  501  502 -0.00000000000E+00 -0.00000000000E+00 -0.26190832613E+03  0.26190832613E+03  0.00000000000E+00 0.  1.
      99926    2    1    2    0    0  0.00000000000E+00  0.71054273576E-14 -0.66135653242E+02  0.45768099901E+03  0.45287743621E+03 0.  0.
      99925    2    3    3    0    0 -0.69630228086E+02  0.57459943707E+02 -0.10721221422E+03  0.29804138689E+03  0.26302888744E+03 0.  0.
         25    1    3    3    0    0  0.69630228086E+02 -0.57459943707E+02  0.41076560982E+02  0.15963961212E+03  0.12509000000E+03 0.  0.
         25    1    4    4    0    0 -0.42456930394E+02  0.37790275250E+02 -0.96882526631E+02  0.16812027810E+03  0.12509000000E+03 0.  0.
         25    1    4    4    0    0 -0.27173297692E+02  0.19669668457E+02 -0.10329687593E+02  0.12992110879E+03  0.12509000000E+03 0.  0.
<mgrwt>
<rscale>  2 0.45287744E+03</rscale>
<asrwt>0</asrwt>
<pdfrwt beam="1">  1       21 0.28790099E-01 0.45287744E+03</pdfrwt>
<pdfrwt beam="2">  1       21 0.38515930E-01 0.45287744E+03</pdfrwt>
<totfact> 0.69519213E+04</totfact>
</mgrwt>
</event>
<event>
 7    0  0.4775379E-002  0.4816405E+03  0.7546771E-02  0.1018685E+00
         21   -1    0    0  502  501  0.00000000000E+00  0.00000000000E+00  0.49220290426E+02  0.49220290426E+02  0.00000000000E+00 0. -1.
         21   -1    0    0  501  502 -0.00000000000E+00 -0.00000000000E+00 -0.11782616948E+04  0.11782616948E+04  0.00000000000E+00 0. -1.
      99926    2    1    2    0    0 -0.71054273576E-14  0.14210854715E-13 -0.11290414044E+04  0.12274819853E+04  0.48164045851E+03 0.  0.
      99925    2    3    3    0    0 -0.49507070169E+02  0.67351727890E+02 -0.41888731234E+03  0.50156632361E+03  0.26289730180E+03 0.  0.
         25    1    3    3    0    0  0.49507070169E+02 -0.67351727890E+02 -0.71015409208E+03  0.72591566166E+03  0.12509000000E+03 0.  0.
         25    1    4    4    0    0 -0.30715676824E+02  0.74248483077E+02 -0.24132337061E+03  0.28344446960E+03  0.12509000000E+03 0.  0.
         25    1    4    4    0    0 -0.18791393346E+02 -0.68967551870E+01 -0.17756394172E+03  0.21812185401E+03  0.12509000000E+03 0.  0.
<mgrwt>
<rscale>  2 0.48164046E+03</rscale>
<asrwt>0</asrwt>
<pdfrwt beam="1">  1       21 0.72382774E-02 0.48164046E+03</pdfrwt>
<pdfrwt beam="2">  1       21 0.17327379E+00 0.48164046E+03</pdfrwt>
<totfact> 0.25565969E+04</totfact>
</mgrwt>
</event>
<event>
 7    0  0.4775379E-002  0.4474241E+03  0.7546771E-02  0.1028493E+00
         21   -1    0    0  502  501  0.00000000000E+00  0.00000000000E+00  0.17330512856E+04  0.17330512856E+04  0.00000000000E+00 0.  1.
         21   -1    0    0  501  502 -0.00000000000E+00 -0.00000000000E+00 -0.28878013661E+02  0.28878013661E+02  0.00000000000E+00 0.  1.
      99926    2    1    2    0    0  0.00000000000E+00  0.00000000000E+00  0.17041732720E+04  0.17619292993E+04  0.44742408832E+03 0.  0.
      99925    2    3    3    0    0 -0.58115675589E+02  0.84595939948E+02  0.98049603146E+03  0.10203835075E+04  0.26320359011E+03 0.  0.
         25    1    4    4    0    0 -0.15976775569E+02  0.10409788729E+01  0.45595605839E+03  0.47307481045E+03  0.12509000000E+03 0.  0.
         25    1    3    3    0    0  0.58115675589E+02 -0.84595939948E+02  0.72367724049E+03  0.74154579179E+03  0.12509000000E+03 0.  0.
         25    1    4    4    0    0 -0.42138900020E+02  0.83554961075E+02  0.52453997306E+03  0.54730869704E+03  0.12509000000E+03 0.  0.
<mgrwt>
<rscale>  2 0.44742409E+03</rscale>
<asrwt>0</asrwt>
<pdfrwt beam="1">  1       21 0.25486041E+00 0.44742409E+03</pdfrwt>
<pdfrwt beam="2">  1       21 0.42467679E-02 0.44742409E+03</pdfrwt>
<totfact> 0.19101609E+04</totfact>
</mgrwt>
</event>
<event>
 7    0  0.4775379E-002  0.4547783E+03  0.7546771E-02  0.1026307E+00
         21   -1    0    0  502  501  0.00000000000E+00  0.00000000000E+00  0.36573788454E+03  0.36573788454E+03  0.00000000000E+00 0.  1.
         21   -1    0    0  501  502 -0.00000000000E+00 -0.00000000000E+00 -0.14137401204E+03  0.14137401204E+03  0.00000000000E+00 0.  1.
      99926    2    1    2    0    0  0.14210854715E-13 -0.71054273576E-14  0.22436387251E+03  0.50711189658E+03  0.45477832883E+03 0.  0.
      99925    2    3    3    0    0  0.59551290235E+02 -0.50953012266E+02  0.23194189661E+03  0.35930289761E+03  0.26298091794E+03 0.  0.
         25    1    4    4    0    0  0.21649450333E+02 -0.19874905988E+02  0.16519530630E+03  0.20928618663E+03  0.12509000000E+03 0.  0.
         25    1    4    4    0    0  0.37901839902E+02 -0.31078106278E+02  0.66746590305E+02  0.15001671099E+03  0.12509000000E+03 0.  0.
         25    1    3    3    0    0 -0.59551290235E+02  0.50953012266E+02 -0.75780241014E+01  0.14780899897E+03  0.12509000000E+03 0.  0.
<mgrwt>
<rscale>  2 0.45477833E+03</rscale>
<asrwt>0</asrwt>
<pdfrwt beam="1">  1       21 0.53784983E-01 0.45477833E+03</pdfrwt>
<pdfrwt beam="2">  1       21 0.20790296E-01 0.45477833E+03</pdfrwt>
<totfact> 0.64887949E+04</totfact>
</mgrwt>
</event>
<event>
 7    0  0.4775379E-002  0.4595754E+03  0.7546771E-02  0.1024904E+00
         21   -1    0    0  502  501  0.00000000000E+00  0.00000000000E+00  0.27906108433E+03  0.27906108433E+03  0.00000000000E+00 0.  1.
         21   -1    0    0  501  502 -0.00000000000E+00 -0.00000000000E+00 -0.18921442940E+03  0.18921442940E+03  0.00000000000E+00 0.  1.
      99926    2    1    2    0    0  0.00000000000E+00 -0.88817841970E-15  0.89846654926E+02  0.46827551372E+03  0.45957538593E+03 0.  0.
      99925    2    3    3    0    0 -0.11408219414E+03  0.27538176470E+01  0.28243472806E+02  0.28809562950E+03  0.26301913894E+03 0.  0.
         25    1    4    4    0    0 -0.51435705125E+02 -0.26176207320E+02 -0.15641215339E+02  0.13864696646E+03  0.12509000000E+03 0.  0.
         25    1    4    4    0    0 -0.62646489017E+02  0.28930024967E+02  0.43884688146E+02  0.14944866304E+03  0.12509000000E+03 0.  0.
         25    1    3    3    0    0  0.11408219414E+03 -0.27538176470E+01  0.61603182119E+02  0.18017988422E+03  0.12509000000E+03 0.  0.
<mgrwt>
<rscale>  2 0.45957539E+03</rscale>
<asrwt>0</asrwt>
<pdfrwt beam="1">  1       21 0.41038395E-01 0.45957539E+03</pdfrwt>
<pdfrwt beam="2">  1       21 0.27825651E-01 0.45957539E+03</pdfrwt>
<totfact> 0.65165200E+04</totfact>
</mgrwt>
</event>
<event>
 7    0  0.4775379E-002  0.4570978E+03  0.7546771E-02  0.1025626E+00
         21   -1    0    0  502  501  0.00000000000E+00  0.00000000000E+00  0.20776188847E+04  0.20776188847E+04  0.00000000000E+00 0.  1.
         21   -1    0    0  501  502 -0.00000000000E+00 -0.00000000000E+00 -0.25141573657E+02  0.25141573657E+02  0.00000000000E+00 0.  1.
      99926    2    1    2    0    0  0.00000000000E+00  0.00000000000E+00  0.20524773111E+04  0.21027604584E+04  0.45709783732E+03 0.  0.
      99925    2    3    3    0    0  0.81062327237E+02 -0.73670185194E+02  0.14508456964E+04  0.14785757863E+04  0.26312492047E+03 0.  0.
         25    1    4    4    0    0  0.25347766973E+02 -0.19845187098E+02  0.86212482611E+03  0.87174713342E+03  0.12509000000E+03 0.  0.
         25    1    3    3    0    0 -0.81062327237E+02  0.73670185194E+02  0.60163161463E+03  0.62418467212E+03  0.12509000000E+03 0.  0.
         25    1    4    4    0    0  0.55714560265E+02 -0.53824998096E+02  0.58872087032E+03  0.60682865283E+03  0.12509000000E+03 0.  0.
<mgrwt>
<rscale>  2 0.45709784E+03</rscale>
<asrwt>0</asrwt>
<pdfrwt beam="1">  1       21 0.30553207E+00 0.45709784E+03</pdfrwt>
<pdfrwt beam="2">  1       21 0.36972917E-02 0.45709784E+03</pdfrwt>
<totfact> 0.11908468E+04</totfact>
</mgrwt>
</event>
<event>
 7    0  0.4775379E-002  0.4512586E+03  0.7546771E-02  0.1027347E+00
         21   -1    0    0  502  501  0.00000000000E+00  0.00000000000E+00  0.73782509313E+02  0.73782509313E+02  0.00000000000E+00 0. -1.
         21   -1    0    0  501  502 -0.00000000000E+00 -0.00000000000E+00 -0.68998178898E+03  0.68998178898E+03  0.00000000000E+00 0. -1.
      99926    2    1    2    0    0  0.00000000000E+00  0.00000000000E+00 -0.61619927967E+03  0.76376429830E+03  0.45125862993E+03 0.  0.
      99925    2    3    3    0    0 -0.71510069767E+02  0.55961698183E+02 -0.28478603073E+03  0.39807638297E+03  0.26289983195E+03 0.  0.
         25    1    4    4    0    0 -0.59997857330E+02  0.44126766022E+01 -0.17562087184E+03  0.22385131969E+03  0.12509000000E+03 0.  0.
         25    1    4    4    0    0 -0.11512212436E+02  0.51549021581E+02 -0.10916515888E+03  0.17422506328E+03  0.12509000000E+03 0.  0.
         25    1    3    3    0    0  0.71510069767E+02 -0.55961698183E+02 -0.33141324894E+03  0.36568791533E+03  0.12509000000E+03 0.  0.
<mgrwt>
<rscale>  2 0.45125863E+03</rscale>
<asrwt>0</asrwt>
<pdfrwt beam="1">  1       21 0.10850369E-01 0.45125863E+03</pdfrwt>
<pdfrwt beam="2">  1       21 0.10146791E+00 0.45125863E+03</pdfrwt>
<totfact> 0.51050243E+04</totfact>
</mgrwt>
</event>
<event>
 7    0  0.4775379E-002  0.4490709E+03  0.7546771E-02  0.1027999E+00
         21   -1    0    0  502  501  0.00000000000E+00  0.00000000000E+00  0.31980831818E+03  0.31980831818E+03  0.00000000000E+00 0. -1.
         21   -1    0    0  501  502 -0.00000000000E+00 -0.00000000000E+00 -0.15764498446E+03  0.15764498446E+03  0.00000000000E+00 0. -1.
      99926    2    1    2    0    0 -0.71054273576E-14  0.14210854715E-13  0.16216333372E+03  0.47745330264E+03  0.44907094027E+03 0.  0.
      99925    2    3    3    0    0  0.61534619389E+02 -0.82708590684E+02  0.13493785356E+03  0.31308799235E+03  0.26303734768E+03 0.  0.
         25    1    3    3    0    0 -0.61534619389E+02  0.82708590684E+02  0.27225480168E+02  0.16436531029E+03  0.12509000000E+03 0.  0.
         25    1    4    4    0    0  0.11987286326E+02 -0.64085763688E+02  0.37608096583E+02  0.14598820901E+03  0.12509000000E+03 0.  0.
         25    1    4    4    0    0  0.49547333063E+02 -0.18622826996E+02  0.97329756973E+02  0.16709978334E+03  0.12509000000E+03 0.  0.
<mgrwt>
<rscale>  2 0.44907094E+03</rscale>
<asrwt>0</asrwt>
<pdfrwt beam="1">  1       21 0.47030635E-01 0.44907094E+03</pdfrwt>
<pdfrwt beam="2">  1       21 0.23183086E-01 0.44907094E+03</pdfrwt>
<totfact> 0.70128735E+04</totfact>
</mgrwt>
</event>
<event>
 7    0  0.4775379E-002  0.4494112E+03  0.7546771E-02  0.1027898E+00
         21   -1    0    0  502  501  0.00000000000E+00  0.00000000000E+00  0.97826817209E+02  0.97826817209E+02  0.00000000000E+00 0.  1.
         21   -1    0    0  501  502 -0.00000000000E+00 -0.00000000000E+00 -0.51614269612E+03  0.51614269612E+03  0.00000000000E+00 0.  1.
      99926    2    1    2    0    0  0.00000000000E+00  0.00000000000E+00 -0.41831587891E+03  0.61396951333E+03  0.44941115779E+03 0.  0.
      99925    2    3    3    0    0 -0.11886266197E+02 -0.56812676973E+02 -0.38877691619E+03  0.47294106936E+03  0.26297680684E+03 0.  0.
         25    1    3    3    0    0  0.11886266197E+02  0.56812676973E+02 -0.29538962720E+02  0.14102844397E+03  0.12509000000E+03 0.  0.
         25    1    4    4    0    0 -0.14431794053E+02  0.11600681894E+02 -0.19300348089E+03  0.23073947265E+03  0.12509000000E+03 0.  0.
         25    1    4    4    0    0  0.25455278569E+01 -0.68413358867E+02 -0.19577343530E+03  0.24220159672E+03  0.12509000000E+03 0.  0.
<mgrwt>
<rscale>  2 0.44941116E+03</rscale>
<asrwt>0</asrwt>
<pdfrwt beam="1">  1       21 0.14386297E-01 0.44941116E+03</pdfrwt>
<pdfrwt beam="2">  1       21 0.75903337E-01 0.44941116E+03</pdfrwt>
<totfact> 0.60450935E+04</totfact>
</mgrwt>
</event>
<event>
 7    0  0.4775379E-002  0.4514895E+03  0.7546771E-02  0.1027279E+00
         21   -1    0    0  502  501  0.00000000000E+00  0.00000000000E+00  0.16839810866E+04  0.16839810866E+04  0.00000000000E+00 0. -1.
         21   -1    0    0  501  502 -0.00000000000E+00 -0.00000000000E+00 -0.30262031136E+02  0.30262031136E+02  0.00000000000E+00 0. -1.
      99926    2    1    2    0    0  0.00000000000E+00  0.00000000000E+00  0.16537190555E+04  0.17142431178E+04  0.45148948194E+03 0.  0.
      99925    2    3    3    0    0 -0.74809014536E+02 -0.71043465479E+02  0.11858557369E+04  0.12190793513E+04  0.26316738659E+03 0.  0.
         25    1    4    4    0    0 -0.40872112166E+02 -0.66111501278E+02  0.75048554794E+03  0.76479887939E+03  0.12509000000E+03 0.  0.
         25    1    3    3    0    0  0.74809014536E+02  0.71043465479E+02  0.46786331861E+03  0.49516376649E+03  0.12509000000E+03 0.  0.
         25    1    4    4    0    0 -0.33936902370E+02 -0.49319642004E+01  0.43537018894E+03  0.45428047188E+03  0.12509000000E+03 0.  0.
<mgrwt>
<rscale>  2 0.45148948E+03</rscale>
<asrwt>0</asrwt>
<pdfrwt beam="1">  1       21 0.24764421E+00 0.45148948E+03</pdfrwt>
<pdfrwt beam="2">  1       21 0.44502998E-02 0.45148948E+03</pdfrwt>
<totfact> 0.19492804E+04</totfact>
</mgrwt>
</event>
<event>
 7    0  0.4775379E-002  0.4493143E+03  0.7546771E-02  0.1027927E+00
         21   -1    0    0  502  501  0.00000000000E+00  0.00000000000E+00  0.38017636290E+03  0.38017636290E+03  0.00000000000E+00 0.  1.
         21   -1    0    0  501  502 -0.00000000000E+00 -0.00000000000E+00 -0.13275635569E+03  0.13275635569E+03  0.00000000000E+00 0.  1.
      99926    2    1    2    0    0  0.00000000000E+00  0.00000000000E+00  0.24742000721E+03  0.51293271858E+03  0.44931427066E+03 0.  0.
      99925    2    3    3    0    0  0.82063391409E+02  0.12805477981E+02  0.23483932728E+03  0.36225371512E+03  0.26302065320E+03 0.  0.
         25    1    3    3    0    0 -0.82063391409E+02 -0.12805477981E+02  0.12580679933E+02  0.15067900346E+03  0.12509000000E+03 0.  0.
         25    1    4    4    0    0  0.82020762482E+02  0.12507712344E+01  0.11557947379E+03  0.18903727878E+03  0.12509000000E+03 0.  0.
         25    1    4    4    0    0  0.42628926875E-01  0.11554706747E+02  0.11925985349E+03  0.17321643634E+03  0.12509000000E+03 0.  0.
<mgrwt>
<rscale>  2 0.44931427E+03</rscale>
<asrwt>0</asrwt>
<pdfrwt beam="1">  1       21 0.55908289E-01 0.44931427E+03</pdfrwt>
<pdfrwt beam="2">  1       21 0.19522993E-01 0.44931427E+03</pdfrwt>
<totfact> 0.67359313E+04</totfact>
</mgrwt>
</event>
<event>
 7    0  0.4775379E-002  0.4603249E+03  0.7546771E-02  0.1024687E+00
         21   -1    0    0  502  501  0.00000000000E+00  0.00000000000E+00  0.29158755744E+03  0.29158755744E+03  0.00000000000E+00 0.  1.
         21   -1    0    0  501  502 -0.00000000000E+00 -0.00000000000E+00 -0.18167697962E+03  0.18167697962E+03  0.00000000000E+00 0.  1.
      99926    2    1    2    0    0 -0.71054273576E-14  0.00000000000E+00  0.10991057781E+03  0.47326453706E+03  0.46032487107E+03 0.  0.
      99925    2    3    3    0    0  0.36624735600E+02  0.12232208279E+02 -0.46135802812E+02  0.26957610051E+03  0.26277702238E+03 0.  0.
         25    1    4    4    0    0 -0.17783933524E+02 -0.25888308273E+01 -0.38676210838E+02  0.13216023502E+03  0.12509000000E+03 0.  0.
         25    1    3    3    0    0 -0.36624735600E+02 -0.12232208279E+02  0.15604638062E+03  0.20368843655E+03  0.12509000000E+03 0.  0.
         25    1    4    4    0    0  0.54408669125E+02  0.14821039107E+02 -0.74595919743E+01  0.13741586549E+03  0.12509000000E+03 0.  0.
<mgrwt>
<rscale>  2 0.46032487E+03</rscale>
<asrwt>0</asrwt>
<pdfrwt beam="1">  1       21 0.42880523E-01 0.46032487E+03</pdfrwt>
<pdfrwt beam="2">  1       21 0.26717203E-01 0.46032487E+03</pdfrwt>
<totfact> 0.64428871E+04</totfact>
</mgrwt>
</event>
<event>
 7    0  0.4775379E-002  0.4563511E+03  0.7546771E-02  0.1025845E+00
         21   -1    0    0  502  501  0.00000000000E+00  0.00000000000E+00  0.81294521120E+03  0.81294521120E+03  0.00000000000E+00 0. -1.
         21   -1    0    0  501  502 -0.00000000000E+00 -0.00000000000E+00 -0.64043770736E+02  0.64043770736E+02  0.00000000000E+00 0. -1.
      99926    2    1    2    0    0 -0.17763568394E-14  0.14210854715E-13  0.74890144046E+03  0.87698898194E+03  0.45635107857E+03 0.  0.
      99925    2    3    3    0    0  0.69165530927E+01 -0.10406471484E+03  0.56159419937E+03  0.62877775285E+03  0.26286139718E+03 0.  0.
         25    1    4    4    0    0 -0.23044711159E+02 -0.82031969695E+02  0.32698888145E+03  0.36031866376E+03  0.12509000000E+03 0.  0.
         25    1    3    3    0    0 -0.69165530927E+01  0.10406471484E+03  0.18730724109E+03  0.24821122909E+03  0.12509000000E+03 0.  0.
         25    1    4    4    0    0  0.29961264252E+02 -0.22032745141E+02  0.23460531792E+03  0.26845908909E+03  0.12509000000E+03 0.  0.
<mgrwt>
<rscale>  2 0.45635108E+03</rscale>
<asrwt>0</asrwt>
<pdfrwt beam="1">  1       21 0.11955076E+00 0.45635108E+03</pdfrwt>
<pdfrwt beam="2">  1       21 0.94182021E-02 0.45635108E+03</pdfrwt>
<totfact> 0.43778486E+04</totfact>
</mgrwt>
</event>
<event>
 7    0  0.4775379E-002  0.4579401E+03  0.7546771E-02  0.1025380E+00
         21   -1    0    0  502  501  0.00000000000E+00  0.00000000000E+00  0.18034214422E+03  0.18034214422E+03  0.00000000000E+00 0. -1.
         21   -1    0    0  501  502 -0.00000000000E+00 -0.00000000000E+00 -0.29071008203E+03  0.29071008203E+03  0.00000000000E+00 0. -1.
      99926    2    1    2    0    0  0.35527136788E-14  0.00000000000E+00 -0.11036793781E+03  0.47105222624E+03  0.45794008140E+03 0.  0.
      99925    2    3    3    0    0 -0.30533065664E+02 -0.10275066344E+03 -0.23976861271E+02  0.28503907310E+03  0.26302550519E+03 0.  0.
         25    1    4    4    0    0 -0.51239096958E+02 -0.54742730014E+02  0.68492964891E+01  0.14600216611E+03  0.12509000000E+03 0.  0.
         25    1    3    3    0    0  0.30533065664E+02  0.10275066344E+03 -0.86391076535E+02  0.18601315314E+03  0.12509000000E+03 0.  0.
         25    1    4    4    0    0  0.20706031294E+02 -0.48007933428E+02 -0.30826157760E+02  0.13903690699E+03  0.12509000000E+03 0.  0.
<mgrwt>
<rscale>  2 0.45794008E+03</rscale>
<asrwt>0</asrwt>
<pdfrwt beam="1">  1       21 0.26520903E-01 0.45794008E+03</pdfrwt>
<pdfrwt beam="2">  1       21 0.42751483E-01 0.45794008E+03</pdfrwt>
<totfact> 0.65809309E+04</totfact>
</mgrwt>
</event>
<event>
 7    0  0.4775379E-002  0.4479174E+03  0.7546771E-02  0.1028345E+00
         21   -1    0    0  502  501  0.00000000000E+00  0.00000000000E+00  0.69650981859E+02  0.69650981859E+02  0.00000000000E+00 0.  1.
         21   -1    0    0  501  502 -0.00000000000E+00 -0.00000000000E+00 -0.72012634651E+03  0.72012634651E+03  0.00000000000E+00 0.  1.
      99926    2    1    2    0    0  0.00000000000E+00 -0.14210854715E-13 -0.65047536465E+03  0.78977732837E+03  0.44791743479E+03 0.  0.
      99925    2    3    3    0    0  0.21659087101E+02  0.97788504046E+02 -0.34851377501E+03  0.44792938367E+03  0.26295850206E+03 0.  0.
         25    1    3    3    0    0 -0.21659087101E+02 -0.97788504046E+02 -0.30196158963E+03  0.34184794470E+03  0.12509000000E+03 0.  0.
         25    1    4    4    0    0  0.17141277961E+02  0.66432691782E+02 -0.12424134726E+03  0.18918389576E+03  0.12509000000E+03 0.  0.
         25    1    4    4    0    0  0.45178091407E+01  0.31355812264E+02 -0.22427242775E+03  0.25874548791E+03  0.12509000000E+03 0.  0.
<mgrwt>
<rscale>  2 0.44791743E+03</rscale>
<asrwt>0</asrwt>
<pdfrwt beam="1">  1       21 0.10242791E-01 0.44791743E+03</pdfrwt>
<pdfrwt beam="2">  1       21 0.10590094E+00 0.44791743E+03</pdfrwt>
<totfact> 0.51041974E+04</totfact>
</mgrwt>
</event>
<event>
 7    0  0.4775379E-002  0.4962630E+03  0.7546771E-02  0.1014759E+00
         21   -1    0    0  502  501  0.00000000000E+00  0.00000000000E+00  0.17428070294E+04  0.17428070294E+04  0.00000000000E+00 0.  1.
         21   -1    0    0  501  502 -0.00000000000E+00 -0.00000000000E+00 -0.35327630739E+02  0.35327630739E+02  0.00000000000E+00 0.  1.
      99926    2    1    2    0    0  0.00000000000E+00  0.00000000000E+00  0.17074793986E+04  0.17781346601E+04  0.49626300762E+03 0.  0.
      99925    2    3    3    0    0  0.13242415344E+03 -0.66496262207E+02  0.10777974784E+04  0.11192684081E+04  0.26297615019E+03 0.  0.
         25    1    4    4    0    0  0.76354373453E+02 -0.74670898593E+02  0.59729524372E+03  0.61952792488E+03  0.12509000000E+03 0.  0.
         25    1    4    4    0    0  0.56069779990E+02  0.81746363853E+01  0.48050223469E+03  0.49974048320E+03  0.12509000000E+03 0.  0.
         25    1    3    3    0    0 -0.13242415344E+03  0.66496262207E+02  0.62968192023E+03  0.65886625204E+03  0.12509000000E+03 0.  0.
<mgrwt>
<rscale>  2 0.49626301E+03</rscale>
<asrwt>0</asrwt>
<pdfrwt beam="1">  1       21 0.25629509E+00 0.49626301E+03</pdfrwt>
<pdfrwt beam="2">  1       21 0.51952410E-02 0.49626301E+03</pdfrwt>
<totfact> 0.12995560E+04</totfact>
</mgrwt>
</event>
<event>
 7    0  0.4775379E-002  0.4498952E+03  0.7546771E-02  0.1027753E+00
         21   -1    0    0  502  501  0.00000000000E+00  0.00000000000E+00  0.28359299807E+03  0.28359299807E+03  0.00000000000E+00 0.  1.
         21   -1    0    0  501  502 -0.00000000000E+00 -0.00000000000E+00 -0.17842974322E+03  0.17842974322E+03  0.00000000000E+00 0.  1.
      99926    2    1    2    0    0  0.00000000000E+00  0.00000000000E+00  0.10516325485E+03  0.46202274129E+03  0.44989521369E+03 0.  0.
      99925    2    3    3    0    0  0.28901717731E+02  0.50795350856E+02  0.16017843904E+03  0.31339685005E+03  0.26295432365E+03 0.  0.
         25    1    4    4    0    0  0.43464950824E+02  0.13436740971E+02  0.50832546748E+02  0.14248229317E+03  0.12509000000E+03 0.  0.
         25    1    4    4    0    0 -0.14563233092E+02  0.37358609885E+02  0.10934589230E+03  0.17091455688E+03  0.12509000000E+03 0.  0.
         25    1    3    3    0    0 -0.28901717731E+02 -0.50795350856E+02 -0.55015184196E+02  0.14862589125E+03  0.12509000000E+03 0.  0.
<mgrwt>
<rscale>  2 0.44989521E+03</rscale>
<asrwt>0</asrwt>
<pdfrwt beam="1">  1       21 0.41704853E-01 0.44989521E+03</pdfrwt>
<pdfrwt beam="2">  1       21 0.26239668E-01 0.44989521E+03</pdfrwt>
<totfact> 0.70859968E+04</totfact>
</mgrwt>
</event>
<event>
 7    0  0.4775379E-002  0.5077175E+03  0.7546771E-02  0.1011784E+00
         21   -1    0    0  502  501  0.00000000000E+00  0.00000000000E+00  0.61977627630E+03  0.61977627630E+03  0.00000000000E+00 0. -1.
         21   -1    0    0  501  502 -0.00000000000E+00 -0.00000000000E+00 -0.10397987558E+03  0.10397987558E+03  0.00000000000E+00 0. -1.
      99926    2    1    2    0    0  0.00000000000E+00  0.00000000000E+00  0.51579640072E+03  0.72375615188E+03  0.50771748088E+03 0.  0.
      99925    2    3    3    0    0  0.84139812203E+02  0.80670390949E+02  0.46247836176E+03  0.54465411015E+03  0.26301073102E+03 0.  0.
         25    1    4    4    0    0  0.14344842853E+02  0.21099758900E+02  0.15980832113E+03  0.20454139421E+03  0.12509000000E+03 0.  0.
         25    1    3    3    0    0 -0.84139812203E+02 -0.80670390949E+02  0.53318038955E+02  0.17910204173E+03  0.12509000000E+03 0.  0.
         25    1    4    4    0    0  0.69794969350E+02  0.59570632049E+02  0.30267004064E+03  0.34011271595E+03  0.12509000000E+03 0.  0.
<mgrwt>
<rscale>  2 0.50771748E+03</rscale>
<asrwt>0</asrwt>
<pdfrwt beam="1">  1       21 0.91143568E-01 0.50771748E+03</pdfrwt>
<pdfrwt beam="2">  1       21 0.15291158E-01 0.50771748E+03</pdfrwt>
<totfact> 0.34789073E+04</totfact>
</mgrwt>
</event>
<event>
 7    0  0.4775379E-002  0.4578330E+03  0.7546771E-02  0.1025412E+00
         21   -1    0    0  502  501  0.00000000000E+00  0.00000000000E+00  0.62681532636E+02  0.62681532636E+02  0.00000000000E+00 0.  1.
         21   -1    0    0  501  502 -0.00000000000E+00 -0.00000000000E+00 -0.83601586920E+03  0.83601586920E+03  0.00000000000E+00 0.  1.
      99926    2    1    2    0    0  0.00000000000E+00  0.00000000000E+00 -0.77333433656E+03  0.89869740183E+03  0.45783296513E+03 0.  0.
      99925    2    3    3    0    0 -0.10532375107E+03  0.36560117217E+02 -0.42380439690E+03  0.51107848907E+03  0.26298539969E+03 0.  0.
         25    1    3    3    0    0  0.10532375107E+03 -0.36560117217E+02 -0.34952993966E+03  0.38761891276E+03  0.12509000000E+03 0.  0.
         25    1    4    4    0    0 -0.59165045715E+02  0.58906705852E+02 -0.21819942271E+03  0.26500754480E+03  0.12509000000E+03 0.  0.
         25    1    4    4    0    0 -0.46158705360E+02 -0.22346588635E+02 -0.20560497419E+03  0.24607094427E+03  0.12509000000E+03 0.  0.
<mgrwt>
<rscale>  2 0.45783297E+03</rscale>
<asrwt>0</asrwt>
<pdfrwt beam="1">  1       21 0.92178731E-02 0.45783297E+03</pdfrwt>
<pdfrwt beam="2">  1       21 0.12294350E+00 0.45783297E+03</pdfrwt>
<totfact> 0.42342996E+04</totfact>
</mgrwt>
</event>
<event>
 7    0  0.4775379E-002  0.4580408E+03  0.7546771E-02  0.1025351E+00
         21   -1    0    0  502  501  0.00000000000E+00  0.00000000000E+00  0.94920562650E+02  0.94920562650E+02  0.00000000000E+00 0. -1.
         21   -1    0    0  501  502 -0.00000000000E+00 -0.00000000000E+00 -0.55257088170E+03  0.55257088170E+03  0.00000000000E+00 0. -1.
      99926    2    1    2    0    0 -0.44408920985E-15  0.00000000000E+00 -0.45765031905E+03  0.64749144435E+03  0.45804077982E+03 0.  0.
      99925    2    3    3    0    0 -0.13233160845E+01 -0.10754047058E+03 -0.22533586225E+03  0.36256299910E+03  0.26288585645E+03 0.  0.
         25    1    4    4    0    0  0.10869103993E+02 -0.64650419003E+02 -0.16356813244E+03  0.21610149502E+03  0.12509000000E+03 0.  0.
         25    1    4    4    0    0 -0.12192420077E+02 -0.42890051573E+02 -0.61767729813E+02  0.14646150408E+03  0.12509000000E+03 0.  0.
         25    1    3    3    0    0  0.13233160845E+01  0.10754047058E+03 -0.23231445680E+03  0.28492844525E+03  0.12509000000E+03 0.  0.
<mgrwt>
<rscale>  2 0.45804078E+03</rscale>
<asrwt>0</asrwt>
<pdfrwt beam="1">  1       21 0.13958906E-01 0.45804078E+03</pdfrwt>
<pdfrwt beam="2">  1       21 0.81260426E-01 0.45804078E+03</pdfrwt>
<totfact> 0.54526266E+04</totfact>
</mgrwt>
</event>
<event>
 6    0  0.4775379E-002  0.4558157E+03  0.7546771E-02  0.1026002E+00
         21   -1    0    0  502  501  0.00000000000E+00  0.00000000000E+00  0.73936015712E+02  0.73936015712E+02  0.00000000000E+00 0. -1.
         21   -1    0    0  501  502 -0.00000000000E+00 -0.00000000000E+00 -0.70252616427E+03  0.70252616427E+03  0.00000000000E+00 0. -1.
      99926    2    1    2    0    0 -0.35527136788E-14 -0.14210854715E-13 -0.62859014856E+03  0.77646217998E+03  0.45581568871E+03 0.  0.
         25    1    3    3    0    0  0.62099004639E+02  0.69801551484E+02 -0.30800964541E+03  0.34532013080E+03  0.12509000000E+03 0.  0.
         25    1    3    3    0    0 -0.53597371105E+02  0.10014330364E+02 -0.18562800945E+03  0.23038713287E+03  0.12509000000E+03 0.  0.
         25    1    3    3    0    0 -0.85016335339E+01 -0.79815881847E+02 -0.13495249369E+03  0.20075491631E+03  0.12509000000E+03 0.  0.
<mgrwt>
<rscale>  2 0.45581569E+03</rscale>
<asrwt>0</asrwt>
<pdfrwt beam="1">  1       21 0.10872944E-01 0.45581569E+03</pdfrwt>
<pdfrwt beam="2">  1       21 0.10331267E+00 0.45581569E+03</pdfrwt>
<totfact> 0.48612404E+04</totfact>
</mgrwt>
</event>
<event>
 7    0  0.4775379E-002  0.4488480E+03  0.7546771E-02  0.1028066E+00
         21   -1    0    0  502  501  0.00000000000E+00  0.00000000000E+00  0.43248228975E+03  0.43248228975E+03  0.00000000000E+00 0. -1.
         21   -1    0    0  501  502 -0.00000000000E+00 -0.00000000000E+00 -0.11645827592E+03  0.11645827592E+03  0.00000000000E+00 0. -1.
      99926    2    1    2    0    0  0.14210854715E-13  0.35527136788E-14  0.31602401382E+03  0.54894056567E+03  0.44884804481E+03 0.  0.
      99925    2    3    3    0    0 -0.85649627633E+02 -0.26968511881E+02  0.27190090064E+03  0.38876092726E+03  0.26294828283E+03 0.  0.
         25    1    3    3    0    0  0.85649627633E+02  0.26968511881E+02  0.44123113186E+02  0.16017963842E+03  0.12509000000E+03 0.  0.
         25    1    4    4    0    0 -0.79917837565E+02 -0.21190232652E+02  0.12165591089E+03  0.19308950120E+03  0.12509000000E+03 0.  0.
         25    1    4    4    0    0 -0.57317900672E+01 -0.57782792290E+01  0.15024498975E+03  0.19567142605E+03  0.12509000000E+03 0.  0.
<mgrwt>
<rscale>  2 0.44884804E+03</rscale>
<asrwt>0</asrwt>
<pdfrwt beam="1">  1       21 0.63600336E-01 0.44884804E+03</pdfrwt>
<pdfrwt beam="2">  1       21 0.17126217E-01 0.44884804E+03</pdfrwt>
<totfact> 0.65045273E+04</totfact>
</mgrwt>
</event>
<event>
 7    0  0.4775379E-002  0.4604896E+03  0.7546771E-02  0.1024639E+00
         21   -1    0    0  502  501  0.00000000000E+00  0.00000000000E+00  0.31129867198E+02  0.31129867198E+02  0.00000000000E+00 0.  1.
         21   -1    0    0  501  502 -0.00000000000E+00 -0.00000000000E+00 -0.17029521429E+04  0.17029521429E+04  0.00000000000E+00 0.  1.
      99926    2    1    2    0    0  0.00000000000E+00  0.00000000000E+00 -0.16718222757E+04  0.17340820101E+04  0.46048962660E+03 0.  0.
      99925    2    3    3    0    0 -0.43068344668E+02 -0.90490259722E+02 -0.81113186328E+03  0.85859422403E+03  0.26306990040E+03 0.  0.
         25    1    3    3    0    0  0.43068344668E+02  0.90490259722E+02 -0.86069041238E+03  0.87548778602E+03  0.12509000000E+03 0.  0.
         25    1    4    4    0    0 -0.10488727203E+02 -0.35028252399E+02 -0.27500448199E+03  0.30432214030E+03  0.12509000000E+03 0.  0.
         25    1    4    4    0    0 -0.32579617464E+02 -0.55462007323E+02 -0.53612738129E+03  0.55427208373E+03  0.12509000000E+03 0.  0.
<mgrwt>
<rscale>  2 0.46048963E+03</rscale>
<asrwt>0</asrwt>
<pdfrwt beam="1">  1       21 0.45779205E-02 0.46048963E+03</pdfrwt>
<pdfrwt beam="2">  1       21 0.25043420E+00 0.46048963E+03</pdfrwt>
<totfact> 0.17790756E+04</totfact>
</mgrwt>
</event>
<event>
 7    0  0.4775379E-002  0.4494827E+03  0.7546771E-02  0.1027876E+00
         21   -1    0    0  502  501  0.00000000000E+00  0.00000000000E+00  0.10713476691E+03  0.10713476691E+03  0.00000000000E+00 0. -1.
         21   -1    0    0  501  502 -0.00000000000E+00 -0.00000000000E+00 -0.47144980933E+03  0.47144980933E+03  0.00000000000E+00 0. -1.
      99926    2    1    2    0    0  0.00000000000E+00  0.00000000000E+00 -0.36431504242E+03  0.57858457624E+03  0.44948266010E+03 0.  0.
      99925    2    3    3    0    0  0.82939420937E+02  0.69050306900E+02 -0.22472810074E+03  0.36230023835E+03  0.26289132929E+03 0.  0.
         25    1    4    4    0    0  0.55400674704E+02  0.20880401608E+02 -0.15804557566E+03  0.21007412505E+03  0.12509000000E+03 0.  0.
         25    1    4    4    0    0  0.27538746233E+02  0.48169905293E+02 -0.66682525086E+02  0.15222611330E+03  0.12509000000E+03 0.  0.
         25    1    3    3    0    0 -0.82939420937E+02 -0.69050306900E+02 -0.13958694168E+03  0.21628433789E+03  0.12509000000E+03 0.  0.
<mgrwt>
<rscale>  2 0.44948266E+03</rscale>
<asrwt>0</asrwt>
<pdfrwt beam="1">  1       21 0.15755113E-01 0.44948266E+03</pdfrwt>
<pdfrwt beam="2">  1       21 0.69330852E-01 0.44948266E+03</pdfrwt>
<totfact> 0.62706998E+04</totfact>
</mgrwt>
</event>
<event>
 7    0  0.4775379E-002  0.4206908E+03  0.7546771E-02  0.1036842E+00
         21   -1    0    0  502  501  0.00000000000E+00  0.00000000000E+00  0.22075438762E+03  0.22075438762E+03  0.00000000000E+00 0.  1.
         21   -1    0    0  501  502 -0.00000000000E+00 -0.00000000000E+00 -0.20042718277E+03  0.20042718277E+03  0.00000000000E+00 0.  1.
      99926    2    1    2    0    0  0.00000000000E+00 -0.13322676296E-14  0.20327204847E+02  0.42118157039E+03  0.42069076527E+03 0.  0.
      99925    2    3    3    0    0  0.30018616191E+02  0.34098444133E+01  0.83794187057E+02  0.27769529827E+03  0.26302180240E+03 0.  0.
         25    1    4    4    0    0 -0.18833957970E+02 -0.15207478883E+02  0.56612488017E+02  0.13942190390E+03  0.12509000000E+03 0.  0.
         25    1    3    3    0    0 -0.30018616191E+02 -0.34098444133E+01 -0.63466982209E+02  0.14348627212E+03  0.12509000000E+03 0.  0.
         25    1    4    4    0    0  0.48852574160E+02  0.18617323296E+02  0.27181699040E+02  0.13827339437E+03  0.12509000000E+03 0.  0.
<mgrwt>
<rscale>  2 0.42069077E+03</rscale>
<asrwt>0</asrwt>
<pdfrwt beam="1">  1       21 0.32463881E-01 0.42069077E+03</pdfrwt>
<pdfrwt beam="2">  1       21 0.29474585E-01 0.42069077E+03</pdfrwt>
<totfact> 0.94415769E+04</totfact>
</mgrwt>
</event>
<event>
 7    0  0.4775379E-002  0.4539335E+03  0.7546771E-02  0.1026555E+00
         21   -1    0    0  502  501  0.00000000000E+00  0.00000000000E+00  0.78915679404E+02  0.78915679404E+02  0.00000000000E+00 0. -1.
         21   -1    0    0  501  502 -0.00000000000E+00 -0.00000000000E+00 -0.65277141631E+03  0.65277141631E+03  0.00000000000E+00 0. -1.
      99926    2    1    2    0    0  0.00000000000E+00 -0.17763568394E-14 -0.57385573690E+03  0.73168709571E+03  0.45393347448E+03 0.  0.
      99925    2    3    3    0    0  0.24590701262E+02 -0.49811537607E+01 -0.18518255495E+03  0.32261025091E+03  0.26297391668E+03 0.  0.
         25    1    4    4    0    0  0.43814011814E+02  0.21105486899E+02 -0.82289349110E+02  0.15742983925E+03  0.12509000000E+03 0.  0.
         25    1    3    3    0    0 -0.24590701262E+02  0.49811537607E+01 -0.38867318195E+03  0.40907684480E+03  0.12509000000E+03 0.  0.
         25    1    4    4    0    0 -0.19223310551E+02 -0.26086640660E+02 -0.10289320584E+03  0.16518041166E+03  0.12509000000E+03 0.  0.
<mgrwt>
<rscale>  2 0.45393347E+03</rscale>
<asrwt>0</asrwt>
<pdfrwt beam="1">  1       21 0.11605247E-01 0.45393347E+03</pdfrwt>
<pdfrwt beam="2">  1       21 0.95995799E-01 0.45393347E+03</pdfrwt>
<totfact> 0.51647893E+04</totfact>
</mgrwt>
</event>
<event>
 7    0  0.4775379E-002  0.4733240E+03  0.7546771E-02  0.1020986E+00
         21   -1    0    0  502  501  0.00000000000E+00  0.00000000000E+00  0.17273269979E+03  0.17273269979E+03  0.00000000000E+00 0.  1.
         21   -1    0    0  501  502 -0.00000000000E+00 -0.00000000000E+00 -0.32425184641E+03  0.32425184641E+03  0.00000000000E+00 0.  1.
      99926    2    1    2    0    0  0.17763568394E-14 -0.14210854715E-13 -0.15151914661E+03  0.49698454620E+03  0.47332397718E+03 0.  0.
      99925    2    3    3    0    0 -0.13955215085E+02  0.11701468441E+03 -0.15078058616E+03  0.32512635475E+03  0.26284059236E+03 0.  0.
         25    1    4    4    0    0 -0.36203543060E+02  0.39690903005E+02 -0.48070844116E+02  0.14437582369E+03  0.12509000000E+03 0.  0.
         25    1    4    4    0    0  0.22248327974E+02  0.77323781410E+02 -0.10270974204E+03  0.18075053106E+03  0.12509000000E+03 0.  0.
         25    1    3    3    0    0  0.13955215085E+02 -0.11701468441E+03 -0.73856045486E+00  0.17185819145E+03  0.12509000000E+03 0.  0.
<mgrwt>
<rscale>  2 0.47332398E+03</rscale>
<asrwt>0</asrwt>
<pdfrwt beam="1">  1       21 0.25401868E-01 0.47332398E+03</pdfrwt>
<pdfrwt beam="2">  1       21 0.47684094E-01 0.47332398E+03</pdfrwt>
<totfact> 0.56765535E+04</totfact>
</mgrwt>
</event>
<event>
 7    0  0.4775379E-002  0.4536791E+03  0.7546771E-02  0.1026631E+00
         21   -1    0    0  502  501  0.00000000000E+00  0.00000000000E+00  0.24601042797E+04  0.24601042797E+04  0.00000000000E+00 0.  1.
         21   -1    0    0  501  502 -0.00000000000E+00 -0.00000000000E+00 -0.20916263764E+02  0.20916263764E+02  0.00000000000E+00 0.  1.
      99926    2    1    2    0    0  0.00000000000E+00 -0.35527136788E-14  0.24391880160E+04  0.24810205435E+04  0.45367913772E+03 0.  0.
      99925    2    3    3    0    0  0.44220979137E+02 -0.28642046354E+02  0.99681117633E+03  0.10322713183E+04  0.26301272129E+03 0.  0.
         25    1    4    4    0    0  0.36752663028E+02 -0.33127037782E+02  0.64235192359E+03  0.65628626431E+03  0.12509000000E+03 0.  0.
         25    1    3    3    0    0 -0.44220979137E+02  0.28642046354E+02  0.14423768396E+04  0.14487492252E+04  0.12509000000E+03 0.  0.
         25    1    4    4    0    0  0.74683161098E+01  0.44849914278E+01  0.35445925273E+03  0.37598505401E+03  0.12509000000E+03 0.  0.
<mgrwt>
<rscale>  2 0.45367914E+03</rscale>
<asrwt>0</asrwt>
<pdfrwt beam="1">  1       21 0.36177984E+00 0.45367914E+03</pdfrwt>
<pdfrwt beam="2">  1       21 0.30759228E-02 0.45367914E+03</pdfrwt>
<totfact> 0.74036898E+03</totfact>
</mgrwt>
</event>
<event>
 7    0  0.4775379E-002  0.4517327E+03  0.7546771E-02  0.1027207E+00
         21   -1    0    0  502  501  0.00000000000E+00  0.00000000000E+00  0.18459105053E+03  0.18459105053E+03  0.00000000000E+00 0. -1.
         21   -1    0    0  501  502 -0.00000000000E+00 -0.00000000000E+00 -0.27637100892E+03  0.27637100892E+03  0.00000000000E+00 0. -1.
      99926    2    1    2    0    0  0.71054273576E-14  0.00000000000E+00 -0.91779958391E+02  0.46096205946E+03  0.45173273016E+03 0.  0.
      99925    2    3    3    0    0 -0.53258753748E+02  0.95802837475E+02 -0.46622248329E+02  0.28862110264E+03  0.26289508997E+03 0.  0.
         25    1    4    4    0    0 -0.12992231020E+02  0.61659965801E+02  0.12317587245E+02  0.14060576270E+03  0.12509000000E+03 0.  0.
         25    1    4    4    0    0 -0.40266522728E+02  0.34142871674E+02 -0.58939835574E+02  0.14801533994E+03  0.12509000000E+03 0.  0.
         25    1    3    3    0    0  0.53258753748E+02 -0.95802837475E+02 -0.45157710061E+02  0.17234095682E+03  0.12509000000E+03 0.  0.
<mgrwt>
<rscale>  2 0.45173273E+03</rscale>
<asrwt>0</asrwt>
<pdfrwt beam="1">  1       21 0.27145743E-01 0.45173273E+03</pdfrwt>
<pdfrwt beam="2">  1       21 0.40642795E-01 0.45173273E+03</pdfrwt>
<totfact> 0.69909002E+04</totfact>
</mgrwt>
</event>
<event>
 7    0  0.4775379E-002  0.4532621E+03  0.7546771E-02  0.1026754E+00
         21   -1    0    0  502  501  0.00000000000E+00  0.00000000000E+00  0.83840675325E+03  0.83840675325E+03  0.00000000000E+00 0. -1.
         21   -1    0    0  501  502 -0.00000000000E+00 -0.00000000000E+00 -0.61261000325E+02  0.61261000325E+02  0.00000000000E+00 0. -1.
      99926    2    1    2    0    0 -0.71054273576E-14 -0.88817841970E-15  0.77714575292E+03  0.89966775357E+03  0.45326211570E+03 0.  0.
      99925    2    3    3    0    0 -0.38293474984E+02  0.47373356395E+01  0.28215389122E+03  0.38765868742E+03  0.26302016467E+03 0.  0.
         25    1    4    4    0    0  0.94306795734E+01 -0.23452852800E+02  0.15604957169E+03  0.20158856849E+03  0.12509000000E+03 0.  0.
         25    1    4    4    0    0 -0.47724154558E+02  0.28190188440E+02  0.12610431953E+03  0.18607011893E+03  0.12509000000E+03 0.  0.
         25    1    3    3    0    0  0.38293474984E+02 -0.47373356395E+01  0.49499186170E+03  0.51200906616E+03  0.12509000000E+03 0.  0.
<mgrwt>
<rscale>  2 0.45326212E+03</rscale>
<asrwt>0</asrwt>
<pdfrwt beam="1">  1       21 0.12329510E+00 0.45326212E+03</pdfrwt>
<pdfrwt beam="2">  1       21 0.90089711E-02 0.45326212E+03</pdfrwt>
<totfact> 0.43841560E+04</totfact>
</mgrwt>
</event>
<event>
 7    0  0.4775379E-002  0.4565308E+03  0.7546771E-02  0.1025792E+00
         21   -1    0    0  502  501  0.00000000000E+00  0.00000000000E+00  0.49116168893E+02  0.49116168893E+02  0.00000000000E+00 0.  1.
         21   -1    0    0  501  502 -0.00000000000E+00 -0.00000000000E+00 -0.10608543673E+04  0.10608543673E+04  0.00000000000E+00 0.  1.
      99926    2    1    2    0    0  0.88817841970E-15  0.00000000000E+00 -0.10117381984E+04  0.11099705362E+04  0.45653084134E+03 0.  0.
      99925    2    3    3    0    0 -0.31096328118E+01  0.11213618560E+03 -0.69345969010E+03  0.75006372758E+03  0.26291645002E+03 0.  0.
         25    1    4    4    0    0 -0.79838925848E+01  0.24367866420E+02 -0.24532951932E+03  0.27657117819E+03  0.12509000000E+03 0.  0.
         25    1    4    4    0    0  0.48742597730E+01  0.87768319183E+02 -0.44813017078E+03  0.47349254939E+03  0.12509000000E+03 0.  0.
         25    1    3    3    0    0  0.31096328118E+01 -0.11213618560E+03 -0.31827850827E+03  0.35990680859E+03  0.12509000000E+03 0.  0.
<mgrwt>
<rscale>  2 0.45653084E+03</rscale>
<asrwt>0</asrwt>
<pdfrwt beam="1">  1       21 0.72229668E-02 0.45653084E+03</pdfrwt>
<pdfrwt beam="2">  1       21 0.15600798E+00 0.45653084E+03</pdfrwt>
<totfact> 0.34730822E+04</totfact>
</mgrwt>
</event>
<event>
 7    0  0.4775379E-002  0.4038575E+03  0.7546771E-02  0.1042452E+00
         21   -1    0    0  502  501  0.00000000000E+00  0.00000000000E+00  0.12792153631E+03  0.12792153631E+03  0.00000000000E+00 0.  1.
         21   -1    0    0  501  502 -0.00000000000E+00 -0.00000000000E+00 -0.31875177723E+03  0.31875177723E+03  0.00000000000E+00 0.  1.
      99926    2    1    2    0    0  0.00000000000E+00  0.00000000000E+00 -0.19083024092E+03  0.44667331354E+03  0.40385748499E+03 0.  0.
      99925    2    3    3    0    0  0.32753735550E+02  0.22193526808E+02 -0.88497337606E+02  0.28028554047E+03  0.26298829938E+03 0.  0.
         25    1    4    4    0    0 -0.29427843802E+01  0.25858492375E+02 -0.78072114460E+02  0.14973337892E+03  0.12509000000E+03 0.  0.
         25    1    4    4    0    0  0.35696519931E+02 -0.36649655670E+01 -0.10425223146E+02  0.13055216155E+03  0.12509000000E+03 0.  0.
         25    1    3    3    0    0 -0.32753735550E+02 -0.22193526808E+02 -0.10233290332E+03  0.16638777307E+03  0.12509000000E+03 0.  0.
<mgrwt>
<rscale>  2 0.40385748E+03</rscale>
<asrwt>0</asrwt>
<pdfrwt beam="1">  1       21 0.18811991E-01 0.40385748E+03</pdfrwt>
<pdfrwt beam="2">  1       21 0.46875261E-01 0.40385748E+03</pdfrwt>
<totfact> 0.10620238E+05</totfact>
</mgrwt>
</event>
<event>
 7    0  0.4775379E-002  0.4446653E+03  0.7546771E-02  0.1029325E+00
         21   -1    0    0  502  501  0.00000000000E+00  0.00000000000E+00  0.26083272751E+03  0.26083272751E+03  0.00000000000E+00 0. -1.
         21   -1    0    0  501  502 -0.00000000000E+00 -0.00000000000E+00 -0.18951537997E+03  0.18951537997E+03  0.00000000000E+00 0. -1.
      99926    2    1    2    0    0  0.71054273576E-14 -0.14210854715E-13  0.71317347537E+02  0.45034810749E+03  0.44466532792E+03 0.  0.
      99925    2    3    3    0    0 -0.52389537919E+02  0.88084988827E+02  0.32106376514E+02  0.28394907718E+03  0.26285476993E+03 0.  0.
         25    1    4    4    0    0  0.10137358605E+02  0.39240785229E+02  0.33958991798E+02  0.13580620932E+03  0.12509000000E+03 0.  0.
         25    1    3    3    0    0  0.52389537919E+02 -0.88084988827E+02  0.39210971023E+02  0.16639903031E+03  0.12509000000E+03 0.  0.
         25    1    4    4    0    0 -0.62526896524E+02  0.48844203598E+02 -0.18526152842E+01  0.14814286786E+03  0.12509000000E+03 0.  0.
<mgrwt>
<rscale>  2 0.44466533E+03</rscale>
<asrwt>0</asrwt>
<pdfrwt beam="1">  1       21 0.38357754E-01 0.44466533E+03</pdfrwt>
<pdfrwt beam="2">  1       21 0.27869909E-01 0.44466533E+03</pdfrwt>
<totfact> 0.74872615E+04</totfact>
</mgrwt>
</event>
<event>
 7    0  0.4775379E-002  0.4496212E+03  0.7546771E-02  0.1027835E+00
         21   -1    0    0  502  501  0.00000000000E+00  0.00000000000E+00  0.92363405049E+02  0.92363405049E+02  0.00000000000E+00 0.  1.
         21   -1    0    0  501  502 -0.00000000000E+00 -0.00000000000E+00 -0.54718442540E+03  0.54718442540E+03  0.00000000000E+00 0.  1.
      99926    2    1    2    0    0  0.00000000000E+00  0.35527136788E-14 -0.45482102035E+03  0.63954783045E+03  0.44962124825E+03 0.  0.
      99925    2    3    3    0    0 -0.90066525990E+01 -0.24604572444E+02 -0.13897925170E+03  0.29882795181E+03  0.26324210834E+03 0.  0.
         25    1    4    4    0    0 -0.21597627372E+02  0.12700282633E+02 -0.99761535609E+02  0.16194945747E+03  0.12509000000E+03 0.  0.
         25    1    3    3    0    0  0.90066525990E+01  0.24604572444E+02 -0.31584176865E+03  0.34071987864E+03  0.12509000000E+03 0.  0.
         25    1    4    4    0    0  0.12590974773E+02 -0.37304855077E+02 -0.39217716094E+02  0.13687849434E+03  0.12509000000E+03 0.  0.
<mgrwt>
<rscale>  2 0.44962125E+03</rscale>
<asrwt>0</asrwt>
<pdfrwt beam="1">  1       21 0.13582854E-01 0.44962125E+03</pdfrwt>
<pdfrwt beam="2">  1       21 0.80468298E-01 0.44962125E+03</pdfrwt>
<totfact> 0.58762448E+04</totfact>
</mgrwt>
</event>
<event>
 7    0  0.4775379E-002  0.4641554E+03  0.7546771E-02  0.1023583E+00
         21   -1    0    0  502  501  0.00000000000E+00  0.00000000000E+00  0.12537224511E+03  0.12537224511E+03  0.00000000000E+00 0. -1.
         21   -1    0    0  501  502 -0.00000000000E+00 -0.00000000000E+00 -0.42960117090E+03  0.42960117090E+03  0.00000000000E+00 0. -1.
      99926    2    1    2    0    0  0.00000000000E+00  0.00000000000E+00 -0.30422892579E+03  0.55497341600E+03  0.46415541921E+03 0.  0.
      99925    2    3    3    0    0  0.90003376850E+02 -0.47262249752E+01 -0.92396760510E+02  0.29297471487E+03  0.26300965221E+03 0.  0.
         25    1    4    4    0    0  0.47218545298E+02 -0.23389860979E+02 -0.10049808746E+02  0.13610724952E+03  0.12509000000E+03 0.  0.
         25    1    4    4    0    0  0.42784831552E+02  0.18663636004E+02 -0.82346951764E+02  0.15686746535E+03  0.12509000000E+03 0.  0.
         25    1    3    3    0    0 -0.90003376850E+02  0.47262249752E+01 -0.21183216528E+03  0.26199870113E+03  0.12509000000E+03 0.  0.
<mgrwt>
<rscale>  2 0.46415542E+03</rscale>
<asrwt>0</asrwt>
<pdfrwt beam="1">  1       21 0.18437095E-01 0.46415542E+03</pdfrwt>
<pdfrwt beam="2">  1       21 0.63176643E-01 0.46415542E+03</pdfrwt>
<totfact> 0.57276445E+04</totfact>
</mgrwt>
</event>
<event>
 7    0  0.4775379E-002  0.4566754E+03  0.7546771E-02  0.1025750E+00
         21   -1    0    0  502  501  0.00000000000E+00  0.00000000000E+00  0.54650353373E+02  0.54650353373E+02  0.00000000000E+00 0. -1.
         21   -1    0    0  501  502 -0.00000000000E+00 -0.00000000000E+00 -0.95403065087E+03  0.95403065087E+03  0.00000000000E+00 0. -1.
      99926    2    1    2    0    0  0.00000000000E+00  0.71054273576E-14 -0.89938029749E+03  0.10086810042E+04  0.45667543047E+03 0.  0.
      99925    2    3    3    0    0  0.78667643029E+02  0.62386358976E+02 -0.68771688302E+03  0.74310697506E+03  0.26300724201E+03 0.  0.
         25    1    3    3    0    0 -0.78667643029E+02 -0.62386358976E+02 -0.21166341447E+03  0.26557402917E+03  0.12509000000E+03 0.  0.
         25    1    4    4    0    0  0.20534708711E+02  0.43325016492E+01 -0.38614044709E+03  0.40643867657E+03  0.12509000000E+03 0.  0.
         25    1    4    4    0    0  0.58132934318E+02  0.58053857327E+02 -0.30157643593E+03  0.33666829850E+03  0.12509000000E+03 0.  0.
<mgrwt>
<rscale>  2 0.45667543E+03</rscale>
<asrwt>0</asrwt>
<pdfrwt beam="1">  1       21 0.80368172E-02 0.45667543E+03</pdfrwt>
<pdfrwt beam="2">  1       21 0.14029862E+00 0.45667543E+03</pdfrwt>
<totfact> 0.38326921E+04</totfact>
</mgrwt>
</event>
<event>
 7    0  0.4775379E-002  0.4222349E+03  0.7546771E-02  0.1036341E+00
         21   -1    0    0  502  501  0.00000000000E+00  0.00000000000E+00  0.13361835262E+04  0.13361835262E+04  0.00000000000E+00 0. -1.
         21   -1    0    0  501  502 -0.00000000000E+00 -0.00000000000E+00 -0.33356622296E+02  0.33356622296E+02  0.00000000000E+00 0. -1.
      99926    2    1    2    0    0 -0.71054273576E-14  0.00000000000E+00  0.13028269039E+04  0.13695401485E+04  0.42223485977E+03 0.  0.
      99925    2    3    3    0    0 -0.41255364801E+02  0.63300979921E+02  0.77731907151E+03  0.82409078404E+03  0.26304308053E+03 0.  0.
         25    1    3    3    0    0  0.41255364801E+02 -0.63300979921E+02  0.52550783243E+03  0.54544936449E+03  0.12509000000E+03 0.  0.
         25    1    4    4    0    0 -0.55917390074E+02  0.12083173925E+02  0.37653800831E+03  0.40087546371E+03  0.12509000000E+03 0.  0.
         25    1    4    4    0    0  0.14662025273E+02  0.51217805995E+02  0.40078106320E+03  0.42321532032E+03  0.12509000000E+03 0.  0.
<mgrwt>
<rscale>  2 0.42223486E+03</rscale>
<asrwt>0</asrwt>
<pdfrwt beam="1">  1       21 0.19649754E+00 0.42223486E+03</pdfrwt>
<pdfrwt beam="2">  1       21 0.49053865E-02 0.42223486E+03</pdfrwt>
<totfact> 0.35332923E+04</totfact>
</mgrwt>
</event>
<event>
 7    0  0.4775379E-002  0.4512297E+03  0.7546771E-02  0.1027356E+00
         21   -1    0    0  502  501  0.00000000000E+00  0.00000000000E+00  0.36963890992E+02  0.36963890992E+02  0.00000000000E+00 0. -1.
         21   -1    0    0  501  502 -0.00000000000E+00 -0.00000000000E+00 -0.13770754154E+04  0.13770754154E+04  0.00000000000E+00 0. -1.
      99926    2    1    2    0    0 -0.14210854715E-13  0.00000000000E+00 -0.13401115244E+04  0.14140393064E+04  0.45122972217E+03 0.  0.
      99925    2    3    3    0    0  0.78523544298E+02 -0.39545523710E+02 -0.10510310097E+04  0.10870150756E+04  0.26306994455E+03 0.  0.
         25    1    4    4    0    0  0.75254700254E+02 -0.45334071937E+01 -0.60998075182E+03  0.62722232691E+03  0.12509000000E+03 0.  0.
         25    1    4    4    0    0  0.32688440439E+01 -0.35012116517E+02 -0.44105025793E+03  0.45979274871E+03  0.12509000000E+03 0.  0.
         25    1    3    3    0    0 -0.78523544298E+02  0.39545523710E+02 -0.28908051466E+03  0.32702423077E+03  0.12509000000E+03 0.  0.
<mgrwt>
<rscale>  2 0.45122972E+03</rscale>
<asrwt>0</asrwt>
<pdfrwt beam="1">  1       21 0.54358670E-02 0.45122972E+03</pdfrwt>
<pdfrwt beam="2">  1       21 0.20251106E+00 0.45122972E+03</pdfrwt>
<totfact> 0.26735024E+04</totfact>
</mgrwt>
</event>
<event>
 7    0  0.4775379E-002  0.4553654E+03  0.7546771E-02  0.1026134E+00
         21   -1    0    0  502  501  0.00000000000E+00  0.00000000000E+00  0.38885159547E+03  0.38885159547E+03  0.00000000000E+00 0. -1.
         21   -1    0    0  501  502 -0.00000000000E+00 -0.00000000000E+00 -0.13331412791E+03  0.13331412791E+03  0.00000000000E+00 0. -1.
      99926    2    1    2    0    0  0.71054273576E-14  0.00000000000E+00  0.25553746756E+03  0.52216572337E+03  0.45536539761E+03 0.  0.
      99925    2    3    3    0    0 -0.52577218841E+02 -0.10039981987E+03  0.15302729495E+03  0.32468070784E+03  0.26297475406E+03 0.  0.
         25    1    4    4    0    0 -0.34318835744E+01 -0.52117104208E+02  0.11270635740E+03  0.17629010600E+03  0.12509000000E+03 0.  0.
         25    1    4    4    0    0 -0.49145335267E+02 -0.48282715659E+02  0.40320937552E+02  0.14839060184E+03  0.12509000000E+03 0.  0.
         25    1    3    3    0    0  0.52577218841E+02  0.10039981987E+03  0.10251017261E+03  0.19748501553E+03  0.12509000000E+03 0.  0.
<mgrwt>
<rscale>  2 0.45536540E+03</rscale>
<asrwt>0</asrwt>
<pdfrwt beam="1">  1       21 0.57184058E-01 0.45536540E+03</pdfrwt>
<pdfrwt beam="2">  1       21 0.19605019E-01 0.45536540E+03</pdfrwt>
<totfact> 0.63555496E+04</totfact>
</mgrwt>
</event>
<event>
 7    0  0.4775379E-002  0.4393004E+03  0.7546771E-02  0.1030962E+00
         21   -1    0    0  502  501  0.00000000000E+00  0.00000000000E+00  0.12455212773E+03  0.12455212773E+03  0.00000000000E+00 0.  1.
         21   -1    0    0  501  502 -0.00000000000E+00 -0.00000000000E+00 -0.38735761329E+03  0.38735761329E+03  0.00000000000E+00 0.  1.
      99926    2    1    2    0    0 -0.71054273576E-14  0.00000000000E+00 -0.26280548557E+03  0.51190974102E+03  0.43930042079E+03 0.  0.
      99925    2    3    3    0    0  0.52254676559E+02  0.49881039531E+02 -0.24464972089E+03  0.36632193515E+03  0.26290607621E+03 0.  0.
         25    1    4    4    0    0 -0.11318803832E+02  0.77201091309E+01 -0.12158616650E+03  0.17498119725E+03  0.12509000000E+03 0.  0.
         25    1    4    4    0    0  0.63573480391E+02  0.42160930401E+02 -0.12306355439E+03  0.19134073790E+03  0.12509000000E+03 0.  0.
         25    1    3    3    0    0 -0.52254676559E+02 -0.49881039531E+02 -0.18155764675E+02  0.14558780587E+03  0.12509000000E+03 0.  0.
<mgrwt>
<rscale>  2 0.43930042E+03</rscale>
<asrwt>0</asrwt>
<pdfrwt beam="1">  1       21 0.18316489E-01 0.43930042E+03</pdfrwt>
<pdfrwt beam="2">  1       21 0.56964356E-01 0.43930042E+03</pdfrwt>
<totfact> 0.73132613E+04</totfact>
</mgrwt>
</event>
<event>
 7    0  0.4775379E-002  0.4578463E+03  0.7546771E-02  0.1025408E+00
         21   -1    0    0  502  501  0.00000000000E+00  0.00000000000E+00  0.76029769096E+03  0.76029769096E+03  0.00000000000E+00 0. -1.
         21   -1    0    0  501  502 -0.00000000000E+00 -0.00000000000E+00 -0.68928000031E+02  0.68928000031E+02  0.00000000000E+00 0. -1.
      99926    2    1    2    0    0  0.00000000000E+00  0.00000000000E+00  0.69136969093E+03  0.82922569099E+03  0.45784625920E+03 0.  0.
      99925    2    3    3    0    0 -0.66338095455E+01 -0.10494382035E+03  0.34584525222E+03  0.44700604379E+03  0.26296055188E+03 0.  0.
         25    1    4    4    0    0 -0.22288594519E+01 -0.14335182558E+02  0.12468847317E+03  0.17721509167E+03  0.12509000000E+03 0.  0.
         25    1    4    4    0    0 -0.44049500936E+01 -0.90608637793E+02  0.22115677905E+03  0.26979095212E+03  0.12509000000E+03 0.  0.
         25    1    3    3    0    0  0.66338095455E+01  0.10494382035E+03  0.34552443871E+03  0.38221964720E+03  0.12509000000E+03 0.  0.
<mgrwt>
<rscale>  2 0.45784626E+03</rscale>
<asrwt>0</asrwt>
<pdfrwt beam="1">  1       21 0.11180848E+00 0.45784626E+03</pdfrwt>
<pdfrwt beam="2">  1       21 0.10136471E-01 0.45784626E+03</pdfrwt>
<totfact> 0.45361920E+04</totfact>
</mgrwt>
</event>
<event>
 7    0  0.4775379E-002  0.4447860E+03  0.7546771E-02  0.1029288E+00
         21   -1    0    0  502  501  0.00000000000E+00  0.00000000000E+00  0.54258231273E+02  0.54258231273E+02  0.00000000000E+00 0.  1.
         21   -1    0    0  501  502 -0.00000000000E+00 -0.00000000000E+00 -0.91154188312E+03  0.91154188312E+03  0.00000000000E+00 0.  1.
      99926    2    1    2    0    0  0.35527136788E-14  0.00000000000E+00 -0.85728365185E+03  0.96580011439E+03  0.44478601736E+03 0.  0.
      99925    2    3    3    0    0  0.30294828478E+02 -0.46788482480E+02 -0.35584675223E+03  0.44599879550E+03  0.26302295677E+03 0.  0.
         25    1    4    4    0    0 -0.93903407964E+01 -0.55698889991E+02 -0.17639863577E+03  0.22350510430E+03  0.12509000000E+03 0.  0.
         25    1    4    4    0    0  0.39685169274E+02  0.89104075107E+01 -0.17944811646E+03  0.22249369120E+03  0.12509000000E+03 0.  0.
         25    1    3    3    0    0 -0.30294828478E+02  0.46788482480E+02 -0.50143689962E+03  0.51980131890E+03  0.12509000000E+03 0.  0.
<mgrwt>
<rscale>  2 0.44478602E+03</rscale>
<asrwt>0</asrwt>
<pdfrwt beam="1">  1       21 0.79791525E-02 0.44478602E+03</pdfrwt>
<pdfrwt beam="2">  1       21 0.13405026E+00 0.44478602E+03</pdfrwt>
<totfact> 0.43910605E+04</totfact>
</mgrwt>
</event>
<event>
 7    0  0.4775379E-002  0.4576861E+03  0.7546771E-02  0.1025454E+00
         21   -1    0    0  502  501  0.00000000000E+00  0.00000000000E+00  0.27145919630E+03  0.27145919630E+03  0.00000000000E+00 0.  1.
         21   -1    0    0  501  502 -0.00000000000E+00 -0.00000000000E+00 -0.19291720100E+03  0.19291720100E+03  0.00000000000E+00 0.  1.
      99926    2    1    2    0    0  0.00000000000E+00  0.00000000000E+00  0.78541995298E+02  0.46437639731E+03  0.45768612973E+03 0.  0.
      99925    2    3    3    0    0 -0.89056966662E+02 -0.64170033887E+02  0.12160979352E+02  0.28520362053E+03  0.26295299805E+03 0.  0.
         25    1    4    4    0    0 -0.14381711775E+02 -0.51960181849E+00  0.27990861361E+01  0.12594620519E+03  0.12509000000E+03 0.  0.
         25    1    3    3    0    0  0.89056966662E+02  0.64170033887E+02  0.66381015946E+02  0.17917277678E+03  0.12509000000E+03 0.  0.
         25    1    4    4    0    0 -0.74675254887E+02 -0.63650432068E+02  0.93618932164E+01  0.15925741534E+03  0.12509000000E+03 0.  0.
<mgrwt>
<rscale>  2 0.45768613E+03</rscale>
<asrwt>0</asrwt>
<pdfrwt beam="1">  1       21 0.39920470E-01 0.45768613E+03</pdfrwt>
<pdfrwt beam="2">  1       21 0.28370177E-01 0.45768613E+03</pdfrwt>
<totfact> 0.66426635E+04</totfact>
</mgrwt>
</event>
<event>
 7    0  0.4775379E-002  0.4542261E+03  0.7546771E-02  0.1026469E+00
         21   -1    0    0  502  501  0.00000000000E+00  0.00000000000E+00  0.23301466602E+03  0.23301466602E+03  0.00000000000E+00 0. -1.
         21   -1    0    0  501  502 -0.00000000000E+00 -0.00000000000E+00 -0.22136092934E+03  0.22136092934E+03  0.00000000000E+00 0. -1.
      99926    2    1    2    0    0  0.71054273576E-14 -0.71054273576E-14  0.11653736681E+02  0.45437559536E+03  0.45422612439E+03 0.  0.
      99925    2    3    3    0    0  0.33120784861E+02 -0.60684540999E+02 -0.81451139445E+02  0.28380119527E+03  0.26292438155E+03 0.  0.
         25    1    3    3    0    0 -0.33120784861E+02  0.60684540999E+02  0.93104876126E+02  0.17057440009E+03  0.12509000000E+03 0.  0.
         25    1    4    4    0    0 -0.23718331242E+02 -0.22935695202E+02 -0.37947602449E+02  0.13481889327E+03  0.12509000000E+03 0.  0.
         25    1    4    4    0    0  0.56839116103E+02 -0.37748845797E+02 -0.43503536996E+02  0.14898230200E+03  0.12509000000E+03 0.  0.
<mgrwt>
<rscale>  2 0.45422612E+03</rscale>
<asrwt>0</asrwt>
<pdfrwt beam="1">  1       21 0.34266863E-01 0.45422612E+03</pdfrwt>
<pdfrwt beam="2">  1       21 0.32553078E-01 0.45422612E+03</pdfrwt>
<totfact> 0.69016741E+04</totfact>
</mgrwt>
</event>
<event>
 7    0  0.4775379E-002  0.4514694E+03  0.7546771E-02  0.1027285E+00
         21   -1    0    0  502  501  0.00000000000E+00  0.00000000000E+00  0.33832268056E+02  0.33832268056E+02  0.00000000000E+00 0. -1.
         21   -1    0    0  501  502 -0.00000000000E+00 -0.00000000000E+00 -0.15061408077E+04  0.15061408077E+04  0.00000000000E+00 0. -1.
      99926    2    1    2    0    0 -0.71054273576E-14  0.00000000000E+00 -0.14723085396E+04  0.15399730758E+04  0.45146942105E+03 0.  0.
      99925    2    3    3    0    0 -0.36212449871E+02 -0.85534475991E+02 -0.73098971081E+03  0.78245832198E+03  0.26318734812E+03 0.  0.
         25    1    3    3    0    0  0.36212449871E+02  0.85534475991E+02 -0.74131882883E+03  0.75751475378E+03  0.12509000000E+03 0.  0.
         25    1    4    4    0    0  0.22412995448E+01 -0.41741986217E+02 -0.25812152047E+03  0.28986487243E+03  0.12509000000E+03 0.  0.
         25    1    4    4    0    0 -0.38453749416E+02 -0.43792489774E+02 -0.47286819035E+03  0.49259344956E+03  0.12509000000E+03 0.  0.
<mgrwt>
<rscale>  2 0.45146942E+03</rscale>
<asrwt>0</asrwt>
<pdfrwt beam="1">  1       21 0.49753336E-02 0.45146942E+03</pdfrwt>
<pdfrwt beam="2">  1       21 0.22149129E+00 0.45146942E+03</pdfrwt>
<totfact> 0.23452772E+04</totfact>
</mgrwt>
</event>
<event>
 7    0  0.4775379E-002  0.4530444E+03  0.7546771E-02  0.1026818E+00
         21   -1    0    0  502  501  0.00000000000E+00  0.00000000000E+00  0.25433573614E+03  0.25433573614E+03  0.00000000000E+00 0. -1.
         21   -1    0    0  501  502 -0.00000000000E+00 -0.00000000000E+00 -0.20175028315E+03  0.20175028315E+03  0.00000000000E+00 0. -1.
      99926    2    1    2    0    0  0.14210854715E-13  0.00000000000E+00  0.52585452995E+02  0.45608601929E+03  0.45304439863E+03 0.  0.
      99925    2    3    3    0    0  0.10315935023E+03  0.29112174529E+02  0.63534757437E+02  0.29098978792E+03  0.26296201441E+03 0.  0.
         25    1    4    4    0    0  0.82965628586E+02 -0.10306242197E+02  0.22763574658E+02  0.15216833634E+03  0.12509000000E+03 0.  0.
         25    1    3    3    0    0 -0.10315935023E+03 -0.29112174529E+02 -0.10949304443E+02  0.16509623138E+03  0.12509000000E+03 0.  0.
         25    1    4    4    0    0  0.20193721649E+02  0.39418416725E+02  0.40771182780E+02  0.13882145157E+03  0.12509000000E+03 0.  0.
<mgrwt>
<rscale>  2 0.45304440E+03</rscale>
<asrwt>0</asrwt>
<pdfrwt beam="1">  1       21 0.37402314E-01 0.45304440E+03</pdfrwt>
<pdfrwt beam="2">  1       21 0.29669159E-01 0.45304440E+03</pdfrwt>
<totfact> 0.69544980E+04</totfact>
</mgrwt>
</event>
<event>
 7    0  0.4775379E-002  0.4506932E+03  0.7546771E-02  0.1027516E+00
         21   -1    0    0  502  501  0.00000000000E+00  0.00000000000E+00  0.30253739222E+03  0.30253739222E+03  0.00000000000E+00 0. -1.
         21   -1    0    0  501  502 -0.00000000000E+00 -0.00000000000E+00 -0.16785062958E+03  0.16785062958E+03  0.00000000000E+00 0. -1.
      99926    2    1    2    0    0  0.35527136788E-14  0.00000000000E+00  0.13468676263E+03  0.47038802180E+03  0.45069320721E+03 0.  0.
      99925    2    3    3    0    0  0.26985020714E+02  0.68998774001E+02  0.16842015238E+03  0.32114167565E+03  0.26320639421E+03 0.  0.
         25    1    4    4    0    0  0.49713063353E+02  0.52456891716E+02  0.10113404786E+03  0.17634828577E+03  0.12509000000E+03 0.  0.
         25    1    4    4    0    0 -0.22728042639E+02  0.16541882286E+02  0.67286104524E+02  0.14479338988E+03  0.12509000000E+03 0.  0.
         25    1    3    3    0    0 -0.26985020714E+02 -0.68998774001E+02 -0.33733389748E+02  0.14924634615E+03  0.12509000000E+03 0.  0.
<mgrwt>
<rscale>  2 0.45069321E+03</rscale>
<asrwt>0</asrwt>
<pdfrwt beam="1">  1       21 0.44490793E-01 0.45069321E+03</pdfrwt>
<pdfrwt beam="2">  1       21 0.24683916E-01 0.45069321E+03</pdfrwt>
<totfact> 0.69760452E+04</totfact>
</mgrwt>
</event>
<event>
 7    0  0.4775379E-002  0.4539096E+03  0.7546771E-02  0.1026563E+00
         21   -1    0    0  502  501  0.00000000000E+00  0.00000000000E+00  0.94096823869E+02  0.94096823869E+02  0.00000000000E+00 0. -1.
         21   -1    0    0  501  502 -0.00000000000E+00 -0.00000000000E+00 -0.54739863106E+03  0.54739863106E+03  0.00000000000E+00 0. -1.
      99926    2    1    2    0    0  0.00000000000E+00  0.00000000000E+00 -0.45330180719E+03  0.64149545493E+03  0.45390956180E+03 0.  0.
      99925    2    3    3    0    0  0.12442314053E+02 -0.27899319470E+02 -0.43803158772E+03  0.51182714381E+03  0.26298701507E+03 0.  0.
         25    1    4    4    0    0  0.10546637403E+02  0.25957727495E+02 -0.22575202705E+03  0.25960839932E+03  0.12509000000E+03 0.  0.
         25    1    4    4    0    0  0.18956766492E+01 -0.53857046965E+02 -0.21227956067E+03  0.25221874450E+03  0.12509000000E+03 0.  0.
         25    1    3    3    0    0 -0.12442314053E+02  0.27899319470E+02 -0.15270219473E+02  0.12966831112E+03  0.12509000000E+03 0.  0.
<mgrwt>
<rscale>  2 0.45390956E+03</rscale>
<asrwt>0</asrwt>
<pdfrwt beam="1">  1       21 0.13837769E-01 0.45390956E+03</pdfrwt>
<pdfrwt beam="2">  1       21 0.80499797E-01 0.45390956E+03</pdfrwt>
<totfact> 0.56680259E+04</totfact>
</mgrwt>
</event>
<event>
 7    0  0.4775379E-002  0.4499571E+03  0.7546771E-02  0.1027735E+00
         21   -1    0    0  502  501  0.00000000000E+00  0.00000000000E+00  0.85404551155E+02  0.85404551155E+02  0.00000000000E+00 0. -1.
         21   -1    0    0  501  502 -0.00000000000E+00 -0.00000000000E+00 -0.59265402347E+03  0.59265402347E+03  0.00000000000E+00 0. -1.
      99926    2    1    2    0    0  0.35527136788E-14  0.00000000000E+00 -0.50724947231E+03  0.67805857462E+03  0.44995711291E+03 0.  0.
      99925    2    3    3    0    0  0.23979251567E+02 -0.68847502341E+02 -0.19978975479E+03  0.33821453821E+03  0.26297936165E+03 0.  0.
         25    1    4    4    0    0 -0.64442420150E+01 -0.10611267843E+02 -0.59402682930E+02  0.13903349992E+03  0.12509000000E+03 0.  0.
         25    1    4    4    0    0  0.30423493582E+02 -0.58236234498E+02 -0.14038707186E+03  0.19918103829E+03  0.12509000000E+03 0.  0.
         25    1    3    3    0    0 -0.23979251567E+02  0.68847502341E+02 -0.30745971752E+03  0.33984403641E+03  0.12509000000E+03 0.  0.
<mgrwt>
<rscale>  2 0.44995711E+03</rscale>
<asrwt>0</asrwt>
<pdfrwt beam="1">  1       21 0.12559493E-01 0.44995711E+03</pdfrwt>
<pdfrwt beam="2">  1       21 0.87155002E-01 0.44995711E+03</pdfrwt>
<totfact> 0.56314163E+04</totfact>
</mgrwt>
</event>
<event>
 7    0  0.4775379E-002  0.4532241E+03  0.7546771E-02  0.1026765E+00
         21   -1    0    0  502  501  0.00000000000E+00  0.00000000000E+00  0.19010871488E+03  0.19010871488E+03  0.00000000000E+00 0. -1.
         21   -1    0    0  501  502 -0.00000000000E+00 -0.00000000000E+00 -0.27012450339E+03  0.27012450339E+03  0.00000000000E+00 0. -1.
      99926    2    1    2    0    0  0.00000000000E+00  0.00000000000E+00 -0.80015788510E+02  0.46023321828E+03  0.45322410439E+03 0.  0.
      99925    2    3    3    0    0  0.12419047930E+02 -0.83453164076E+02  0.23626478137E+02  0.27718161113E+03  0.26296914597E+03 0.  0.
         25    1    4    4    0    0 -0.48271990567E+01 -0.42166180389E+02 -0.27332178098E+02  0.13489197411E+03  0.12509000000E+03 0.  0.
         25    1    3    3    0    0 -0.12419047930E+02  0.83453164076E+02 -0.10364226665E+03  0.18305160715E+03  0.12509000000E+03 0.  0.
         25    1    4    4    0    0  0.17246246987E+02 -0.41286983687E+02  0.50958656235E+02  0.14228963702E+03  0.12509000000E+03 0.  0.
<mgrwt>
<rscale>  2 0.45322410E+03</rscale>
<asrwt>0</asrwt>
<pdfrwt beam="1">  1       21 0.27957164E-01 0.45322410E+03</pdfrwt>
<pdfrwt beam="2">  1       21 0.39724191E-01 0.45322410E+03</pdfrwt>
<totfact> 0.69136291E+04</totfact>
</mgrwt>
</event>
<event>
 7    0  0.4775379E-002  0.4520985E+03  0.7546771E-02  0.1027098E+00
         21   -1    0    0  502  501  0.00000000000E+00  0.00000000000E+00  0.32493005559E+02  0.32493005559E+02  0.00000000000E+00 0.  1.
         21   -1    0    0  501  502 -0.00000000000E+00 -0.00000000000E+00 -0.15725924354E+04  0.15725924354E+04  0.00000000000E+00 0.  1.
      99926    2    1    2    0    0  0.00000000000E+00  0.17763568394E-14 -0.15400994298E+04  0.16050854409E+04  0.45209846160E+03 0.  0.
      99925    2    3    3    0    0 -0.28207195231E+02 -0.14312647367E+02 -0.13473242545E+04  0.13731150246E+04  0.26298617125E+03 0.  0.
         25    1    4    4    0    0 -0.19177502450E+02  0.23437158666E+02 -0.53257893670E+03  0.54790958097E+03  0.12509000000E+03 0.  0.
         25    1    4    4    0    0 -0.90296927809E+01 -0.37749806033E+02 -0.81474531781E+03  0.82520544363E+03  0.12509000000E+03 0.  0.
         25    1    3    3    0    0  0.28207195231E+02  0.14312647367E+02 -0.19277517531E+03  0.23197041633E+03  0.12509000000E+03 0.  0.
<mgrwt>
<rscale>  2 0.45209846E+03</rscale>
<asrwt>0</asrwt>
<pdfrwt beam="1">  1       21 0.47783809E-02 0.45209846E+03</pdfrwt>
<pdfrwt beam="2">  1       21 0.23126370E+00 0.45209846E+03</pdfrwt>
<totfact> 0.21802182E+04</totfact>
</mgrwt>
</event>
<event>
 7    0  0.4775379E-002  0.4523970E+03  0.7546771E-02  0.1027010E+00
         21   -1    0    0  502  501  0.00000000000E+00  0.00000000000E+00  0.87295161516E+02  0.87295161516E+02  0.00000000000E+00 0. -1.
         21   -1    0    0  501  502 -0.00000000000E+00 -0.00000000000E+00 -0.58612357229E+03  0.58612357229E+03  0.00000000000E+00 0. -1.
      99926    2    1    2    0    0  0.35527136788E-14 -0.35527136788E-14 -0.49882841077E+03  0.67341873380E+03  0.45239695804E+03 0.  0.
      99925    2    3    3    0    0 -0.25640813190E+02 -0.17704439713E+02 -0.47254789901E+03  0.54185478781E+03  0.26331387302E+03 0.  0.
         25    1    3    3    0    0  0.25640813190E+02  0.17704439713E+02 -0.26280511756E+02  0.13156394599E+03  0.12509000000E+03 0.  0.
         25    1    4    4    0    0 -0.48438340417E+02 -0.19638696157E+02 -0.28016092653E+03  0.31123882158E+03  0.12509000000E+03 0.  0.
         25    1    4    4    0    0  0.22797527226E+02  0.19342564444E+01 -0.19238697249E+03  0.23061596623E+03  0.12509000000E+03 0.  0.
<mgrwt>
<rscale>  2 0.45239696E+03</rscale>
<asrwt>0</asrwt>
<pdfrwt beam="1">  1       21 0.12837524E-01 0.45239696E+03</pdfrwt>
<pdfrwt beam="2">  1       21 0.86194644E-01 0.45239696E+03</pdfrwt>
<totfact> 0.55499894E+04</totfact>
</mgrwt>
</event>
<event>
 7    0  0.4775379E-002  0.4012032E+03  0.7546771E-02  0.1043364E+00
         21   -1    0    0  502  501  0.00000000000E+00  0.00000000000E+00  0.13490674892E+03  0.13490674892E+03  0.00000000000E+00 0. -1.
         21   -1    0    0  501  502 -0.00000000000E+00 -0.00000000000E+00 -0.29828754077E+03  0.29828754077E+03  0.00000000000E+00 0. -1.
      99926    2    1    2    0    0  0.00000000000E+00  0.31086244690E-14 -0.16338079185E+03  0.43319428969E+03  0.40120320222E+03 0.  0.
      99925    2    3    3    0    0 -0.48802021672E+02  0.84052024863E+00 -0.10324308253E+03  0.28606714747E+03  0.26228407306E+03 0.  0.
         25    1    3    3    0    0  0.48802021672E+02 -0.84052024863E+00 -0.60137709327E+02  0.14712714222E+03  0.12509000000E+03 0.  0.
         25    1    4    4    0    0 -0.40146462316E+02  0.36574514154E+02 -0.55090272903E+02  0.14707780183E+03  0.12509000000E+03 0.  0.
         25    1    4    4    0    0 -0.86555593565E+01 -0.35733993905E+02 -0.48152809623E+02  0.13898934564E+03  0.12509000000E+03 0.  0.
<mgrwt>
<rscale>  2 0.40120320E+03</rscale>
<asrwt>0</asrwt>
<pdfrwt beam="1">  1       21 0.19839228E-01 0.40120320E+03</pdfrwt>
<pdfrwt beam="2">  1       21 0.43865813E-01 0.40120320E+03</pdfrwt>
<totfact> 0.11039338E+05</totfact>
</mgrwt>
</event>
<event>
 7    0  0.4775379E-002  0.4541027E+03  0.7546771E-02  0.1026506E+00
         21   -1    0    0  502  501  0.00000000000E+00  0.00000000000E+00  0.25350623359E+03  0.25350623359E+03  0.00000000000E+00 0. -1.
         21   -1    0    0  501  502 -0.00000000000E+00 -0.00000000000E+00 -0.20335721599E+03  0.20335721599E+03  0.00000000000E+00 0. -1.
      99926    2    1    2    0    0  0.00000000000E+00  0.71054273576E-14  0.50149017606E+02  0.45686344958E+03  0.45410272802E+03 0.  0.
      99925    2    3    3    0    0  0.28067547800E+02 -0.59740436204E+02  0.12300569178E+03  0.29776502084E+03  0.26301501947E+03 0.  0.
         25    1    4    4    0    0  0.45048322918E+01 -0.65671631530E+02  0.44935164814E+02  0.14832307251E+03  0.12509000000E+03 0.  0.
         25    1    3    3    0    0 -0.28067547800E+02  0.59740436204E+02 -0.72856674169E+02  0.15909842874E+03  0.12509000000E+03 0.  0.
         25    1    4    4    0    0  0.23562715508E+02  0.59311953260E+01  0.78070526961E+02  0.14944194833E+03  0.12509000000E+03 0.  0.
<mgrwt>
<rscale>  2 0.45410273E+03</rscale>
<asrwt>0</asrwt>
<pdfrwt beam="1">  1       21 0.37280328E-01 0.45410273E+03</pdfrwt>
<pdfrwt beam="2">  1       21 0.29905473E-01 0.45410273E+03</pdfrwt>
<totfact> 0.68901373E+04</totfact>
</mgrwt>
</event>
<event>
 7    0  0.4775379E-002  0.4501906E+03  0.7546771E-02  0.1027665E+00
         21   -1    0    0  502  501  0.00000000000E+00  0.00000000000E+00  0.25012965405E+03  0.25012965405E+03  0.00000000000E+00 0.  1.
         21   -1    0    0  501  502 -0.00000000000E+00 -0.00000000000E+00 -0.20256653379E+03  0.20256653379E+03  0.00000000000E+00 0.  1.
      99926    2    1    2    0    0  0.14210854715E-13  0.00000000000E+00  0.47563120261E+02  0.45269618783E+03  0.45019061304E+03 0.  0.
      99925    2    3    3    0    0 -0.76076370247E+02 -0.42420906134E+02  0.95228187873E+02  0.29298828522E+03  0.26303342016E+03 0.  0.
         25    1    4    4    0    0 -0.64724557055E+02 -0.27410484224E+02  0.83340999772E+02  0.16593321932E+03  0.12509000000E+03 0.  0.
         25    1    4    4    0    0 -0.11351813192E+02 -0.15010421910E+02  0.11887188101E+02  0.12705506590E+03  0.12509000000E+03 0.  0.
         25    1    3    3    0    0  0.76076370247E+02  0.42420906134E+02 -0.47665067612E+02  0.15970790261E+03  0.12509000000E+03 0.  0.
<mgrwt>
<rscale>  2 0.45019061E+03</rscale>
<asrwt>0</asrwt>
<pdfrwt beam="1">  1       21 0.36783773E-01 0.45019061E+03</pdfrwt>
<pdfrwt beam="2">  1       21 0.29789196E-01 0.45019061E+03</pdfrwt>
<totfact> 0.71416137E+04</totfact>
</mgrwt>
</event>
<event>
 7    0  0.4775379E-002  0.4561891E+03  0.7546771E-02  0.1025892E+00
         21   -1    0    0  502  501  0.00000000000E+00  0.00000000000E+00  0.75126948693E+02  0.75126948693E+02  0.00000000000E+00 0. -1.
         21   -1    0    0  501  502 -0.00000000000E+00 -0.00000000000E+00 -0.69252276155E+03  0.69252276155E+03  0.00000000000E+00 0. -1.
      99926    2    1    2    0    0  0.35527136788E-14  0.00000000000E+00 -0.61739581285E+03  0.76764971024E+03  0.45618909227E+03 0.  0.
      99925    2    3    3    0    0 -0.14386179722E+02 -0.53540557975E+02 -0.55620939512E+03  0.61776695830E+03  0.26304670693E+03 0.  0.
         25    1    3    3    0    0  0.14386179722E+02  0.53540557975E+02 -0.61186417737E+02  0.14988275195E+03  0.12509000000E+03 0.  0.
         25    1    4    4    0    0  0.26039111023E+02 -0.50122272610E+02 -0.27698709567E+03  0.30912721780E+03  0.12509000000E+03 0.  0.
         25    1    4    4    0    0 -0.40425290745E+02 -0.34182853651E+01 -0.27922229944E+03  0.30863974050E+03  0.12509000000E+03 0.  0.
<mgrwt>
<rscale>  2 0.45618909E+03</rscale>
<asrwt>0</asrwt>
<pdfrwt beam="1">  1       21 0.11048082E-01 0.45618909E+03</pdfrwt>
<pdfrwt beam="2">  1       21 0.10184157E+00 0.45618909E+03</pdfrwt>
<totfact> 0.48911073E+04</totfact>
</mgrwt>
</event>
<event>
 7    0  0.4775379E-002  0.4558662E+03  0.7546771E-02  0.1025987E+00
         21   -1    0    0  502  501  0.00000000000E+00  0.00000000000E+00  0.11388476684E+03  0.11388476684E+03  0.00000000000E+00 0. -1.
         21   -1    0    0  501  502 -0.00000000000E+00 -0.00000000000E+00 -0.45619365580E+03  0.45619365580E+03  0.00000000000E+00 0. -1.
      99926    2    1    2    0    0  0.14210854715E-13  0.00000000000E+00 -0.34230888896E+03  0.57007842264E+03  0.45586624409E+03 0.  0.
      99925    2    3    3    0    0  0.79056243852E+02  0.86002531459E+01 -0.31758470351E+03  0.41980318352E+03  0.26277521753E+03 0.  0.
         25    1    4    4    0    0  0.60796551390E+02 -0.62790129420E+01 -0.21584880335E+03  0.25685377294E+03  0.12509000000E+03 0.  0.
         25    1    3    3    0    0 -0.79056243852E+02 -0.86002531459E+01 -0.24724185455E+02  0.15027523912E+03  0.12509000000E+03 0.  0.
         25    1    4    4    0    0  0.18259692462E+02  0.14879266088E+02 -0.10173590015E+03  0.16294941058E+03  0.12509000000E+03 0.  0.
<mgrwt>
<rscale>  2 0.45586624E+03</rscale>
<asrwt>0</asrwt>
<pdfrwt beam="1">  1       21 0.16747760E-01 0.45586624E+03</pdfrwt>
<pdfrwt beam="2">  1       21 0.67087301E-01 0.45586624E+03</pdfrwt>
<totfact> 0.60145822E+04</totfact>
</mgrwt>
</event>
<event>
 7    0  0.4775379E-002  0.4379997E+03  0.7546771E-02  0.1031362E+00
         21   -1    0    0  502  501  0.00000000000E+00  0.00000000000E+00  0.83294337880E+03  0.83294337880E+03  0.00000000000E+00 0.  1.
         21   -1    0    0  501  502 -0.00000000000E+00 -0.00000000000E+00 -0.57580060245E+02  0.57580060245E+02  0.00000000000E+00 0.  1.
      99926    2    1    2    0    0  0.00000000000E+00  0.00000000000E+00  0.77536331855E+03  0.89052343904E+03  0.43799968006E+03 0.  0.
      99925    2    3    3    0    0 -0.25052708892E+02 -0.25972915231E+02  0.31420152242E+03  0.41133668958E+03  0.26300768992E+03 0.  0.
         25    1    4    4    0    0 -0.25696405250E+02 -0.19942717159E+02  0.10083301153E+03  0.16392931868E+03  0.12509000000E+03 0.  0.
         25    1    4    4    0    0  0.64369635793E+00 -0.60301980724E+01  0.21336851089E+03  0.24740737090E+03  0.12509000000E+03 0.  0.
         25    1    3    3    0    0  0.25052708892E+02  0.25972915231E+02  0.46116179613E+03  0.47918674946E+03  0.12509000000E+03 0.  0.
<mgrwt>
<rscale>  2 0.43799968E+03</rscale>
<asrwt>0</asrwt>
<pdfrwt beam="1">  1       21 0.12249167E+00 0.43799968E+03</pdfrwt>
<pdfrwt beam="2">  1       21 0.84676564E-02 0.43799968E+03</pdfrwt>
<totfact> 0.49971204E+04</totfact>
</mgrwt>
</event>
<event>
 7    0  0.4775379E-002  0.4529810E+03  0.7546771E-02  0.1026837E+00
         21   -1    0    0  502  501  0.00000000000E+00  0.00000000000E+00  0.74775950341E+02  0.74775950341E+02  0.00000000000E+00 0.  1.
         21   -1    0    0  501  502 -0.00000000000E+00 -0.00000000000E+00 -0.68602210672E+03  0.68602210672E+03  0.00000000000E+00 0.  1.
      99926    2    1    2    0    0  0.35527136788E-14  0.00000000000E+00 -0.61124615638E+03  0.76079805707E+03  0.45298103706E+03 0.  0.
      99925    2    3    3    0    0 -0.18018082113E+02  0.10809963314E+03 -0.41750190029E+03  0.50546586788E+03  0.26301658668E+03 0.  0.
         25    1    4    4    0    0  0.22447345269E+02  0.68050223536E+02 -0.17506037448E+03  0.22677821554E+03  0.12509000000E+03 0.  0.
         25    1    3    3    0    0  0.18018082113E+02 -0.10809963314E+03 -0.19374425609E+03  0.25533218919E+03  0.12509000000E+03 0.  0.
         25    1    4    4    0    0 -0.40465427381E+02  0.40049409604E+02 -0.24244152582E+03  0.27868765233E+03  0.12509000000E+03 0.  0.
<mgrwt>
<rscale>  2 0.45298104E+03</rscale>
<asrwt>0</asrwt>
<pdfrwt beam="1">  1       21 0.10996463E-01 0.45298104E+03</pdfrwt>
<pdfrwt beam="2">  1       21 0.10088560E+00 0.45298104E+03</pdfrwt>
<totfact> 0.50514988E+04</totfact>
</mgrwt>
</event>
<event>
 7    0  0.4775379E-002  0.4572448E+03  0.7546771E-02  0.1025583E+00
         21   -1    0    0  502  501  0.00000000000E+00  0.00000000000E+00  0.81118621924E+02  0.81118621924E+02  0.00000000000E+00 0. -1.
         21   -1    0    0  501  502 -0.00000000000E+00 -0.00000000000E+00 -0.64434268136E+03  0.64434268136E+03  0.00000000000E+00 0. -1.
      99926    2    1    2    0    0  0.00000000000E+00  0.00000000000E+00 -0.56322405943E+03  0.72546130328E+03  0.45724475004E+03 0.  0.
      99925    2    3    3    0    0  0.54331169714E+02 -0.73242663769E+02 -0.24148749550E+03  0.36842028537E+03  0.26287056205E+03 0.  0.
         25    1    4    4    0    0  0.47393422249E+02 -0.50846628099E+02 -0.17084392693E+03  0.22286020625E+03  0.12509000000E+03 0.  0.
         25    1    4    4    0    0  0.69377474642E+01 -0.22396035670E+02 -0.70643568573E+02  0.14556007912E+03  0.12509000000E+03 0.  0.
         25    1    3    3    0    0 -0.54331169714E+02  0.73242663769E+02 -0.32173656393E+03  0.35704101791E+03  0.12509000000E+03 0.  0.
<mgrwt>
<rscale>  2 0.45724475E+03</rscale>
<asrwt>0</asrwt>
<pdfrwt beam="1">  1       21 0.11929209E-01 0.45724475E+03</pdfrwt>
<pdfrwt beam="2">  1       21 0.94756274E-01 0.45724475E+03</pdfrwt>
<totfact> 0.50642354E+04</totfact>
</mgrwt>
</event>
<event>
 7    0  0.4775379E-002  0.4522742E+03  0.7546771E-02  0.1027046E+00
         21   -1    0    0  502  501  0.00000000000E+00  0.00000000000E+00  0.36581977691E+03  0.36581977691E+03  0.00000000000E+00 0. -1.
         21   -1    0    0  501  502 -0.00000000000E+00 -0.00000000000E+00 -0.13979009922E+03  0.13979009922E+03  0.00000000000E+00 0. -1.
      99926    2    1    2    0    0  0.00000000000E+00  0.00000000000E+00  0.22602967769E+03  0.50560987613E+03  0.45227417752E+03 0.  0.
      99925    2    3    3    0    0 -0.10859016724E+03  0.18915171293E+02  0.13361104002E+03  0.31498374777E+03  0.26308409914E+03 0.  0.
         25    1    4    4    0    0 -0.45271342228E+02  0.11229278337E+02  0.21326414663E+02  0.13519584010E+03  0.12509000000E+03 0.  0.
         25    1    3    3    0    0  0.10859016724E+03 -0.18915171293E+02  0.92418637662E+02  0.19062612836E+03  0.12509000000E+03 0.  0.
         25    1    4    4    0    0 -0.63318825012E+02  0.76858929555E+01  0.11228462536E+03  0.17978790767E+03  0.12509000000E+03 0.  0.
<mgrwt>
<rscale>  2 0.45227418E+03</rscale>
<asrwt>0</asrwt>
<pdfrwt beam="1">  1       21 0.53797026E-01 0.45227418E+03</pdfrwt>
<pdfrwt beam="2">  1       21 0.20557368E-01 0.45227418E+03</pdfrwt>
<totfact> 0.66301146E+04</totfact>
</mgrwt>
</event>
<event>
 7    0  0.4775379E-002  0.4516172E+03  0.7546771E-02  0.1027241E+00
         21   -1    0    0  502  501  0.00000000000E+00  0.00000000000E+00  0.86421857966E+02  0.86421857966E+02  0.00000000000E+00 0.  1.
         21   -1    0    0  501  502 -0.00000000000E+00 -0.00000000000E+00 -0.59000729384E+03  0.59000729384E+03  0.00000000000E+00 0.  1.
      99926    2    1    2    0    0  0.00000000000E+00  0.00000000000E+00 -0.50358543587E+03  0.67642915180E+03  0.45161721202E+03 0.  0.
      99925    2    3    3    0    0  0.98438953526E+01 -0.44624555859E+02 -0.16794174374E+03  0.31533020494E+03  0.26294572747E+03 0.  0.
         25    1    3    3    0    0 -0.98438953526E+01  0.44624555859E+02 -0.33564369213E+03  0.36109894687E+03  0.12509000000E+03 0.  0.
         25    1    4    4    0    0  0.19300598380E+02  0.15941524165E+02 -0.81914704924E+02  0.15160531743E+03  0.12509000000E+03 0.  0.
         25    1    4    4    0    0 -0.94567030271E+01 -0.60566080024E+02 -0.86027038818E+02  0.16372488751E+03  0.12509000000E+03 0.  0.
<mgrwt>
<rscale>  2 0.45161721E+03</rscale>
<asrwt>0</asrwt>
<pdfrwt beam="1">  1       21 0.12709097E-01 0.45161721E+03</pdfrwt>
<pdfrwt beam="2">  1       21 0.86765775E-01 0.45161721E+03</pdfrwt>
<totfact> 0.55670338E+04</totfact>
</mgrwt>
</event>
<event>
 7    0  0.4775379E-002  0.4574523E+03  0.7546771E-02  0.1025523E+00
         21   -1    0    0  502  501  0.00000000000E+00  0.00000000000E+00  0.31505212365E+03  0.31505212365E+03  0.00000000000E+00 0.  1.
         21   -1    0    0  501  502 -0.00000000000E+00 -0.00000000000E+00 -0.16605398263E+03  0.16605398263E+03  0.00000000000E+00 0.  1.
      99926    2    1    2    0    0  0.00000000000E+00  0.00000000000E+00  0.14899814103E+03  0.48110610628E+03  0.45745233573E+03 0.  0.
      99925    2    3    3    0    0  0.36802159386E+02  0.89343907061E+02  0.15989037750E+03  0.32266721718E+03  0.26308262497E+03 0.  0.
         25    1    3    3    0    0 -0.36802159386E+02 -0.89343907061E+02 -0.10892236470E+02  0.15843888910E+03  0.12509000000E+03 0.  0.
         25    1    4    4    0    0 -0.46630062597E+01  0.78238254667E+02  0.75720595287E+02  0.16590384194E+03  0.12509000000E+03 0.  0.
         25    1    4    4    0    0  0.41465165646E+02  0.11105652394E+02  0.84169782209E+02  0.15676337523E+03  0.12509000000E+03 0.  0.
<mgrwt>
<rscale>  2 0.45745234E+03</rscale>
<asrwt>0</asrwt>
<pdfrwt beam="1">  1       21 0.46331195E-01 0.45745234E+03</pdfrwt>
<pdfrwt beam="2">  1       21 0.24419703E-01 0.45745234E+03</pdfrwt>
<totfact> 0.65338557E+04</totfact>
</mgrwt>
</event>
<event>
 7    0  0.4775379E-002  0.4550323E+03  0.7546771E-02  0.1026232E+00
         21   -1    0    0  502  501  0.00000000000E+00  0.00000000000E+00  0.21225872039E+03  0.21225872039E+03  0.00000000000E+00 0. -1.
         21   -1    0    0  501  502 -0.00000000000E+00 -0.00000000000E+00 -0.24387035553E+03  0.24387035553E+03  0.00000000000E+00 0. -1.
      99926    2    1    2    0    0  0.00000000000E+00  0.00000000000E+00 -0.31611635139E+02  0.45612907592E+03  0.45503234877E+03 0.  0.
      99925    2    3    3    0    0  0.32425069370E+02 -0.78849170663E+02  0.54756393082E+02  0.28184332999E+03  0.26299966395E+03 0.  0.
         25    1    4    4    0    0  0.45632091735E+02 -0.39835374636E+02 -0.59977253492E+00  0.13898565644E+03  0.12509000000E+03 0.  0.
         25    1    3    3    0    0 -0.32425069370E+02  0.78849170663E+02 -0.86368028221E+02  0.17428574594E+03  0.12509000000E+03 0.  0.
         25    1    4    4    0    0 -0.13207022365E+02 -0.39013796027E+02  0.55356165617E+02  0.14285767355E+03  0.12509000000E+03 0.  0.
<mgrwt>
<rscale>  2 0.45503235E+03</rscale>
<asrwt>0</asrwt>
<pdfrwt beam="1">  1       21 0.31214518E-01 0.45503235E+03</pdfrwt>
<pdfrwt beam="2">  1       21 0.35863288E-01 0.45503235E+03</pdfrwt>
<totfact> 0.68445525E+04</totfact>
</mgrwt>
</event>
<event>
 7    0  0.4775379E-002  0.4457212E+03  0.7546771E-02  0.1029006E+00
         21   -1    0    0  502  501  0.00000000000E+00  0.00000000000E+00  0.16082423024E+03  0.16082423024E+03  0.00000000000E+00 0.  1.
         21   -1    0    0  501  502 -0.00000000000E+00 -0.00000000000E+00 -0.30882688793E+03  0.30882688793E+03  0.00000000000E+00 0.  1.
      99926    2    1    2    0    0 -0.35527136788E-14  0.88817841970E-15 -0.14800265769E+03  0.46965111817E+03  0.44572119774E+03 0.  0.
      99925    2    3    3    0    0  0.11976319404E+02 -0.68681917657E+01 -0.20276071389E+03  0.33240478086E+03  0.26304073251E+03 0.  0.
         25    1    4    4    0    0 -0.33331627949E+02 -0.63337890475E-01 -0.11231463873E+03  0.17138578589E+03  0.12509000000E+03 0.  0.
         25    1    3    3    0    0 -0.11976319404E+02  0.68681917657E+01  0.54758056202E+02  0.13724633730E+03  0.12509000000E+03 0.  0.
         25    1    4    4    0    0  0.45307947353E+02 -0.68048538753E+01 -0.90446075157E+02  0.16101899497E+03  0.12509000000E+03 0.  0.
<mgrwt>
<rscale>  2 0.44572120E+03</rscale>
<asrwt>0</asrwt>
<pdfrwt beam="1">  1       21 0.23650622E-01 0.44572120E+03</pdfrwt>
<pdfrwt beam="2">  1       21 0.45415718E-01 0.44572120E+03</pdfrwt>
<totfact> 0.72666687E+04</totfact>
</mgrwt>
</event>
<event>
 7    0  0.4775379E-002  0.4999966E+03  0.7546771E-02  0.1013780E+00
         21   -1    0    0  502  501  0.00000000000E+00  0.00000000000E+00  0.16037832632E+04  0.16037832632E+04  0.00000000000E+00 0.  1.
         21   -1    0    0  501  502 -0.00000000000E+00 -0.00000000000E+00 -0.38969816995E+02  0.38969816995E+02  0.00000000000E+00 0.  1.
      99926    2    1    2    0    0  0.00000000000E+00  0.00000000000E+00  0.15648134462E+04  0.16427530802E+04  0.49999656105E+03 0.  0.
      99925    2    3    3    0    0 -0.15584525205E+02 -0.13546295668E+03  0.11679119436E+04  0.12048359637E+04  0.26271334443E+03 0.  0.
         25    1    4    4    0    0  0.27118906186E+02 -0.88469372903E+02  0.59747691355E+03  0.61740459615E+03  0.12509000000E+03 0.  0.
         25    1    4    4    0    0 -0.42703431391E+02 -0.46993583774E+02  0.57043503006E+03  0.58743136755E+03  0.12509000000E+03 0.  0.
         25    1    3    3    0    0  0.15584525205E+02  0.13546295668E+03  0.39690150259E+03  0.43791711649E+03  0.12509000000E+03 0.  0.
<mgrwt>
<rscale>  2 0.49999656E+03</rscale>
<asrwt>0</asrwt>
<pdfrwt beam="1">  1       21 0.23585044E+00 0.49999656E+03</pdfrwt>
<pdfrwt beam="2">  1       21 0.57308565E-02 0.49999656E+03</pdfrwt>
<totfact> 0.14654575E+04</totfact>
</mgrwt>
</event>
<event>
 7    0  0.4775379E-002  0.4553631E+03  0.7546771E-02  0.1026135E+00
         21   -1    0    0  502  501  0.00000000000E+00  0.00000000000E+00  0.75634940237E+03  0.75634940237E+03  0.00000000000E+00 0.  1.
         21   -1    0    0  501  502 -0.00000000000E+00 -0.00000000000E+00 -0.68538275642E+02  0.68538275642E+02  0.00000000000E+00 0.  1.
      99926    2    1    2    0    0  0.00000000000E+00  0.00000000000E+00  0.68781112673E+03  0.82488767801E+03  0.45536308072E+03 0.  0.
      99925    2    3    3    0    0 -0.20159816326E+02 -0.80320079548E+02  0.57324768434E+03  0.63612850922E+03  0.26303771452E+03 0.  0.
         25    1    4    4    0    0  0.23128606021E+02 -0.29749089352E+02  0.22535358801E+03  0.26048356659E+03  0.12509000000E+03 0.  0.
         25    1    3    3    0    0  0.20159816326E+02  0.80320079548E+02  0.11456344238E+03  0.18875916879E+03  0.12509000000E+03 0.  0.
         25    1    4    4    0    0 -0.43288422347E+02 -0.50570990196E+02  0.34789409633E+03  0.37564494263E+03  0.12509000000E+03 0.  0.
<mgrwt>
<rscale>  2 0.45536308E+03</rscale>
<asrwt>0</asrwt>
<pdfrwt beam="1">  1       21 0.11122785E+00 0.45536308E+03</pdfrwt>
<pdfrwt beam="2">  1       21 0.10079159E-01 0.45536308E+03</pdfrwt>
<totfact> 0.46451996E+04</totfact>
</mgrwt>
</event>
<event>
 7    0  0.4775379E-002  0.4569527E+03  0.7546771E-02  0.1025669E+00
         21   -1    0    0  502  501  0.00000000000E+00  0.00000000000E+00  0.85564442534E+03  0.85564442534E+03  0.00000000000E+00 0.  1.
         21   -1    0    0  501  502 -0.00000000000E+00 -0.00000000000E+00 -0.61008328588E+02  0.61008328588E+02  0.00000000000E+00 0.  1.
      99926    2    1    2    0    0 -0.14210854715E-13  0.00000000000E+00  0.79463609675E+03  0.91665275392E+03  0.45695267263E+03 0.  0.
      99925    2    3    3    0    0 -0.86515280685E+02 -0.62460775015E+02  0.41338380524E+03  0.50145754672E+03  0.26303470972E+03 0.  0.
         25    1    3    3    0    0  0.86515280685E+02  0.62460775015E+02  0.38125229151E+03  0.41519520721E+03  0.12509000000E+03 0.  0.
         25    1    4    4    0    0 -0.82605075046E+02 -0.47500375913E+02  0.24506104643E+03  0.29117401792E+03  0.12509000000E+03 0.  0.
         25    1    4    4    0    0 -0.39102056382E+01 -0.14960399102E+02  0.16832275881E+03  0.21028352880E+03  0.12509000000E+03 0.  0.
<mgrwt>
<rscale>  2 0.45695267E+03</rscale>
<asrwt>0</asrwt>
<pdfrwt beam="1">  1       21 0.12583006E+00 0.45695267E+03</pdfrwt>
<pdfrwt beam="2">  1       21 0.89718135E-02 0.45695267E+03</pdfrwt>
<totfact> 0.41877851E+04</totfact>
</mgrwt>
</event>
<event>
 7    0  0.4775379E-002  0.4558321E+03  0.7546771E-02  0.1025997E+00
         21   -1    0    0  502  501  0.00000000000E+00  0.00000000000E+00  0.56233970398E+03  0.56233970398E+03  0.00000000000E+00 0. -1.
         21   -1    0    0  501  502 -0.00000000000E+00 -0.00000000000E+00 -0.92374298406E+02  0.92374298406E+02  0.00000000000E+00 0. -1.
      99926    2    1    2    0    0  0.71054273576E-14 -0.14210854715E-13  0.46996540558E+03  0.65471400239E+03  0.45583214288E+03 0.  0.
      99925    2    3    3    0    0  0.32744460365E+02 -0.10286281686E+03  0.34767513765E+03  0.44915287643E+03  0.26307289159E+03 0.  0.
         25    1    3    3    0    0 -0.32744460365E+02  0.10286281686E+03  0.12229026793E+03  0.20556112596E+03  0.12509000000E+03 0.  0.
         25    1    4    4    0    0  0.12927695028E+02 -0.13058251153E+02  0.12584201905E+03  0.17838543966E+03  0.12509000000E+03 0.  0.
         25    1    4    4    0    0  0.19816765337E+02 -0.89804565703E+02  0.22183311860E+03  0.27076743677E+03  0.12509000000E+03 0.  0.
<mgrwt>
<rscale>  2 0.45583214E+03</rscale>
<asrwt>0</asrwt>
<pdfrwt beam="1">  1       21 0.82697013E-01 0.45583214E+03</pdfrwt>
<pdfrwt beam="2">  1       21 0.13584456E-01 0.45583214E+03</pdfrwt>
<totfact> 0.55068389E+04</totfact>
</mgrwt>
</event>
<event>
 7    0  0.4775379E-002  0.4621434E+03  0.7546771E-02  0.1024161E+00
         21   -1    0    0  502  501  0.00000000000E+00  0.00000000000E+00  0.50985756547E+02  0.50985756547E+02  0.00000000000E+00 0.  1.
         21   -1    0    0  501  502 -0.00000000000E+00 -0.00000000000E+00 -0.10472364355E+04  0.10472364355E+04  0.00000000000E+00 0.  1.
      99926    2    1    2    0    0 -0.14210854715E-13  0.71054273576E-14 -0.99625067890E+03  0.10982221920E+04  0.46214344936E+03 0.  0.
      99925    2    3    3    0    0 -0.83836915512E+02  0.53338862006E+02 -0.78187769001E+03  0.83087045913E+03  0.26294359682E+03 0.  0.
         25    1    4    4    0    0 -0.14730217637E+02  0.52542908194E+02 -0.33635033272E+03  0.36298318272E+03  0.12509000000E+03 0.  0.
         25    1    4    4    0    0 -0.69106697875E+02  0.79595381179E+00 -0.44552735729E+03  0.46788727641E+03  0.12509000000E+03 0.  0.
         25    1    3    3    0    0  0.83836915512E+02 -0.53338862006E+02 -0.21437298889E+03  0.26735173287E+03  0.12509000000E+03 0.  0.
<mgrwt>
<rscale>  2 0.46214345E+03</rscale>
<asrwt>0</asrwt>
<pdfrwt beam="1">  1       21 0.74979056E-02 0.46214345E+03</pdfrwt>
<pdfrwt beam="2">  1       21 0.15400535E+00 0.46214345E+03</pdfrwt>
<totfact> 0.33641710E+04</totfact>
</mgrwt>
</event>
<event>
 7    0  0.4775379E-002  0.4141766E+03  0.7546771E-02  0.1038978E+00
         21   -1    0    0  502  501  0.00000000000E+00  0.00000000000E+00  0.39022521357E+02  0.39022521357E+02  0.00000000000E+00 0.  1.
         21   -1    0    0  501  502 -0.00000000000E+00 -0.00000000000E+00 -0.10989950203E+04  0.10989950203E+04  0.00000000000E+00 0.  1.
      99926    2    1    2    0    0  0.00000000000E+00 -0.44408920985E-14 -0.10599724990E+04  0.11380175417E+04  0.41417656453E+03 0.  0.
      99925    2    3    3    0    0 -0.35313887934E+02  0.61183515279E+01 -0.53563545533E+03  0.59777560668E+03  0.26295594693E+03 0.  0.
         25    1    4    4    0    0 -0.15769589926E+02 -0.35521035670E+02 -0.23808958024E+03  0.27174359286E+03  0.12509000000E+03 0.  0.
         25    1    3    3    0    0  0.35313887934E+02 -0.61183515279E+01 -0.52433704364E+03  0.54024193501E+03  0.12509000000E+03 0.  0.
         25    1    4    4    0    0 -0.19544298007E+02  0.41639387198E+02 -0.29754587509E+03  0.32603201382E+03  0.12509000000E+03 0.  0.
<mgrwt>
<rscale>  2 0.41417656E+03</rscale>
<asrwt>0</asrwt>
<pdfrwt beam="1">  1       21 0.57386060E-02 0.41417656E+03</pdfrwt>
<pdfrwt beam="2">  1       21 0.16161692E+00 0.41417656E+03</pdfrwt>
<totfact> 0.47627831E+04</totfact>
</mgrwt>
</event>
<event>
 7    0  0.4775379E-002  0.4528084E+03  0.7546771E-02  0.1026888E+00
         21   -1    0    0  502  501  0.00000000000E+00  0.00000000000E+00  0.74751636405E+02  0.74751636405E+02  0.00000000000E+00 0.  1.
         21   -1    0    0  501  502 -0.00000000000E+00 -0.00000000000E+00 -0.68572233021E+03  0.68572233021E+03  0.00000000000E+00 0.  1.
      99926    2    1    2    0    0  0.71054273576E-14  0.00000000000E+00 -0.61097069381E+03  0.76047396662E+03  0.45280841999E+03 0.  0.
      99925    2    3    3    0    0  0.48806835494E+02  0.89861954607E+01 -0.21831771219E+03  0.34539959862E+03  0.26301216772E+03 0.  0.
         25    1    4    4    0    0  0.65104309012E+02  0.35966107481E+01 -0.12371049057E+03  0.18762542535E+03  0.12509000000E+03 0.  0.
         25    1    4    4    0    0 -0.16297473518E+02  0.53895847126E+01 -0.94607221620E+02  0.15777417326E+03  0.12509000000E+03 0.  0.
         25    1    3    3    0    0 -0.48806835494E+02 -0.89861954607E+01 -0.39265298161E+03  0.41507436800E+03  0.12509000000E+03 0.  0.
<mgrwt>
<rscale>  2 0.45280842E+03</rscale>
<asrwt>0</asrwt>
<pdfrwt beam="1">  1       21 0.10992888E-01 0.45280842E+03</pdfrwt>
<pdfrwt beam="2">  1       21 0.10084152E+00 0.45280842E+03</pdfrwt>
<totfact> 0.50600701E+04</totfact>
</mgrwt>
</event>
<event>
 7    0  0.4775379E-002  0.4383214E+03  0.7546771E-02  0.1031263E+00
         21   -1    0    0  502  501  0.00000000000E+00  0.00000000000E+00  0.21205242091E+04  0.21205242091E+04  0.00000000000E+00 0. -1.
         21   -1    0    0  501  502 -0.00000000000E+00 -0.00000000000E+00 -0.22650725925E+02  0.22650725925E+02  0.00000000000E+00 0. -1.
      99926    2    1    2    0    0 -0.71054273576E-14  0.00000000000E+00  0.20978734832E+04  0.21431749350E+04  0.43832140115E+03 0.  0.
      99925    2    3    3    0    0 -0.50610610821E+02  0.46327875454E+02  0.10076597241E+04  0.10436653832E+04  0.26296693053E+03 0.  0.
         25    1    4    4    0    0 -0.63890733530E+02  0.15519032658E+02  0.56903950050E+03  0.58632442166E+03  0.12509000000E+03 0.  0.
         25    1    4    4    0    0  0.13280122708E+02  0.30808842796E+02  0.43862022359E+03  0.45734096153E+03  0.12509000000E+03 0.  0.
         25    1    3    3    0    0  0.50610610821E+02 -0.46327875454E+02  0.10902137591E+04  0.10995095518E+04  0.12509000000E+03 0.  0.
<mgrwt>
<rscale>  2 0.43832140E+03</rscale>
<asrwt>0</asrwt>
<pdfrwt beam="1">  1       21 0.31184166E+00 0.43832140E+03</pdfrwt>
<pdfrwt beam="2">  1       21 0.33309905E-02 0.43832140E+03</pdfrwt>
<totfact> 0.13130004E+04</totfact>
</mgrwt>
</event>
<event>
 6    0  0.4775379E-002  0.4530184E+03  0.7546771E-02  0.1026826E+00
         21   -1    0    0  502  501  0.00000000000E+00  0.00000000000E+00  0.63477840406E+03  0.63477840406E+03  0.00000000000E+00 0.  1.
         21   -1    0    0  501  502 -0.00000000000E+00 -0.00000000000E+00 -0.80825721909E+02  0.80825721909E+02  0.00000000000E+00 0.  1.
      99926    2    1    2    0    0  0.00000000000E+00 -0.14210854715E-13  0.55395268215E+03  0.71560412597E+03  0.45301842241E+03 0.  0.
         25    1    3    3    0    0  0.37926232054E+02 -0.18888018826E+02  0.14146768365E+03  0.19353493212E+03  0.12509000000E+03 0.  0.
         25    1    3    3    0    0  0.23252596145E+02 -0.72777804943E+02  0.24668589330E+03  0.28694726027E+03  0.12509000000E+03 0.  0.
         25    1    3    3    0    0 -0.61178828199E+02  0.91665823769E+02  0.16579910519E+03  0.23512193358E+03  0.12509000000E+03 0.  0.
<mgrwt>
<rscale>  2 0.45301842E+03</rscale>
<asrwt>0</asrwt>
<pdfrwt beam="1">  1       21 0.93349763E-01 0.45301842E+03</pdfrwt>
<pdfrwt beam="2">  1       21 0.11886136E-01 0.45301842E+03</pdfrwt>
<totfact> 0.52883499E+04</totfact>
</mgrwt>
</event>
<event>
 7    0  0.4775379E-002  0.4623831E+03  0.7546771E-02  0.1024092E+00
         21   -1    0    0  502  501  0.00000000000E+00  0.00000000000E+00  0.13915531466E+03  0.13915531466E+03  0.00000000000E+00 0. -1.
         21   -1    0    0  501  502 -0.00000000000E+00 -0.00000000000E+00 -0.38409978787E+03  0.38409978787E+03  0.00000000000E+00 0. -1.
      99926    2    1    2    0    0  0.00000000000E+00  0.00000000000E+00 -0.24494447320E+03  0.52325510253E+03  0.46238307427E+03 0.  0.
      99925    2    3    3    0    0 -0.74443654889E+02 -0.92325138250E+02 -0.13841356346E+03  0.32061716991E+03  0.26376365592E+03 0.  0.
         25    1    4    4    0    0 -0.22351912007E+02 -0.85973233665E+02 -0.68729639345E+02  0.16811387897E+03  0.12509000000E+03 0.  0.
         25    1    4    4    0    0 -0.52091742882E+02 -0.63519045844E+01 -0.69683924113E+02  0.15250329094E+03  0.12509000000E+03 0.  0.
         25    1    3    3    0    0  0.74443654889E+02  0.92325138250E+02 -0.10653090974E+03  0.20263793262E+03  0.12509000000E+03 0.  0.
<mgrwt>
<rscale>  2 0.46238307E+03</rscale>
<asrwt>0</asrwt>
<pdfrwt beam="1">  1       21 0.20464017E-01 0.46238307E+03</pdfrwt>
<pdfrwt beam="2">  1       21 0.56485263E-01 0.46238307E+03</pdfrwt>
<totfact> 0.60069398E+04</totfact>
</mgrwt>
</event>
<event>
 7    0  0.4775379E-002  0.4610845E+03  0.7546771E-02  0.1024467E+00
         21   -1    0    0  502  501  0.00000000000E+00  0.00000000000E+00  0.10662161899E+04  0.10662161899E+04  0.00000000000E+00 0. -1.
         21   -1    0    0  501  502 -0.00000000000E+00 -0.00000000000E+00 -0.49848925821E+02  0.49848925821E+02  0.00000000000E+00 0. -1.
      99926    2    1    2    0    0  0.00000000000E+00  0.71054273576E-14  0.10163672641E+04  0.11160651157E+04  0.46108451182E+03 0.  0.
      99925    2    3    3    0    0 -0.23853354091E+02  0.49489696438E+02  0.38119557910E+03  0.46636611614E+03  0.26300013727E+03 0.  0.
         25    1    3    3    0    0  0.23853354091E+02 -0.49489696438E+02  0.63517168500E+03  0.64969899960E+03  0.12509000000E+03 0.  0.
         25    1    4    4    0    0 -0.83359560959E+00  0.29944059968E+02  0.25766652374E+03  0.28798765107E+03  0.12509000000E+03 0.  0.
         25    1    4    4    0    0 -0.23019758482E+02  0.19545636471E+02  0.12352905536E+03  0.17837846508E+03  0.12509000000E+03 0.  0.
<mgrwt>
<rscale>  2 0.46108451E+03</rscale>
<asrwt>0</asrwt>
<pdfrwt beam="1">  1       21 0.15679648E+00 0.46108451E+03</pdfrwt>
<pdfrwt beam="2">  1       21 0.73307251E-02 0.46108451E+03</pdfrwt>
<totfact> 0.33326511E+04</totfact>
</mgrwt>
</event>
<event>
 7    0  0.4775379E-002  0.4516371E+03  0.7546771E-02  0.1027235E+00
         21   -1    0    0  502  501  0.00000000000E+00  0.00000000000E+00  0.34630034304E+03  0.34630034304E+03  0.00000000000E+00 0.  1.
         21   -1    0    0  501  502 -0.00000000000E+00 -0.00000000000E+00 -0.14725375781E+03  0.14725375781E+03  0.00000000000E+00 0.  1.
      99926    2    1    2    0    0 -0.35527136788E-14  0.00000000000E+00  0.19904658524E+03  0.49355410085E+03  0.45163714127E+03 0.  0.
      99925    2    3    3    0    0  0.16648875550E+02  0.78689075238E+02  0.20745293759E+03  0.34459997879E+03  0.26314115689E+03 0.  0.
         25    1    4    4    0    0  0.47692366203E+02  0.29473784772E+02  0.10844068842E+03  0.17478603144E+03  0.12509000000E+03 0.  0.
         25    1    3    3    0    0 -0.16648875550E+02 -0.78689075238E+02 -0.84063523557E+01  0.14895412206E+03  0.12509000000E+03 0.  0.
         25    1    4    4    0    0 -0.31043490653E+02  0.49215290466E+02  0.99012249175E+02  0.16981394735E+03  0.12509000000E+03 0.  0.
<mgrwt>
<rscale>  2 0.45163714E+03</rscale>
<asrwt>0</asrwt>
<pdfrwt beam="1">  1       21 0.50926521E-01 0.45163714E+03</pdfrwt>
<pdfrwt beam="2">  1       21 0.21654964E-01 0.45163714E+03</pdfrwt>
<totfact> 0.67510251E+04</totfact>
</mgrwt>
</event>
<event>
 7    0  0.4775379E-002  0.4483629E+03  0.7546771E-02  0.1028211E+00
         21   -1    0    0  502  501  0.00000000000E+00  0.00000000000E+00  0.39459239644E+03  0.39459239644E+03  0.00000000000E+00 0.  1.
         21   -1    0    0  501  502 -0.00000000000E+00 -0.00000000000E+00 -0.12736517907E+03  0.12736517907E+03  0.00000000000E+00 0.  1.
      99926    2    1    2    0    0  0.00000000000E+00 -0.35527136788E-14  0.26722721737E+03  0.52195757551E+03  0.44836293885E+03 0.  0.
      99925    2    3    3    0    0  0.84288344974E+02  0.28448232514E+02  0.10033657831E+03  0.29521141670E+03  0.26299909614E+03 0.  0.
         25    1    4    4    0    0  0.62347879740E+02 -0.21028393397E+02  0.51321660300E+02  0.15036912034E+03  0.12509000000E+03 0.  0.
         25    1    4    4    0    0  0.21940465234E+02  0.49476625911E+02  0.49014918009E+02  0.14484229636E+03  0.12509000000E+03 0.  0.
         25    1    3    3    0    0 -0.84288344974E+02 -0.28448232514E+02  0.16689063906E+03  0.22674615881E+03  0.12509000000E+03 0.  0.
<mgrwt>
<rscale>  2 0.44836294E+03</rscale>
<asrwt>0</asrwt>
<pdfrwt beam="1">  1       21 0.58028294E-01 0.44836294E+03</pdfrwt>
<pdfrwt beam="2">  1       21 0.18730173E-01 0.44836294E+03</pdfrwt>
<totfact> 0.67221866E+04</totfact>
</mgrwt>
</event>
<event>
 7    0  0.4775379E-002  0.4552619E+03  0.7546771E-02  0.1026164E+00
         21   -1    0    0  502  501  0.00000000000E+00  0.00000000000E+00  0.27682342173E+03  0.27682342173E+03  0.00000000000E+00 0.  1.
         21   -1    0    0  501  502 -0.00000000000E+00 -0.00000000000E+00 -0.18718014426E+03  0.18718014426E+03  0.00000000000E+00 0.  1.
      99926    2    1    2    0    0  0.00000000000E+00  0.00000000000E+00  0.89643277470E+02  0.46400356600E+03  0.45526189393E+03 0.  0.
      99925    2    3    3    0    0  0.18383122276E+02  0.11364287433E+02  0.16943683619E+03  0.31406489077E+03  0.26355422202E+03 0.  0.
         25    1    3    3    0    0 -0.18383122276E+02 -0.11364287433E+02 -0.79793558721E+02  0.14993867522E+03  0.12509000000E+03 0.  0.
         25    1    4    4    0    0  0.11021352133E+02 -0.84825081195E+00  0.13317990747E+03  0.18304804174E+03  0.12509000000E+03 0.  0.
         25    1    4    4    0    0  0.73617701434E+01  0.12212538245E+02  0.36256928722E+02  0.13101684903E+03  0.12509000000E+03 0.  0.
<mgrwt>
<rscale>  2 0.45526189E+03</rscale>
<asrwt>0</asrwt>
<pdfrwt beam="1">  1       21 0.40709327E-01 0.45526189E+03</pdfrwt>
<pdfrwt beam="2">  1       21 0.27526491E-01 0.45526189E+03</pdfrwt>
<totfact> 0.67743104E+04</totfact>
</mgrwt>
</event>
<event>
 7    0  0.4775379E-002  0.4543652E+03  0.7546771E-02  0.1026428E+00
         21   -1    0    0  502  501  0.00000000000E+00  0.00000000000E+00  0.20938901091E+03  0.20938901091E+03  0.00000000000E+00 0.  1.
         21   -1    0    0  501  502 -0.00000000000E+00 -0.00000000000E+00 -0.24648826548E+03  0.24648826548E+03  0.00000000000E+00 0.  1.
      99926    2    1    2    0    0  0.71054273576E-14  0.14210854715E-13 -0.37099254564E+02  0.45587727639E+03  0.45436520161E+03 0.  0.
      99925    2    3    3    0    0  0.60655881055E+02  0.94622216641E+02 -0.30233655903E+02  0.28757057915E+03  0.26296437830E+03 0.  0.
         25    1    4    4    0    0  0.23404728216E+02  0.84956036305E+02 -0.33570383859E+02  0.15665180554E+03  0.12509000000E+03 0.  0.
         25    1    4    4    0    0  0.37251152839E+02  0.96661803363E+01  0.33367279556E+01  0.13091877361E+03  0.12509000000E+03 0.  0.
         25    1    3    3    0    0 -0.60655881055E+02 -0.94622216641E+02 -0.68655986609E+01  0.16830669723E+03  0.12509000000E+03 0.  0.
<mgrwt>
<rscale>  2 0.45436520E+03</rscale>
<asrwt>0</asrwt>
<pdfrwt beam="1">  1       21 0.30792502E-01 0.45436520E+03</pdfrwt>
<pdfrwt beam="2">  1       21 0.36248274E-01 0.45436520E+03</pdfrwt>
<totfact> 0.68829554E+04</totfact>
</mgrwt>
</event>
<event>
 7    0  0.4775379E-002  0.4648427E+03  0.7546771E-02  0.1023386E+00
         21   -1    0    0  502  501  0.00000000000E+00  0.00000000000E+00  0.20569428989E+03  0.20569428989E+03  0.00000000000E+00 0.  1.
         21   -1    0    0  501  502 -0.00000000000E+00 -0.00000000000E+00 -0.26262121982E+03  0.26262121982E+03  0.00000000000E+00 0.  1.
      99926    2    1    2    0    0  0.00000000000E+00  0.00000000000E+00 -0.56926929923E+02  0.46831550971E+03  0.46484270596E+03 0.  0.
      99925    2    3    3    0    0 -0.11337974190E+03  0.27783359653E+02 -0.69727095730E+02  0.29673977340E+03  0.26375318821E+03 0.  0.
         25    1    4    4    0    0 -0.10114388652E+03  0.91618173965E+01 -0.32887937027E+02  0.16444801361E+03  0.12509000000E+03 0.  0.
         25    1    3    3    0    0  0.11337974190E+03 -0.27783359653E+02  0.12800165807E+02  0.17157573631E+03  0.12509000000E+03 0.  0.
         25    1    4    4    0    0 -0.12235855376E+02  0.18621542256E+02 -0.36839158703E+02  0.13229175978E+03  0.12509000000E+03 0.  0.
<mgrwt>
<rscale>  2 0.46484271E+03</rscale>
<asrwt>0</asrwt>
<pdfrwt beam="1">  1       21 0.30249160E-01 0.46484271E+03</pdfrwt>
<pdfrwt beam="2">  1       21 0.38620768E-01 0.46484271E+03</pdfrwt>
<totfact> 0.62524803E+04</totfact>
</mgrwt>
</event>
<event>
 7    0  0.4775379E-002  0.4557540E+03  0.7546771E-02  0.1026020E+00
         21   -1    0    0  502  501  0.00000000000E+00  0.00000000000E+00  0.20519901038E+04  0.20519901038E+04  0.00000000000E+00 0.  1.
         21   -1    0    0  501  502 -0.00000000000E+00 -0.00000000000E+00 -0.25306131081E+02  0.25306131081E+02  0.00000000000E+00 0.  1.
      99926    2    1    2    0    0  0.00000000000E+00  0.00000000000E+00  0.20266839727E+04  0.20772962349E+04  0.45575401499E+03 0.  0.
      99925    2    3    3    0    0  0.10184416512E+03  0.50234714347E+02  0.13123634354E+04  0.13432682391E+04  0.26301333623E+03 0.  0.
         25    1    4    4    0    0  0.63895621232E+02  0.28560251646E+02  0.49886879720E+03  0.51905290993E+03  0.12509000000E+03 0.  0.
         25    1    4    4    0    0  0.37948543884E+02  0.21674462702E+02  0.81349463822E+03  0.82421532916E+03  0.12509000000E+03 0.  0.
         25    1    3    3    0    0 -0.10184416512E+03 -0.50234714347E+02  0.71432053733E+03  0.73402799582E+03  0.12509000000E+03 0.  0.
<mgrwt>
<rscale>  2 0.45575401E+03</rscale>
<asrwt>0</asrwt>
<pdfrwt beam="1">  1       21 0.30176314E+00 0.45575401E+03</pdfrwt>
<pdfrwt beam="2">  1       21 0.37214913E-02 0.45575401E+03</pdfrwt>
<totfact> 0.12415868E+04</totfact>
</mgrwt>
</event>
<event>
 7    0  0.4775379E-002  0.4503586E+03  0.7546771E-02  0.1027615E+00
         21   -1    0    0  502  501  0.00000000000E+00  0.00000000000E+00  0.11525153402E+04  0.11525153402E+04  0.00000000000E+00 0. -1.
         21   -1    0    0  501  502 -0.00000000000E+00 -0.00000000000E+00 -0.43995700426E+02  0.43995700426E+02  0.00000000000E+00 0. -1.
      99926    2    1    2    0    0  0.00000000000E+00  0.71054273576E-14  0.11085196398E+04  0.11965110407E+04  0.45035861109E+03 0.  0.
      99925    2    3    3    0    0  0.95184738257E+02  0.51189986755E+02  0.73180508784E+03  0.78512082334E+03  0.26305032126E+03 0.  0.
         25    1    4    4    0    0  0.77782035408E+02 -0.10590280922E+01  0.35859319891E+03  0.38766964928E+03  0.12509000000E+03 0.  0.
         25    1    3    3    0    0 -0.95184738257E+02 -0.51189986755E+02  0.37671455196E+03  0.41139021731E+03  0.12509000000E+03 0.  0.
         25    1    4    4    0    0  0.17402702850E+02  0.52249014847E+02  0.37321188893E+03  0.39745117406E+03  0.12509000000E+03 0.  0.
<mgrwt>
<rscale>  2 0.45035861E+03</rscale>
<asrwt>0</asrwt>
<pdfrwt beam="1">  1       21 0.16948753E+00 0.45035861E+03</pdfrwt>
<pdfrwt beam="2">  1       21 0.64699567E-02 0.45035861E+03</pdfrwt>
<totfact> 0.33460279E+04</totfact>
</mgrwt>
</event>
<event>
 7    0  0.4775379E-002  0.4487395E+03  0.7546771E-02  0.1028099E+00
         21   -1    0    0  502  501  0.00000000000E+00  0.00000000000E+00  0.10565643225E+04  0.10565643225E+04  0.00000000000E+00 0.  1.
         21   -1    0    0  501  502 -0.00000000000E+00 -0.00000000000E+00 -0.47646687288E+02  0.47646687288E+02  0.00000000000E+00 0.  1.
      99926    2    1    2    0    0  0.00000000000E+00  0.17763568394E-14  0.10089176352E+04  0.11042110098E+04  0.44873952300E+03 0.  0.
      99925    2    3    3    0    0  0.49633330661E+02  0.11665497865E+02  0.40416897116E+03  0.48455948988E+03  0.26238481402E+03 0.  0.
         25    1    4    4    0    0  0.38645077830E+02  0.36065495272E+02  0.24742263183E+03  0.28224037421E+03  0.12509000000E+03 0.  0.
         25    1    3    3    0    0 -0.49633330661E+02 -0.11665497865E+02  0.60474866408E+03  0.61965151993E+03  0.12509000000E+03 0.  0.
         25    1    4    4    0    0  0.10988252831E+02 -0.24399997408E+02  0.15674633933E+03  0.20231911567E+03  0.12509000000E+03 0.  0.
<mgrwt>
<rscale>  2 0.44873952E+03</rscale>
<asrwt>0</asrwt>
<pdfrwt beam="1">  1       21 0.15537709E+00 0.44873952E+03</pdfrwt>
<pdfrwt beam="2">  1       21 0.70068665E-02 0.44873952E+03</pdfrwt>
<totfact> 0.37127917E+04</totfact>
</mgrwt>
</event>
<event>
 7    0  0.4775379E-002  0.4552627E+03  0.7546771E-02  0.1026164E+00
         21   -1    0    0  502  501  0.00000000000E+00  0.00000000000E+00  0.10982225499E+03  0.10982225499E+03  0.00000000000E+00 0. -1.
         21   -1    0    0  501  502 -0.00000000000E+00 -0.00000000000E+00 -0.47181716016E+03  0.47181716016E+03  0.00000000000E+00 0. -1.
      99926    2    1    2    0    0  0.00000000000E+00  0.00000000000E+00 -0.36199490517E+03  0.58163941514E+03  0.45526266910E+03 0.  0.
      99925    2    3    3    0    0  0.21457667713E+02 -0.17500784502E+02 -0.36830857391E+03  0.45336595930E+03  0.26291211168E+03 0.  0.
         25    1    4    4    0    0 -0.98250850901E+01 -0.43544346254E+02 -0.18381795328E+03  0.22678004858E+03  0.12509000000E+03 0.  0.
         25    1    3    3    0    0 -0.21457667713E+02  0.17500784502E+02  0.63136687427E+01  0.12827345585E+03  0.12509000000E+03 0.  0.
         25    1    4    4    0    0  0.31282752804E+02  0.26043561752E+02 -0.18449062063E+03  0.22658591071E+03  0.12509000000E+03 0.  0.
<mgrwt>
<rscale>  2 0.45526267E+03</rscale>
<asrwt>0</asrwt>
<pdfrwt beam="1">  1       21 0.16150332E-01 0.45526267E+03</pdfrwt>
<pdfrwt beam="2">  1       21 0.69384876E-01 0.45526267E+03</pdfrwt>
<totfact> 0.59698823E+04</totfact>
</mgrwt>
</event>
<event>
 7    0  0.4775379E-002  0.4087896E+03  0.7546771E-02  0.1040778E+00
         21   -1    0    0  502  501  0.00000000000E+00  0.00000000000E+00  0.10204876217E+03  0.10204876217E+03  0.00000000000E+00 0.  1.
         21   -1    0    0  501  502 -0.00000000000E+00 -0.00000000000E+00 -0.40938494538E+03  0.40938494538E+03  0.00000000000E+00 0.  1.
      99926    2    1    2    0    0 -0.35527136788E-14 -0.35527136788E-14 -0.30733618321E+03  0.51143370755E+03  0.40878956409E+03 0.  0.
      99925    2    3    3    0    0 -0.17106717566E+02 -0.21929814005E+02 -0.26981776425E+03  0.37790956595E+03  0.26313581589E+03 0.  0.
         25    1    4    4    0    0  0.19719108558E+02 -0.21360264790E+02 -0.17319687421E+03  0.21561486379E+03  0.12509000000E+03 0.  0.
         25    1    4    4    0    0 -0.36825826124E+02 -0.56954921484E+00 -0.96620890041E+02  0.16229470216E+03  0.12509000000E+03 0.  0.
         25    1    3    3    0    0  0.17106717566E+02  0.21929814005E+02 -0.37518418961E+02  0.13352414160E+03  0.12509000000E+03 0.  0.
<mgrwt>
<rscale>  2 0.40878956E+03</rscale>
<asrwt>0</asrwt>
<pdfrwt beam="1">  1       21 0.15007171E-01 0.40878956E+03</pdfrwt>
<pdfrwt beam="2">  1       21 0.60203667E-01 0.40878956E+03</pdfrwt>
<totfact> 0.94662564E+04</totfact>
</mgrwt>
</event>
<event>
 7    0  0.4775379E-002  0.4524836E+03  0.7546771E-02  0.1026984E+00
         21   -1    0    0  502  501  0.00000000000E+00  0.00000000000E+00  0.16356668616E+02  0.16356668616E+02  0.00000000000E+00 0. -1.
         21   -1    0    0  501  502 -0.00000000000E+00 -0.00000000000E+00 -0.31293258793E+04  0.31293258793E+04  0.00000000000E+00 0. -1.
      99926    2    1    2    0    0  0.00000000000E+00  0.00000000000E+00 -0.31129692107E+04  0.31456825479E+04  0.45248357495E+03 0.  0.
      99925    2    3    3    0    0  0.77755615745E+02  0.72980224540E+02 -0.17550987116E+04  0.17778989944E+04  0.26302337879E+03 0.  0.
         25    1    3    3    0    0 -0.77755615745E+02 -0.72980224540E+02 -0.13578704990E+04  0.13677835535E+04  0.12509000000E+03 0.  0.
         25    1    4    4    0    0  0.32872525258E+02  0.38931098145E+02 -0.11223589993E+04  0.11304571928E+04  0.12509000000E+03 0.  0.
         25    1    4    4    0    0  0.44883090487E+02  0.34049126396E+02 -0.63273971231E+03  0.64744180160E+03  0.12509000000E+03 0.  0.
<mgrwt>
<rscale>  2 0.45248357E+03</rscale>
<asrwt>0</asrwt>
<pdfrwt beam="1">  1       21 0.24053933E-02 0.45248357E+03</pdfrwt>
<pdfrwt beam="2">  1       21 0.46019481E+00 0.45248357E+03</pdfrwt>
<totfact> 0.25647878E+03</totfact>
</mgrwt>
</event>
<event>
 7    0  0.4775379E-002  0.4584454E+03  0.7546771E-02  0.1025233E+00
         21   -1    0    0  502  501  0.00000000000E+00  0.00000000000E+00  0.26403479740E+03  0.26403479740E+03  0.00000000000E+00 0. -1.
         21   -1    0    0  501  502 -0.00000000000E+00 -0.00000000000E+00 -0.19900042047E+03  0.19900042047E+03  0.00000000000E+00 0. -1.
      99926    2    1    2    0    0  0.00000000000E+00  0.00000000000E+00  0.65034376933E+02  0.46303521787E+03  0.45844535422E+03 0.  0.
      99925    2    3    3    0    0  0.81535805830E+02  0.52120034319E+02  0.10597952453E+03  0.29966876226E+03  0.26306866374E+03 0.  0.
         25    1    3    3    0    0 -0.81535805830E+02 -0.52120034319E+02 -0.40945147593E+02  0.16336645562E+03  0.12509000000E+03 0.  0.
         25    1    4    4    0    0  0.71950891171E+02  0.21441583058E+02  0.27258920062E+02  0.14841573046E+03  0.12509000000E+03 0.  0.
         25    1    4    4    0    0  0.95849146592E+01  0.30678451261E+02  0.78720604464E+02  0.15125303180E+03  0.12509000000E+03 0.  0.
<mgrwt>
<rscale>  2 0.45844535E+03</rscale>
<asrwt>0</asrwt>
<pdfrwt beam="1">  1       21 0.38828647E-01 0.45844535E+03</pdfrwt>
<pdfrwt beam="2">  1       21 0.29264768E-01 0.45844535E+03</pdfrwt>
<totfact> 0.66124358E+04</totfact>
</mgrwt>
</event>
<event>
 7    0  0.4775379E-002  0.4634895E+03  0.7546771E-02  0.1023774E+00
         21   -1    0    0  502  501  0.00000000000E+00  0.00000000000E+00  0.95193055135E+02  0.95193055135E+02  0.00000000000E+00 0. -1.
         21   -1    0    0  501  502 -0.00000000000E+00 -0.00000000000E+00 -0.56417595103E+03  0.56417595103E+03  0.00000000000E+00 0. -1.
      99926    2    1    2    0    0  0.00000000000E+00 -0.71054273576E-14 -0.46898289590E+03  0.65936900617E+03  0.46348951407E+03 0.  0.
      99925    2    3    3    0    0  0.52305201441E+02 -0.52502009533E+02 -0.42885808099E+03  0.50853862470E+03  0.26305889849E+03 0.  0.
         25    1    4    4    0    0  0.38818623084E+02 -0.18942248126E+02 -0.28663206410E+03  0.31570736851E+03  0.12509000000E+03 0.  0.
         25    1    3    3    0    0 -0.52305201441E+02  0.52502009533E+02 -0.40124814903E+02  0.15083038147E+03  0.12509000000E+03 0.  0.
         25    1    4    4    0    0  0.13486578357E+02 -0.33559761407E+02 -0.14222601689E+03  0.19283125619E+03  0.12509000000E+03 0.  0.
<mgrwt>
<rscale>  2 0.46348951E+03</rscale>
<asrwt>0</asrwt>
<pdfrwt beam="1">  1       21 0.13998979E-01 0.46348951E+03</pdfrwt>
<pdfrwt beam="2">  1       21 0.82967052E-01 0.46348951E+03</pdfrwt>
<totfact> 0.51620734E+04</totfact>
</mgrwt>
</event>
<event>
 7    0  0.4775379E-002  0.4453822E+03  0.7546771E-02  0.1029108E+00
         21   -1    0    0  502  501  0.00000000000E+00  0.00000000000E+00  0.31107424653E+03  0.31107424653E+03  0.00000000000E+00 0. -1.
         21   -1    0    0  501  502 -0.00000000000E+00 -0.00000000000E+00 -0.15941955042E+03  0.15941955042E+03  0.00000000000E+00 0. -1.
      99926    2    1    2    0    0 -0.14210854715E-13 -0.17763568394E-14  0.15165469611E+03  0.47049379696E+03  0.44538215739E+03 0.  0.
      99925    2    3    3    0    0 -0.97095588242E+02  0.99997160465E+01  0.13349939477E+03  0.31079197905E+03  0.26313878137E+03 0.  0.
         25    1    4    4    0    0 -0.26837819835E+02 -0.80189839988E+01  0.26467596016E+02  0.13089161324E+03  0.12509000000E+03 0.  0.
         25    1    4    4    0    0 -0.70257768407E+02  0.18018700045E+02  0.10703179875E+03  0.17990036580E+03  0.12509000000E+03 0.  0.
         25    1    3    3    0    0  0.97095588242E+02 -0.99997160465E+01  0.18155301342E+02  0.15970181791E+03  0.12509000000E+03 0.  0.
<mgrwt>
<rscale>  2 0.44538216E+03</rscale>
<asrwt>0</asrwt>
<pdfrwt beam="1">  1       21 0.45746213E-01 0.44538216E+03</pdfrwt>
<pdfrwt beam="2">  1       21 0.23444051E-01 0.44538216E+03</pdfrwt>
<totfact> 0.72798856E+04</totfact>
</mgrwt>
</event>
<event>
 7    0  0.4775379E-002  0.4493882E+03  0.7546771E-02  0.1027905E+00
         21   -1    0    0  502  501  0.00000000000E+00  0.00000000000E+00  0.83118249596E+02  0.83118249596E+02  0.00000000000E+00 0.  1.
         21   -1    0    0  501  502 -0.00000000000E+00 -0.00000000000E+00 -0.60741711421E+03  0.60741711421E+03  0.00000000000E+00 0.  1.
      99926    2    1    2    0    0 -0.14210854715E-13  0.00000000000E+00 -0.52429886462E+03  0.69053536381E+03  0.44938823887E+03 0.  0.
      99925    2    3    3    0    0  0.10461276494E+03  0.19532603627E+02 -0.30648927684E+03  0.41774629178E+03  0.26315572250E+03 0.  0.
         25    1    4    4    0    0  0.37915008917E+02  0.75207285222E+01 -0.90680387185E+02  0.15926251906E+03  0.12509000000E+03 0.  0.
         25    1    3    3    0    0 -0.10461276494E+03 -0.19532603627E+02 -0.21780958778E+03  0.27278907203E+03  0.12509000000E+03 0.  0.
         25    1    4    4    0    0  0.66697756020E+02  0.12011875104E+02 -0.21580888966E+03  0.25848377271E+03  0.12509000000E+03 0.  0.
<mgrwt>
<rscale>  2 0.44938824E+03</rscale>
<asrwt>0</asrwt>
<pdfrwt beam="1">  1       21 0.12223272E-01 0.44938824E+03</pdfrwt>
<pdfrwt beam="2">  1       21 0.89326046E-01 0.44938824E+03</pdfrwt>
<totfact> 0.55846319E+04</totfact>
</mgrwt>
</event>
<event>
 7    0  0.4775379E-002  0.4559321E+03  0.7546771E-02  0.1025968E+00
         21   -1    0    0  502  501  0.00000000000E+00  0.00000000000E+00  0.10124778381E+03  0.10124778381E+03  0.00000000000E+00 0.  1.
         21   -1    0    0  501  502 -0.00000000000E+00 -0.00000000000E+00 -0.51328066611E+03  0.51328066611E+03  0.00000000000E+00 0.  1.
      99926    2    1    2    0    0  0.00000000000E+00 -0.44408920985E-14 -0.41203288230E+03  0.61452844992E+03  0.45593214371E+03 0.  0.
      99925    2    3    3    0    0 -0.47745257216E+02  0.59786835939E+01 -0.39842414835E+03  0.47981371434E+03  0.26299057823E+03 0.  0.
         25    1    4    4    0    0 -0.15378127265E+02  0.37782009204E+02 -0.16399522410E+03  0.21025201223E+03  0.12509000000E+03 0.  0.
         25    1    4    4    0    0 -0.32367129951E+02 -0.31803325611E+02 -0.23442892425E+03  0.26956170211E+03  0.12509000000E+03 0.  0.
         25    1    3    3    0    0  0.47745257216E+02 -0.59786835939E+01 -0.13608733951E+02  0.13471473559E+03  0.12509000000E+03 0.  0.
<mgrwt>
<rscale>  2 0.45593214E+03</rscale>
<asrwt>0</asrwt>
<pdfrwt beam="1">  1       21 0.14889380E-01 0.45593214E+03</pdfrwt>
<pdfrwt beam="2">  1       21 0.75482453E-01 0.45593214E+03</pdfrwt>
<totfact> 0.57369281E+04</totfact>
</mgrwt>
</event>
<event>
 7    0  0.4775379E-002  0.4528598E+03  0.7546771E-02  0.1026873E+00
         21   -1    0    0  502  501  0.00000000000E+00  0.00000000000E+00  0.12775838189E+04  0.12775838189E+04  0.00000000000E+00 0.  1.
         21   -1    0    0  501  502 -0.00000000000E+00 -0.00000000000E+00 -0.40130821691E+02  0.40130821691E+02  0.00000000000E+00 0.  1.
      99926    2    1    2    0    0  0.00000000000E+00  0.35527136788E-14  0.12374529973E+04  0.13177146406E+04  0.45285975062E+03 0.  0.
      99925    2    3    3    0    0 -0.87666457662E+02  0.29755152956E+02  0.95936468789E+03  0.99904334787E+03  0.26293769154E+03 0.  0.
         25    1    3    3    0    0  0.87666457662E+02 -0.29755152956E+02  0.27808830937E+03  0.31867129277E+03  0.12509000000E+03 0.  0.
         25    1    4    4    0    0 -0.58743672494E+02 -0.19598403242E+02  0.53711077469E+03  0.55495081661E+03  0.12509000000E+03 0.  0.
         25    1    4    4    0    0 -0.28922785168E+02  0.49353556198E+02  0.42225391320E+03  0.44409253126E+03  0.12509000000E+03 0.  0.
<mgrwt>
<rscale>  2 0.45285975E+03</rscale>
<asrwt>0</asrwt>
<pdfrwt beam="1">  1       21 0.18787995E+00 0.45285975E+03</pdfrwt>
<pdfrwt beam="2">  1       21 0.59015923E-02 0.45285975E+03</pdfrwt>
<totfact> 0.29085609E+04</totfact>
</mgrwt>
</event>
<event>
 7    0  0.4775379E-002  0.4565370E+03  0.7546771E-02  0.1025790E+00
         21   -1    0    0  502  501  0.00000000000E+00  0.00000000000E+00  0.21208904034E+03  0.21208904034E+03  0.00000000000E+00 0.  1.
         21   -1    0    0  501  502 -0.00000000000E+00 -0.00000000000E+00 -0.24568227730E+03  0.24568227730E+03  0.00000000000E+00 0.  1.
      99926    2    1    2    0    0  0.00000000000E+00  0.00000000000E+00 -0.33593236960E+02  0.45777131764E+03  0.45653704525E+03 0.  0.
      99925    2    3    3    0    0 -0.52737330392E+02  0.18729808850E+02  0.79262280071E+02  0.28024411527E+03  0.26291105596E+03 0.  0.
         25    1    4    4    0    0 -0.59002303588E+02  0.10363313047E+02  0.15811472580E+02  0.13959291118E+03  0.12509000000E+03 0.  0.
         25    1    4    4    0    0  0.62649731961E+01  0.83664958031E+01  0.63450807491E+02  0.14065120409E+03  0.12509000000E+03 0.  0.
         25    1    3    3    0    0  0.52737330392E+02 -0.18729808850E+02 -0.11285551703E+03  0.17752720237E+03  0.12509000000E+03 0.  0.
<mgrwt>
<rscale>  2 0.45653705E+03</rscale>
<asrwt>0</asrwt>
<pdfrwt beam="1">  1       21 0.31189565E-01 0.45653705E+03</pdfrwt>
<pdfrwt beam="2">  1       21 0.36129746E-01 0.45653705E+03</pdfrwt>
<totfact> 0.67511532E+04</totfact>
</mgrwt>
</event>
<event>
 7    0  0.4775379E-002  0.4438676E+03  0.7546771E-02  0.1029567E+00
         21   -1    0    0  502  501  0.00000000000E+00  0.00000000000E+00  0.35712268966E+03  0.35712268966E+03  0.00000000000E+00 0.  1.
         21   -1    0    0  501  502 -0.00000000000E+00 -0.00000000000E+00 -0.13792068204E+03  0.13792068204E+03  0.00000000000E+00 0.  1.
      99926    2    1    2    0    0  0.00000000000E+00  0.00000000000E+00  0.21920200761E+03  0.49504337170E+03  0.44386757003E+03 0.  0.
      99925    2    3    3    0    0 -0.11993360345E+02  0.83637222982E+02  0.74993066232E+02  0.28627854556E+03  0.26304452076E+03 0.  0.
         25    1    4    4    0    0  0.11125830221E+01  0.49077311266E+02  0.78816127564E+02  0.15578610460E+03  0.12509000000E+03 0.  0.
         25    1    3    3    0    0  0.11993360345E+02 -0.83637222982E+02  0.14420894138E+03  0.20876482614E+03  0.12509000000E+03 0.  0.
         25    1    4    4    0    0 -0.13105943367E+02  0.34559911716E+02 -0.38230613320E+01  0.13049244096E+03  0.12509000000E+03 0.  0.
<mgrwt>
<rscale>  2 0.44386757E+03</rscale>
<asrwt>0</asrwt>
<pdfrwt beam="1">  1       21 0.52518042E-01 0.44386757E+03</pdfrwt>
<pdfrwt beam="2">  1       21 0.20282453E-01 0.44386757E+03</pdfrwt>
<totfact> 0.71754472E+04</totfact>
</mgrwt>
</event>
<event>
 7    0  0.4775379E-002  0.4651379E+03  0.7546771E-02  0.1023302E+00
         21   -1    0    0  502  501  0.00000000000E+00  0.00000000000E+00  0.82680210908E+02  0.82680210908E+02  0.00000000000E+00 0.  1.
         21   -1    0    0  501  502 -0.00000000000E+00 -0.00000000000E+00 -0.65418686931E+03  0.65418686931E+03  0.00000000000E+00 0.  1.
      99926    2    1    2    0    0 -0.35527136788E-14  0.28421709430E-13 -0.57150665840E+03  0.73686708022E+03  0.46513786484E+03 0.  0.
      99925    2    3    3    0    0  0.19911165895E+02 -0.11975570430E+03 -0.33169710210E+03  0.44039783285E+03  0.26303878117E+03 0.  0.
         25    1    4    4    0    0  0.64407598972E+01 -0.10403313731E+03 -0.19178027239E+03  0.25157813503E+03  0.12509000000E+03 0.  0.
         25    1    4    4    0    0  0.13470405997E+02 -0.15722566997E+02 -0.13991682971E+03  0.18881969783E+03  0.12509000000E+03 0.  0.
         25    1    3    3    0    0 -0.19911165895E+02  0.11975570430E+03 -0.23980955630E+03  0.29646924737E+03  0.12509000000E+03 0.  0.
<mgrwt>
<rscale>  2 0.46513786E+03</rscale>
<asrwt>0</asrwt>
<pdfrwt beam="1">  1       21 0.12158854E-01 0.46513786E+03</pdfrwt>
<pdfrwt beam="2">  1       21 0.96203952E-01 0.46513786E+03</pdfrwt>
<totfact> 0.47080258E+04</totfact>
</mgrwt>
</event>
<event>
 7    0  0.4775379E-002  0.4579413E+03  0.7546771E-02  0.1025380E+00
         21   -1    0    0  502  501  0.00000000000E+00  0.00000000000E+00  0.24800551779E+03  0.24800551779E+03  0.00000000000E+00 0. -1.
         21   -1    0    0  501  502 -0.00000000000E+00 -0.00000000000E+00 -0.21139673918E+03  0.21139673918E+03  0.00000000000E+00 0. -1.
      99926    2    1    2    0    0  0.00000000000E+00  0.35527136788E-14  0.36608778612E+02  0.45940225697E+03  0.45794129650E+03 0.  0.
      99925    2    3    3    0    0  0.10168829818E+03 -0.19570670401E+02  0.75257627859E+02  0.29247483929E+03  0.26297205163E+03 0.  0.
         25    1    4    4    0    0  0.90638251023E+02 -0.22217644323E+02  0.29721517248E+02  0.15887036525E+03  0.12509000000E+03 0.  0.
         25    1    3    3    0    0 -0.10168829818E+03  0.19570670401E+02 -0.38648849248E+02  0.16692741769E+03  0.12509000000E+03 0.  0.
         25    1    4    4    0    0  0.11050047159E+02  0.26469739226E+01  0.45536110611E+02  0.13360447404E+03  0.12509000000E+03 0.  0.
<mgrwt>
<rscale>  2 0.45794130E+03</rscale>
<asrwt>0</asrwt>
<pdfrwt beam="1">  1       21 0.36471400E-01 0.45794130E+03</pdfrwt>
<pdfrwt beam="2">  1       21 0.31087756E-01 0.45794130E+03</pdfrwt>
<totfact> 0.66646682E+04</totfact>
</mgrwt>
</event>
<event>
 7    0  0.4775379E-002  0.4568853E+03  0.7546771E-02  0.1025688E+00
         21   -1    0    0  502  501  0.00000000000E+00  0.00000000000E+00  0.14699515142E+03  0.14699515142E+03  0.00000000000E+00 0.  1.
         21   -1    0    0  501  502 -0.00000000000E+00 -0.00000000000E+00 -0.35501876816E+03  0.35501876816E+03  0.00000000000E+00 0.  1.
      99926    2    1    2    0    0  0.00000000000E+00 -0.35527136788E-14 -0.20802361675E+03  0.50201391958E+03  0.45688527042E+03 0.  0.
      99925    2    3    3    0    0  0.10972799964E+03 -0.26484967031E+02 -0.10718939620E+03  0.30565522862E+03  0.26304726713E+03 0.  0.
         25    1    3    3    0    0 -0.10972799964E+03  0.26484967031E+02 -0.10083422055E+03  0.19635869096E+03  0.12509000000E+03 0.  0.
         25    1    4    4    0    0  0.41182805385E+02 -0.33314331766E+02 -0.17358338203E+02  0.13694775707E+03  0.12509000000E+03 0.  0.
         25    1    4    4    0    0  0.68545194250E+02  0.68293647357E+01 -0.89831057992E+02  0.16870747155E+03  0.12509000000E+03 0.  0.
<mgrwt>
<rscale>  2 0.45688527E+03</rscale>
<asrwt>0</asrwt>
<pdfrwt beam="1">  1       21 0.21616935E-01 0.45688527E+03</pdfrwt>
<pdfrwt beam="2">  1       21 0.52208641E-01 0.45688527E+03</pdfrwt>
<totfact> 0.64163799E+04</totfact>
</mgrwt>
</event>
<event>
 7    0  0.4775379E-002  0.4516829E+03  0.7546771E-02  0.1027221E+00
         21   -1    0    0  502  501  0.00000000000E+00  0.00000000000E+00  0.54857526810E+03  0.54857526810E+03  0.00000000000E+00 0. -1.
         21   -1    0    0  501  502 -0.00000000000E+00 -0.00000000000E+00 -0.92976033044E+02  0.92976033044E+02  0.00000000000E+00 0. -1.
      99926    2    1    2    0    0  0.00000000000E+00  0.14210854715E-13  0.45559923505E+03  0.64155130114E+03  0.45168286332E+03 0.  0.
      99925    2    3    3    0    0 -0.65936079709E+02  0.64678489531E+02  0.20589087757E+03  0.34738698395E+03  0.26411321347E+03 0.  0.
         25    1    3    3    0    0  0.65936079709E+02 -0.64678489531E+02  0.24970835748E+03  0.29416431720E+03  0.12509000000E+03 0.  0.
         25    1    4    4    0    0  0.45384078190E+01  0.48929277436E+02  0.11366311363E+03  0.17601557555E+03  0.12509000000E+03 0.  0.
         25    1    4    4    0    0 -0.70474487528E+02  0.15749212095E+02  0.92227763943E+02  0.17137140840E+03  0.12509000000E+03 0.  0.
<mgrwt>
<rscale>  2 0.45168286E+03</rscale>
<asrwt>0</asrwt>
<pdfrwt beam="1">  1       21 0.80672832E-01 0.45168286E+03</pdfrwt>
<pdfrwt beam="2">  1       21 0.13672946E-01 0.45168286E+03</pdfrwt>
<totfact> 0.57686045E+04</totfact>
</mgrwt>
</event>
<event>
 7    0  0.4775379E-002  0.4571887E+03  0.7546771E-02  0.1025600E+00
         21   -1    0    0  502  501  0.00000000000E+00  0.00000000000E+00  0.35945598991E+03  0.35945598991E+03  0.00000000000E+00 0. -1.
         21   -1    0    0  501  502 -0.00000000000E+00 -0.00000000000E+00 -0.14537353220E+03  0.14537353220E+03  0.00000000000E+00 0. -1.
      99926    2    1    2    0    0  0.00000000000E+00  0.71054273576E-14  0.21408245772E+03  0.50482952211E+03  0.45718874406E+03 0.  0.
      99925    2    3    3    0    0  0.43193343564E+02 -0.41036901745E+02  0.24311909046E+03  0.36326566241E+03  0.26325910641E+03 0.  0.
         25    1    3    3    0    0 -0.43193343564E+02  0.41036901745E+02 -0.29036632739E+02  0.14156385970E+03  0.12509000000E+03 0.  0.
         25    1    4    4    0    0  0.20825017901E+01  0.63040703195E+01  0.14886567580E+03  0.19455738394E+03  0.12509000000E+03 0.  0.
         25    1    4    4    0    0  0.41110841774E+02 -0.47340972065E+02  0.94253414657E+02  0.16870827846E+03  0.12509000000E+03 0.  0.
<mgrwt>
<rscale>  2 0.45718874E+03</rscale>
<asrwt>0</asrwt>
<pdfrwt beam="1">  1       21 0.52861175E-01 0.45718874E+03</pdfrwt>
<pdfrwt beam="2">  1       21 0.21378461E-01 0.45718874E+03</pdfrwt>
<totfact> 0.63816758E+04</totfact>
</mgrwt>
</event>
<event>
 7    0  0.4775379E-002  0.4546016E+03  0.7546771E-02  0.1026359E+00
         21   -1    0    0  502  501  0.00000000000E+00  0.00000000000E+00  0.35397070348E+03  0.35397070348E+03  0.00000000000E+00 0.  1.
         21   -1    0    0  501  502 -0.00000000000E+00 -0.00000000000E+00 -0.14596024350E+03  0.14596024350E+03  0.00000000000E+00 0.  1.
      99926    2    1    2    0    0  0.00000000000E+00  0.00000000000E+00  0.20801045997E+03  0.49993094698E+03  0.45460158413E+03 0.  0.
      99925    2    3    3    0    0 -0.80637320467E+02  0.18501331636E+02  0.46607035267E+02  0.27960561859E+03  0.26298747021E+03 0.  0.
         25    1    4    4    0    0 -0.61551819960E+02  0.34191305444E+02  0.50140183265E+02  0.15205005092E+03  0.12509000000E+03 0.  0.
         25    1    3    3    0    0  0.80637320467E+02 -0.18501331636E+02  0.16140342471E+03  0.22032532839E+03  0.12509000000E+03 0.  0.
         25    1    4    4    0    0 -0.19085500507E+02 -0.15689973808E+02 -0.35331479977E+01  0.12755556767E+03  0.12509000000E+03 0.  0.
<mgrwt>
<rscale>  2 0.45460158E+03</rscale>
<asrwt>0</asrwt>
<pdfrwt beam="1">  1       21 0.52054515E-01 0.45460158E+03</pdfrwt>
<pdfrwt beam="2">  1       21 0.21464742E-01 0.45460158E+03</pdfrwt>
<totfact> 0.65482365E+04</totfact>
</mgrwt>
</event>
<event>
 7    0  0.4775379E-002  0.4553805E+03  0.7546771E-02  0.1026130E+00
         21   -1    0    0  502  501  0.00000000000E+00  0.00000000000E+00  0.24415566995E+04  0.24415566995E+04  0.00000000000E+00 0. -1.
         21   -1    0    0  501  502 -0.00000000000E+00 -0.00000000000E+00 -0.21233523882E+02  0.21233523882E+02  0.00000000000E+00 0. -1.
      99926    2    1    2    0    0  0.71054273576E-14  0.14210854715E-13  0.24203231756E+04  0.24627902233E+04  0.45538051117E+03 0.  0.
      99925    2    3    3    0    0  0.52317171932E+02  0.10051690361E+03  0.15588766440E+04  0.15849642900E+04  0.26301078867E+03 0.  0.
         25    1    4    4    0    0  0.47947418073E+02  0.81519025800E+02  0.97394864186E+03  0.98649266168E+03  0.12509000000E+03 0.  0.
         25    1    4    4    0    0  0.43697538589E+01  0.18997877814E+02  0.58492800213E+03  0.59847162830E+03  0.12509000000E+03 0.  0.
         25    1    3    3    0    0 -0.52317171932E+02 -0.10051690361E+03  0.86144653159E+03  0.87782593336E+03  0.12509000000E+03 0.  0.
<mgrwt>
<rscale>  2 0.45538051E+03</rscale>
<asrwt>0</asrwt>
<pdfrwt beam="1">  1       21 0.35905226E+00 0.45538051E+03</pdfrwt>
<pdfrwt beam="2">  1       21 0.31225787E-02 0.45538051E+03</pdfrwt>
<totfact> 0.74979053E+03</totfact>
</mgrwt>
</event>
<event>
 7    0  0.4775379E-002  0.4646244E+03  0.7546771E-02  0.1023448E+00
         21   -1    0    0  502  501  0.00000000000E+00  0.00000000000E+00  0.13588623707E+03  0.13588623707E+03  0.00000000000E+00 0.  1.
         21   -1    0    0  501  502 -0.00000000000E+00 -0.00000000000E+00 -0.39716276017E+03  0.39716276017E+03  0.00000000000E+00 0.  1.
      99926    2    1    2    0    0  0.00000000000E+00 -0.14210854715E-13 -0.26127652310E+03  0.53304899724E+03  0.46462437725E+03 0.  0.
      99925    2    3    3    0    0 -0.50091754937E+02  0.92708498773E+02 -0.92452794719E+02  0.29798941113E+03  0.26295649876E+03 0.  0.
         25    1    3    3    0    0  0.50091754937E+02 -0.92708498773E+02 -0.16882372838E+03  0.23505958611E+03  0.12509000000E+03 0.  0.
         25    1    4    4    0    0 -0.25637460725E+02  0.57006992662E+01 -0.28604696509E+02  0.13097905988E+03  0.12509000000E+03 0.  0.
         25    1    4    4    0    0 -0.24454294212E+02  0.87007799507E+02 -0.63848098210E+02  0.16701035125E+03  0.12509000000E+03 0.  0.
<mgrwt>
<rscale>  2 0.46462438E+03</rscale>
<asrwt>0</asrwt>
<pdfrwt beam="1">  1       21 0.19983271E-01 0.46462438E+03</pdfrwt>
<pdfrwt beam="2">  1       21 0.58406287E-01 0.46462438E+03</pdfrwt>
<totfact> 0.58415318E+04</totfact>
</mgrwt>
</event>
<event>
 7    0  0.4775379E-002  0.4528859E+03  0.7546771E-02  0.1026865E+00
         21   -1    0    0  502  501  0.00000000000E+00  0.00000000000E+00  0.22651902987E+03  0.22651902987E+03  0.00000000000E+00 0. -1.
         21   -1    0    0  501  502 -0.00000000000E+00 -0.00000000000E+00 -0.22636691950E+03  0.22636691950E+03  0.00000000000E+00 0. -1.
      99926    2    1    2    0    0  0.14210854715E-13  0.00000000000E+00  0.15211036917E+00  0.45288594936E+03  0.45288592382E+03 0.  0.
      99925    2    3    3    0    0 -0.94062705347E+02  0.38531183480E+02  0.44921582838E+02  0.28560098769E+03  0.26309224794E+03 0.  0.
         25    1    4    4    0    0 -0.65852955911E+02 -0.38632916844E+01  0.51190504706E+02  0.15039784805E+03  0.12509000000E+03 0.  0.
         25    1    4    4    0    0 -0.28209749436E+02  0.42394475164E+02 -0.62689218671E+01  0.13520313964E+03  0.12509000000E+03 0.  0.
         25    1    3    3    0    0  0.94062705347E+02 -0.38531183480E+02 -0.44769472469E+02  0.16728496168E+03  0.12509000000E+03 0.  0.
<mgrwt>
<rscale>  2 0.45288592E+03</rscale>
<asrwt>0</asrwt>
<pdfrwt beam="1">  1       21 0.33311622E-01 0.45288592E+03</pdfrwt>
<pdfrwt beam="2">  1       21 0.33289253E-01 0.45288592E+03</pdfrwt>
<totfact> 0.69872136E+04</totfact>
</mgrwt>
</event>
<event>
 7    0  0.4775379E-002  0.4541330E+03  0.7546771E-02  0.1026497E+00
         21   -1    0    0  502  501  0.00000000000E+00  0.00000000000E+00  0.75117363162E+03  0.75117363162E+03  0.00000000000E+00 0. -1.
         21   -1    0    0  501  502 -0.00000000000E+00 -0.00000000000E+00 -0.68638171381E+02  0.68638171381E+02  0.00000000000E+00 0. -1.
      99926    2    1    2    0    0 -0.71054273576E-14  0.00000000000E+00  0.68253546023E+03  0.81981180300E+03  0.45413295174E+03 0.  0.
      99925    2    3    3    0    0  0.52744523638E+02 -0.98355796256E+02  0.45415406370E+03  0.53650734166E+03  0.26292273893E+03 0.  0.
         25    1    3    3    0    0 -0.52744523638E+02  0.98355796256E+02  0.22838139654E+03  0.28330446134E+03  0.12509000000E+03 0.  0.
         25    1    4    4    0    0  0.53330187460E+02 -0.55593007841E+02  0.18158290161E+03  0.23356915394E+03  0.12509000000E+03 0.  0.
         25    1    4    4    0    0 -0.58566382195E+00 -0.42762788415E+02  0.27257116209E+03  0.30293818772E+03  0.12509000000E+03 0.  0.
<mgrwt>
<rscale>  2 0.45413295E+03</rscale>
<asrwt>0</asrwt>
<pdfrwt beam="1">  1       21 0.11046671E+00 0.45413295E+03</pdfrwt>
<pdfrwt beam="2">  1       21 0.10093849E-01 0.45413295E+03</pdfrwt>
<totfact> 0.47141334E+04</totfact>
</mgrwt>
</event>
<event>
 7    0  0.4775379E-002  0.4447748E+03  0.7546771E-02  0.1029292E+00
         21   -1    0    0  502  501  0.00000000000E+00  0.00000000000E+00  0.91585364378E+03  0.91585364378E+03  0.00000000000E+00 0. -1.
         21   -1    0    0  501  502 -0.00000000000E+00 -0.00000000000E+00 -0.54000060738E+02  0.54000060738E+02  0.00000000000E+00 0. -1.
      99926    2    1    2    0    0  0.00000000000E+00  0.00000000000E+00  0.86185358304E+03  0.96985370452E+03  0.44477478522E+03 0.  0.
      99925    2    3    3    0    0 -0.24873697570E+02  0.95629013466E+02  0.61275205150E+03  0.67411278722E+03  0.26305772034E+03 0.  0.
         25    1    4    4    0    0 -0.28469596853E+02  0.11447098096E+02  0.24917714030E+03  0.28049654070E+03  0.12509000000E+03 0.  0.
         25    1    3    3    0    0  0.24873697570E+02 -0.95629013466E+02  0.24910153154E+03  0.29574091730E+03  0.12509000000E+03 0.  0.
         25    1    4    4    0    0  0.35958992824E+01  0.84181915370E+02  0.36357491120E+03  0.39361624652E+03  0.12509000000E+03 0.  0.
<mgrwt>
<rscale>  2 0.44477479E+03</rscale>
<asrwt>0</asrwt>
<pdfrwt beam="1">  1       21 0.13468435E+00 0.44477479E+03</pdfrwt>
<pdfrwt beam="2">  1       21 0.79411860E-02 0.44477479E+03</pdfrwt>
<totfact> 0.43740462E+04</totfact>
</mgrwt>
</event>
<event>
 7    0  0.4775379E-002  0.4508609E+03  0.7546771E-02  0.1027466E+00
         21   -1    0    0  502  501  0.00000000000E+00  0.00000000000E+00  0.51417721106E+03  0.51417721106E+03  0.00000000000E+00 0. -1.
         21   -1    0    0  501  502 -0.00000000000E+00 -0.00000000000E+00 -0.98835346694E+02  0.98835346694E+02  0.00000000000E+00 0. -1.
      99926    2    1    2    0    0  0.00000000000E+00  0.00000000000E+00  0.41534186436E+03  0.61301255775E+03  0.45086087840E+03 0.  0.
      99925    2    3    3    0    0 -0.96913357902E+02 -0.15411764885E+02  0.19729888836E+03  0.34316080415E+03  0.26306418365E+03 0.  0.
         25    1    4    4    0    0 -0.50294986843E+02  0.28624892138E+02  0.11995451722E+03  0.18271717065E+03  0.12509000000E+03 0.  0.
         25    1    3    3    0    0  0.96913357902E+02  0.15411764885E+02  0.21804297600E+03  0.26985175360E+03  0.12509000000E+03 0.  0.
         25    1    4    4    0    0 -0.46618371059E+02 -0.44036657023E+02  0.77344371144E+02  0.16044363350E+03  0.12509000000E+03 0.  0.
<mgrwt>
<rscale>  2 0.45086088E+03</rscale>
<asrwt>0</asrwt>
<pdfrwt beam="1">  1       21 0.75614294E-01 0.45086088E+03</pdfrwt>
<pdfrwt beam="2">  1       21 0.14534610E-01 0.45086088E+03</pdfrwt>
<totfact> 0.59815961E+04</totfact>
</mgrwt>
</event>
<event>
 7    0  0.4775379E-002  0.4527030E+03  0.7546771E-02  0.1026919E+00
         21   -1    0    0  502  501  0.00000000000E+00  0.00000000000E+00  0.42289217886E+03  0.42289217886E+03  0.00000000000E+00 0. -1.
         21   -1    0    0  501  502 -0.00000000000E+00 -0.00000000000E+00 -0.12115382464E+03  0.12115382464E+03  0.00000000000E+00 0. -1.
      99926    2    1    2    0    0  0.00000000000E+00  0.00000000000E+00  0.30173835422E+03  0.54404600350E+03  0.45270301470E+03 0.  0.
      99925    2    3    3    0    0  0.68790798901E+01  0.78081670515E+02  0.28469355484E+03  0.39544552471E+03  0.26302599460E+03 0.  0.
         25    1    3    3    0    0 -0.68790798901E+01 -0.78081670515E+02  0.17044799381E+02  0.14860047879E+03  0.12509000000E+03 0.  0.
         25    1    4    4    0    0  0.12697459344E+02  0.79187901015E+02  0.14103674837E+03  0.20486781502E+03  0.12509000000E+03 0.  0.
         25    1    4    4    0    0 -0.58183794535E+01 -0.11062304998E+01  0.14365680647E+03  0.19057770969E+03  0.12509000000E+03 0.  0.
<mgrwt>
<rscale>  2 0.45270301E+03</rscale>
<asrwt>0</asrwt>
<pdfrwt beam="1">  1       21 0.62190026E-01 0.45270301E+03</pdfrwt>
<pdfrwt beam="2">  1       21 0.17816739E-01 0.45270301E+03</pdfrwt>
<totfact> 0.63406331E+04</totfact>
</mgrwt>
</event>
<event>
 7    0  0.4775379E-002  0.4474688E+03  0.7546771E-02  0.1028480E+00
         21   -1    0    0  502  501  0.00000000000E+00  0.00000000000E+00  0.43758347643E+03  0.43758347643E+03  0.00000000000E+00 0.  1.
         21   -1    0    0  501  502 -0.00000000000E+00 -0.00000000000E+00 -0.11439436442E+03  0.11439436442E+03  0.00000000000E+00 0.  1.
      99926    2    1    2    0    0  0.00000000000E+00  0.00000000000E+00  0.32318911201E+03  0.55197784085E+03  0.44746880860E+03 0.  0.
      99925    2    3    3    0    0 -0.53523835813E+02  0.52847955661E+02  0.11282428179E+03  0.29593374834E+03  0.26303945983E+03 0.  0.
         25    1    4    4    0    0 -0.54797410954E+02  0.56574336420E+02  0.51233538207E+02  0.15644742032E+03  0.12509000000E+03 0.  0.
         25    1    3    3    0    0  0.53523835813E+02 -0.52847955661E+02  0.21036483022E+03  0.25604409251E+03  0.12509000000E+03 0.  0.
         25    1    4    4    0    0  0.12735751413E+01 -0.37263807595E+01  0.61590743585E+02  0.13948632801E+03  0.12509000000E+03 0.  0.
<mgrwt>
<rscale>  2 0.44746881E+03</rscale>
<asrwt>0</asrwt>
<pdfrwt beam="1">  1       21 0.64350511E-01 0.44746881E+03</pdfrwt>
<pdfrwt beam="2">  1       21 0.16822701E-01 0.44746881E+03</pdfrwt>
<totfact> 0.65555509E+04</totfact>
</mgrwt>
</event>
<event>
 7    0  0.4775379E-002  0.4649925E+03  0.7546771E-02  0.1023343E+00
         21   -1    0    0  502  501  0.00000000000E+00  0.00000000000E+00  0.21261772146E+03  0.21261772146E+03  0.00000000000E+00 0. -1.
         21   -1    0    0  501  502 -0.00000000000E+00 -0.00000000000E+00 -0.25423331716E+03  0.25423331716E+03  0.00000000000E+00 0. -1.
      99926    2    1    2    0    0  0.00000000000E+00  0.71054273576E-14 -0.41615595701E+02  0.46685103862E+03  0.46499251011E+03 0.  0.
      99925    2    3    3    0    0  0.38402850735E+02  0.63409963227E+02  0.71752532052E+02  0.28247250714E+03  0.26295758033E+03 0.  0.
         25    1    4    4    0    0  0.16204783777E+02  0.66542979582E+02  0.15349842552E+02  0.14343531265E+03  0.12509000000E+03 0.  0.
         25    1    3    3    0    0 -0.38402850735E+02 -0.63409963227E+02 -0.11336812775E+03  0.18437853148E+03  0.12509000000E+03 0.  0.
         25    1    4    4    0    0  0.22198066958E+02 -0.31330163553E+01  0.56402689500E+02  0.13903719449E+03  0.12509000000E+03 0.  0.
<mgrwt>
<rscale>  2 0.46499251E+03</rscale>
<asrwt>0</asrwt>
<pdfrwt beam="1">  1       21 0.31267312E-01 0.46499251E+03</pdfrwt>
<pdfrwt beam="2">  1       21 0.37387252E-01 0.46499251E+03</pdfrwt>
<totfact> 0.62548652E+04</totfact>
</mgrwt>
</event>
<event>
 7    0  0.4775379E-002  0.4532196E+03  0.7546771E-02  0.1026766E+00
         21   -1    0    0  502  501  0.00000000000E+00  0.00000000000E+00  0.31261567170E+03  0.31261567170E+03  0.00000000000E+00 0.  1.
         21   -1    0    0  501  502 -0.00000000000E+00 -0.00000000000E+00 -0.16426559748E+03  0.16426559748E+03  0.00000000000E+00 0.  1.
      99926    2    1    2    0    0 -0.14210854715E-13  0.00000000000E+00  0.14835007421E+03  0.47688126918E+03  0.45321959399E+03 0.  0.
      99925    2    3    3    0    0 -0.86425189583E+02 -0.44161945504E+02  0.15382276452E+03  0.31846078671E+03  0.26141200999E+03 0.  0.
         25    1    3    3    0    0  0.86425189583E+02  0.44161945504E+02 -0.54726903054E+01  0.15842048246E+03  0.12509000000E+03 0.  0.
         25    1    4    4    0    0 -0.33618245215E+02 -0.53082789387E+02  0.10045042132E+03  0.17229557215E+03  0.12509000000E+03 0.  0.
         25    1    4    4    0    0 -0.52806944368E+02  0.89208438830E+01  0.53372343202E+02  0.14616521456E+03  0.12509000000E+03 0.  0.
<mgrwt>
<rscale>  2 0.45321959E+03</rscale>
<asrwt>0</asrwt>
<pdfrwt beam="1">  1       21 0.45972893E-01 0.45321959E+03</pdfrwt>
<pdfrwt beam="2">  1       21 0.24156705E-01 0.45321959E+03</pdfrwt>
<totfact> 0.67881994E+04</totfact>
</mgrwt>
</event>
<event>
 7    0  0.4775379E-002  0.4578833E+03  0.7546771E-02  0.1025397E+00
         21   -1    0    0  502  501  0.00000000000E+00  0.00000000000E+00  0.52786271577E+03  0.52786271577E+03  0.00000000000E+00 0.  1.
         21   -1    0    0  501  502 -0.00000000000E+00 -0.00000000000E+00 -0.99295284925E+02  0.99295284925E+02  0.00000000000E+00 0.  1.
      99926    2    1    2    0    0  0.00000000000E+00  0.00000000000E+00  0.42856743084E+03  0.62715800069E+03  0.45788329851E+03 0.  0.
      99925    2    3    3    0    0  0.13686485780E+02  0.38579492115E+02  0.41739855313E+03  0.49506731580E+03  0.26304828058E+03 0.  0.
         25    1    4    4    0    0  0.35769722091E+02  0.44143773388E+02  0.18893728434E+03  0.23360854279E+03  0.12509000000E+03 0.  0.
         25    1    4    4    0    0 -0.22083236312E+02 -0.55642812731E+01  0.22846126879E+03  0.26145877302E+03  0.12509000000E+03 0.  0.
         25    1    3    3    0    0 -0.13686485780E+02 -0.38579492115E+02  0.11168877711E+02  0.13209068489E+03  0.12509000000E+03 0.  0.
<mgrwt>
<rscale>  2 0.45788330E+03</rscale>
<asrwt>0</asrwt>
<pdfrwt beam="1">  1       21 0.77626869E-01 0.45788330E+03</pdfrwt>
<pdfrwt beam="2">  1       21 0.14602248E-01 0.45788330E+03</pdfrwt>
<totfact> 0.55756902E+04</totfact>
</mgrwt>
</event>
<event>
 7    0  0.4775379E-002  0.4537471E+03  0.7546771E-02  0.1026610E+00
         21   -1    0    0  502  501  0.00000000000E+00  0.00000000000E+00  0.13139702182E+03  0.13139702182E+03  0.00000000000E+00 0. -1.
         21   -1    0    0  501  502 -0.00000000000E+00 -0.00000000000E+00 -0.39172579065E+03  0.39172579065E+03  0.00000000000E+00 0. -1.
      99926    2    1    2    0    0  0.00000000000E+00  0.00000000000E+00 -0.26032876883E+03  0.52312281247E+03  0.45374707607E+03 0.  0.
      99925    2    3    3    0    0  0.42984889436E+02 -0.44585170364E+02 -0.27159822406E+03  0.38308693543E+03  0.26297236861E+03 0.  0.
         25    1    4    4    0    0  0.79826332322E+01 -0.37335956175E+02 -0.18591247504E+03  0.22730739657E+03  0.12509000000E+03 0.  0.
         25    1    3    3    0    0 -0.42984889436E+02  0.44585170364E+02  0.11269455228E+02  0.14003587704E+03  0.12509000000E+03 0.  0.
         25    1    4    4    0    0  0.35002256204E+02 -0.72492141891E+01 -0.85685749015E+02  0.15577953887E+03  0.12509000000E+03 0.  0.
<mgrwt>
<rscale>  2 0.45374708E+03</rscale>
<asrwt>0</asrwt>
<pdfrwt beam="1">  1       21 0.19323091E-01 0.45374708E+03</pdfrwt>
<pdfrwt beam="2">  1       21 0.57606734E-01 0.45374708E+03</pdfrwt>
<totfact> 0.64310845E+04</totfact>
</mgrwt>
</event>
<event>
 7    0  0.4775379E-002  0.4546526E+03  0.7546771E-02  0.1026344E+00
         21   -1    0    0  502  501  0.00000000000E+00  0.00000000000E+00  0.11058837579E+03  0.11058837579E+03  0.00000000000E+00 0. -1.
         21   -1    0    0  501  502 -0.00000000000E+00 -0.00000000000E+00 -0.46729370633E+03  0.46729370633E+03  0.00000000000E+00 0. -1.
      99926    2    1    2    0    0  0.00000000000E+00  0.00000000000E+00 -0.35670533053E+03  0.57788208212E+03  0.45465262345E+03 0.  0.
      99925    2    3    3    0    0  0.91474150123E+02  0.18869385235E+02 -0.14440440520E+03  0.31436213062E+03  0.26314889908E+03 0.  0.
         25    1    4    4    0    0  0.84338397778E+02  0.28230993888E+02 -0.75095567235E+02  0.17087073089E+03  0.12509000000E+03 0.  0.
         25    1    3    3    0    0 -0.91474150123E+02 -0.18869385235E+02 -0.21230092534E+03  0.26351995150E+03  0.12509000000E+03 0.  0.
         25    1    4    4    0    0  0.71357523450E+01 -0.93616086530E+01 -0.69308837962E+02  0.14349139973E+03  0.12509000000E+03 0.  0.
<mgrwt>
<rscale>  2 0.45465262E+03</rscale>
<asrwt>0</asrwt>
<pdfrwt beam="1">  1       21 0.16262997E-01 0.45465262E+03</pdfrwt>
<pdfrwt beam="2">  1       21 0.68719662E-01 0.45465262E+03</pdfrwt>
<totfact> 0.60225999E+04</totfact>
</mgrwt>
</event>
<event>
 7    0  0.4775379E-002  0.4606938E+03  0.7546771E-02  0.1024580E+00
         21   -1    0    0  502  501  0.00000000000E+00  0.00000000000E+00  0.29558571722E+02  0.29558571722E+02  0.00000000000E+00 0. -1.
         21   -1    0    0  501  502 -0.00000000000E+00 -0.00000000000E+00 -0.17950693570E+04  0.17950693570E+04  0.00000000000E+00 0. -1.
      99926    2    1    2    0    0  0.00000000000E+00  0.00000000000E+00 -0.17655107853E+04  0.18246279288E+04  0.46069376526E+03 0.  0.
      99925    2    3    3    0    0  0.28539161700E+02  0.87796294152E+02 -0.81227025882E+03  0.85879270344E+03  0.26309553607E+03 0.  0.
         25    1    3    3    0    0 -0.28539161700E+02 -0.87796294152E+02 -0.95324052650E+03  0.96583522532E+03  0.12509000000E+03 0.  0.
         25    1    4    4    0    0  0.61091903331E+01  0.36005987546E+02 -0.51731144045E+03  0.53347201226E+03  0.12509000000E+03 0.  0.
         25    1    4    4    0    0  0.22429971367E+02  0.51790306607E+02 -0.29495881837E+03  0.32532069117E+03  0.12509000000E+03 0.  0.
<mgrwt>
<rscale>  2 0.46069377E+03</rscale>
<asrwt>0</asrwt>
<pdfrwt beam="1">  1       21 0.43468481E-02 0.46069377E+03</pdfrwt>
<pdfrwt beam="2">  1       21 0.26398083E+00 0.46069377E+03</pdfrwt>
<totfact> 0.16068904E+04</totfact>
</mgrwt>
</event>
<event>
 7    0  0.4775379E-002  0.4555663E+03  0.7546771E-02  0.1026075E+00
         21   -1    0    0  502  501  0.00000000000E+00  0.00000000000E+00  0.63945469489E+03  0.63945469489E+03  0.00000000000E+00 0. -1.
         21   -1    0    0  501  502 -0.00000000000E+00 -0.00000000000E+00 -0.81139686147E+02  0.81139686147E+02  0.00000000000E+00 0. -1.
      99926    2    1    2    0    0  0.14210854715E-13 -0.71054273576E-14  0.55831500874E+03  0.72059438103E+03  0.45556625533E+03 0.  0.
      99925    2    3    3    0    0  0.87992882583E+02 -0.28633125868E+02  0.45579400430E+03  0.53425955409E+03  0.26291156972E+03 0.  0.
         25    1    4    4    0    0  0.54929878531E+02  0.20532063286E+02  0.19453297065E+03  0.23859891439E+03  0.12509000000E+03 0.  0.
         25    1    3    3    0    0 -0.87992882583E+02  0.28633125868E+02  0.10252100444E+03  0.18633482695E+03  0.12509000000E+03 0.  0.
         25    1    4    4    0    0  0.33063004053E+02 -0.49165189153E+02  0.26126103365E+03  0.29566063969E+03  0.12509000000E+03 0.  0.
<mgrwt>
<rscale>  2 0.45556626E+03</rscale>
<asrwt>0</asrwt>
<pdfrwt beam="1">  1       21 0.94037453E-01 0.45556626E+03</pdfrwt>
<pdfrwt beam="2">  1       21 0.11932307E-01 0.45556626E+03</pdfrwt>
<totfact> 0.51569015E+04</totfact>
</mgrwt>
</event>
<event>
 7    0  0.4775379E-002  0.4511182E+03  0.7546771E-02  0.1027389E+00
         21   -1    0    0  502  501  0.00000000000E+00  0.00000000000E+00  0.47621270302E+03  0.47621270302E+03  0.00000000000E+00 0. -1.
         21   -1    0    0  501  502 -0.00000000000E+00 -0.00000000000E+00 -0.10683652807E+03  0.10683652807E+03  0.00000000000E+00 0. -1.
      99926    2    1    2    0    0  0.00000000000E+00  0.26645352591E-14  0.36937617495E+03  0.58304923109E+03  0.45111821871E+03 0.  0.
      99925    2    3    3    0    0 -0.87930647036E+02  0.54693442011E+01  0.31731274186E+03  0.42143295227E+03  0.26297650979E+03 0.  0.
         25    1    4    4    0    0 -0.68667149910E+02 -0.17473200762E+02  0.20673807186E+03  0.25181070009E+03  0.12509000000E+03 0.  0.
         25    1    4    4    0    0 -0.19263497126E+02  0.22942544963E+02  0.11057466999E+03  0.16962225218E+03  0.12509000000E+03 0.  0.
         25    1    3    3    0    0  0.87930647036E+02 -0.54693442011E+01  0.52063433089E+02  0.16161627882E+03  0.12509000000E+03 0.  0.
<mgrwt>
<rscale>  2 0.45111822E+03</rscale>
<asrwt>0</asrwt>
<pdfrwt beam="1">  1       21 0.70031279E-01 0.45111822E+03</pdfrwt>
<pdfrwt beam="2">  1       21 0.15711254E-01 0.45111822E+03</pdfrwt>
<totfact> 0.61602592E+04</totfact>
</mgrwt>
</event>
<event>
 7    0  0.4775379E-002  0.4511677E+03  0.7546771E-02  0.1027374E+00
         21   -1    0    0  502  501  0.00000000000E+00  0.00000000000E+00  0.22147576956E+03  0.22147576956E+03  0.00000000000E+00 0. -1.
         21   -1    0    0  501  502 -0.00000000000E+00 -0.00000000000E+00 -0.22976815833E+03  0.22976815833E+03  0.00000000000E+00 0. -1.
      99926    2    1    2    0    0  0.00000000000E+00  0.88817841970E-15 -0.82923887692E+01  0.45124392788E+03  0.45116772795E+03 0.  0.
      99925    2    3    3    0    0 -0.58180928648E+02 -0.74181101914E+01  0.87221252530E+02  0.28328437147E+03  0.26306356534E+03 0.  0.
         25    1    4    4    0    0 -0.35387188269E+01 -0.34033010357E+02  0.52741109598E+02  0.13999964667E+03  0.12509000000E+03 0.  0.
         25    1    4    4    0    0 -0.54642209821E+02  0.26614900166E+02  0.34480142932E+02  0.14328472480E+03  0.12509000000E+03 0.  0.
         25    1    3    3    0    0  0.58180928648E+02  0.74181101914E+01 -0.95513641299E+02  0.16795955642E+03  0.12509000000E+03 0.  0.
<mgrwt>
<rscale>  2 0.45116773E+03</rscale>
<asrwt>0</asrwt>
<pdfrwt beam="1">  1       21 0.32569966E-01 0.45116773E+03</pdfrwt>
<pdfrwt beam="2">  1       21 0.33789435E-01 0.45116773E+03</pdfrwt>
<totfact> 0.70967141E+04</totfact>
</mgrwt>
</event>
<event>
 7    0  0.4775379E-002  0.4527554E+03  0.7546771E-02  0.1026904E+00
         21   -1    0    0  502  501  0.00000000000E+00  0.00000000000E+00  0.35099017440E+03  0.35099017440E+03  0.00000000000E+00 0. -1.
         21   -1    0    0  501  502 -0.00000000000E+00 -0.00000000000E+00 -0.14600655056E+03  0.14600655056E+03  0.00000000000E+00 0. -1.
      99926    2    1    2    0    0  0.00000000000E+00  0.00000000000E+00  0.20498362384E+03  0.49699672495E+03  0.45275540701E+03 0.  0.
      99925    2    3    3    0    0  0.17568726101E+02 -0.14428958972E+02  0.24956129630E+03  0.36226910353E+03  0.26161270567E+03 0.  0.
         25    1    3    3    0    0 -0.17568726101E+02  0.14428958972E+02 -0.44577672458E+02  0.13472762143E+03  0.12509000000E+03 0.  0.
         25    1    4    4    0    0  0.89839342958E+01  0.30713060066E+02  0.13018320562E+03  0.18335533333E+03  0.12509000000E+03 0.  0.
         25    1    4    4    0    0  0.85847918050E+01 -0.45142019038E+02  0.11937809068E+03  0.17891377020E+03  0.12509000000E+03 0.  0.
<mgrwt>
<rscale>  2 0.45275541E+03</rscale>
<asrwt>0</asrwt>
<pdfrwt beam="1">  1       21 0.51616202E-01 0.45275541E+03</pdfrwt>
<pdfrwt beam="2">  1       21 0.21471552E-01 0.45275541E+03</pdfrwt>
<totfact> 0.66662066E+04</totfact>
</mgrwt>
</event>
<event>
 7    0  0.4775379E-002  0.4538205E+03  0.7546771E-02  0.1026589E+00
         21   -1    0    0  502  501  0.00000000000E+00  0.00000000000E+00  0.14473464103E+03  0.14473464103E+03  0.00000000000E+00 0.  1.
         21   -1    0    0  501  502 -0.00000000000E+00 -0.00000000000E+00 -0.35574254630E+03  0.35574254630E+03  0.00000000000E+00 0.  1.
      99926    2    1    2    0    0  0.00000000000E+00  0.00000000000E+00 -0.21100790527E+03  0.50047718733E+03  0.45382053606E+03 0.  0.
      99925    2    3    3    0    0 -0.28481040257E+02  0.68296440688E+02 -0.39892762140E+02  0.27597000755E+03  0.26285440672E+03 0.  0.
         25    1    4    4    0    0 -0.36141953480E+02  0.36314464965E+02  0.13900790809E+02  0.13588863548E+03  0.12509000000E+03 0.  0.
         25    1    3    3    0    0  0.28481040257E+02 -0.68296440688E+02 -0.17111514314E+03  0.22450717979E+03  0.12509000000E+03 0.  0.
         25    1    4    4    0    0  0.76609132229E+01  0.31981975723E+02 -0.53793552948E+02  0.14008137207E+03  0.12509000000E+03 0.  0.
<mgrwt>
<rscale>  2 0.45382054E+03</rscale>
<asrwt>0</asrwt>
<pdfrwt beam="1">  1       21 0.21284506E-01 0.45382054E+03</pdfrwt>
<pdfrwt beam="2">  1       21 0.52315080E-01 0.45382054E+03</pdfrwt>
<totfact> 0.65851527E+04</totfact>
</mgrwt>
</event>
<event>
 7    0  0.4775379E-002  0.4605694E+03  0.7546771E-02  0.1024616E+00
         21   -1    0    0  502  501  0.00000000000E+00  0.00000000000E+00  0.17521903026E+04  0.17521903026E+04  0.00000000000E+00 0. -1.
         21   -1    0    0  501  502 -0.00000000000E+00 -0.00000000000E+00 -0.30265566233E+02  0.30265566233E+02  0.00000000000E+00 0. -1.
      99926    2    1    2    0    0 -0.35527136788E-14  0.14210854715E-13  0.17219247363E+04  0.17824558688E+04  0.46056935050E+03 0.  0.
      99925    2    3    3    0    0  0.27474363018E+02 -0.10442869069E+03  0.12652727678E+04  0.12968235794E+04  0.26301335904E+03 0.  0.
         25    1    3    3    0    0 -0.27474363018E+02  0.10442869069E+03  0.45665196852E+03  0.48563228941E+03  0.12509000000E+03 0.  0.
         25    1    4    4    0    0 -0.38401510193E+01 -0.82556724232E+02  0.77728560328E+03  0.79161276937E+03  0.12509000000E+03 0.  0.
         25    1    4    4    0    0  0.31314514037E+02 -0.21871966458E+02  0.48798716453E+03  0.50521081001E+03  0.12509000000E+03 0.  0.
<mgrwt>
<rscale>  2 0.46056935E+03</rscale>
<asrwt>0</asrwt>
<pdfrwt beam="1">  1       21 0.25767498E+00 0.46056935E+03</pdfrwt>
<pdfrwt beam="2">  1       21 0.44508197E-02 0.46056935E+03</pdfrwt>
<totfact> 0.16858232E+04</totfact>
</mgrwt>
</event>
<event>
 7    0  0.4775379E-002  0.4539388E+03  0.7546771E-02  0.1026554E+00
         21   -1    0    0  502  501  0.00000000000E+00  0.00000000000E+00  0.29510569421E+03  0.29510569421E+03  0.00000000000E+00 0. -1.
         21   -1    0    0  501  502 -0.00000000000E+00 -0.00000000000E+00 -0.17456493440E+03  0.17456493440E+03  0.00000000000E+00 0. -1.
      99926    2    1    2    0    0  0.00000000000E+00  0.00000000000E+00  0.12054075981E+03  0.46967062860E+03  0.45393878948E+03 0.  0.
      99925    2    3    3    0    0  0.26124952469E+02 -0.85012650345E+02  0.51990982544E+01  0.27767877760E+03  0.26299963697E+03 0.  0.
         25    1    4    4    0    0  0.49453931935E+02 -0.60846758976E+02 -0.53389842702E+01  0.14772959187E+03  0.12509000000E+03 0.  0.
         25    1    3    3    0    0 -0.26124952469E+02  0.85012650345E+02  0.11534166156E+03  0.19199185100E+03  0.12509000000E+03 0.  0.
         25    1    4    4    0    0 -0.23328979466E+02 -0.24165891369E+02  0.10538082525E+02  0.12994918573E+03  0.12509000000E+03 0.  0.
<mgrwt>
<rscale>  2 0.45393879E+03</rscale>
<asrwt>0</asrwt>
<pdfrwt beam="1">  1       21 0.43397896E-01 0.45393879E+03</pdfrwt>
<pdfrwt beam="2">  1       21 0.25671314E-01 0.45393879E+03</pdfrwt>
<totfact> 0.68031150E+04</totfact>
</mgrwt>
</event>
<event>
 7    0  0.4775379E-002  0.4556118E+03  0.7546771E-02  0.1026062E+00
         21   -1    0    0  502  501  0.00000000000E+00  0.00000000000E+00  0.29598403714E+03  0.29598403714E+03  0.00000000000E+00 0.  1.
         21   -1    0    0  501  502 -0.00000000000E+00 -0.00000000000E+00 -0.17533220301E+03  0.17533220301E+03  0.00000000000E+00 0.  1.
      99926    2    1    2    0    0  0.00000000000E+00 -0.71054273576E-14  0.12065183413E+03  0.47131624015E+03  0.45561182288E+03 0.  0.
      99925    2    3    3    0    0 -0.87264576195E+02 -0.59191674373E+02  0.11998649829E+03  0.30771088771E+03  0.26300279480E+03 0.  0.
         25    1    4    4    0    0 -0.21802716964E+02  0.40042135951E+01  0.70588199136E+02  0.14533270159E+03  0.12509000000E+03 0.  0.
         25    1    3    3    0    0  0.87264576195E+02  0.59191674373E+02  0.66533584316E+00  0.16360535243E+03  0.12509000000E+03 0.  0.
         25    1    4    4    0    0 -0.65461859230E+02 -0.63195887968E+02  0.49398299149E+02  0.16237818612E+03  0.12509000000E+03 0.  0.
<mgrwt>
<rscale>  2 0.45561182E+03</rscale>
<asrwt>0</asrwt>
<pdfrwt beam="1">  1       21 0.43527064E-01 0.45561182E+03</pdfrwt>
<pdfrwt beam="2">  1       21 0.25784147E-01 0.45561182E+03</pdfrwt>
<totfact> 0.67012089E+04</totfact>
</mgrwt>
</event>
<event>
 7    0  0.4775379E-002  0.4524790E+03  0.7546771E-02  0.1026985E+00
         21   -1    0    0  502  501  0.00000000000E+00  0.00000000000E+00  0.16094394301E+03  0.16094394301E+03  0.00000000000E+00 0.  1.
         21   -1    0    0  501  502 -0.00000000000E+00 -0.00000000000E+00 -0.31802568214E+03  0.31802568214E+03  0.00000000000E+00 0.  1.
      99926    2    1    2    0    0 -0.35527136788E-14  0.14210854715E-13 -0.15708173913E+03  0.47896962515E+03  0.45247898188E+03 0.  0.
      99925    2    3    3    0    0  0.16316289296E+02 -0.10304051918E+03 -0.59917774854E+02  0.28930699324E+03  0.26310611301E+03 0.  0.
         25    1    4    4    0    0 -0.24258890448E+02 -0.65904037768E+02 -0.51426587614E+02  0.15239435020E+03  0.12509000000E+03 0.  0.
         25    1    4    4    0    0  0.40575179744E+02 -0.37136481408E+02 -0.84911872404E+01  0.13691264304E+03  0.12509000000E+03 0.  0.
         25    1    3    3    0    0 -0.16316289296E+02  0.10304051918E+03 -0.97163964275E+02  0.18966263191E+03  0.12509000000E+03 0.  0.
<mgrwt>
<rscale>  2 0.45247898E+03</rscale>
<asrwt>0</asrwt>
<pdfrwt beam="1">  1       21 0.23668227E-01 0.45247898E+03</pdfrwt>
<pdfrwt beam="2">  1       21 0.46768482E-01 0.45247898E+03</pdfrwt>
<totfact> 0.68128299E+04</totfact>
</mgrwt>
</event>
<event>
 7    0  0.4775379E-002  0.4545244E+03  0.7546771E-02  0.1026381E+00
         21   -1    0    0  502  501  0.00000000000E+00  0.00000000000E+00  0.13533345353E+03  0.13533345353E+03  0.00000000000E+00 0.  1.
         21   -1    0    0  501  502 -0.00000000000E+00 -0.00000000000E+00 -0.38163597857E+03  0.38163597857E+03  0.00000000000E+00 0.  1.
      99926    2    1    2    0    0  0.14210854715E-13 -0.14210854715E-13 -0.24630252504E+03  0.51696943211E+03  0.45452443267E+03 0.  0.
      99925    2    3    3    0    0  0.84629110619E+02 -0.72596463599E+02 -0.13615522597E+03  0.31643946307E+03  0.26298926848E+03 0.  0.
         25    1    3    3    0    0 -0.84629110619E+02  0.72596463599E+02 -0.11014729907E+03  0.20052996904E+03  0.12509000000E+03 0.  0.
         25    1    4    4    0    0  0.44508019852E+02 -0.70821987872E+02 -0.98203285679E+02  0.17968892903E+03  0.12509000000E+03 0.  0.
         25    1    4    4    0    0  0.40121090767E+02 -0.17744757274E+01 -0.37951940295E+02  0.13675053404E+03  0.12509000000E+03 0.  0.
<mgrwt>
<rscale>  2 0.45452443E+03</rscale>
<asrwt>0</asrwt>
<pdfrwt beam="1">  1       21 0.19901979E-01 0.45452443E+03</pdfrwt>
<pdfrwt beam="2">  1       21 0.56122937E-01 0.45452443E+03</pdfrwt>
<totfact> 0.64336644E+04</totfact>
</mgrwt>
</event>
<event>
 6    0  0.4775379E-002  0.4522973E+03  0.7546771E-02  0.1027039E+00
         21   -1    0    0  502  501  0.00000000000E+00  0.00000000000E+00  0.50646594067E+03  0.50646594067E+03  0.00000000000E+00 0.  1.
         21   -1    0    0  501  502 -0.00000000000E+00 -0.00000000000E+00 -0.10098054634E+03  0.10098054634E+03  0.00000000000E+00 0.  1.
      99926    2    1    2    0    0  0.00000000000E+00  0.00000000000E+00  0.40548539434E+03  0.60744648701E+03  0.45229728007E+03 0.  0.
         25    1    3    3    0    0  0.50362279651E+02 -0.17292441904E+01  0.44709495235E+02  0.14207672773E+03  0.12509000000E+03 0.  0.
         25    1    3    3    0    0 -0.98548118387E+02  0.10483074864E+02  0.19916339627E+03  0.25521597326E+03  0.12509000000E+03 0.  0.
         25    1    3    3    0    0  0.48185838737E+02 -0.87538306732E+01  0.16161250284E+03  0.21015378602E+03  0.12509000000E+03 0.  0.
<mgrwt>
<rscale>  2 0.45229728E+03</rscale>
<asrwt>0</asrwt>
<pdfrwt beam="1">  1       21 0.74480284E-01 0.45229728E+03</pdfrwt>
<pdfrwt beam="2">  1       21 0.14850081E-01 0.45229728E+03</pdfrwt>
<totfact> 0.59482044E+04</totfact>
</mgrwt>
</event>
<event>
 6    0  0.4775379E-002  0.4513960E+03  0.7546771E-02  0.1027307E+00
         21   -1    0    0  502  501  0.00000000000E+00  0.00000000000E+00  0.24427462000E+03  0.24427462000E+03  0.00000000000E+00 0. -1.
         21   -1    0    0  501  502 -0.00000000000E+00 -0.00000000000E+00 -0.20853409629E+03  0.20853409629E+03  0.00000000000E+00 0. -1.
      99926    2    1    2    0    0  0.14210854715E-13  0.00000000000E+00  0.35740523702E+02  0.45280871629E+03  0.45139599967E+03 0.  0.
         25    1    3    3    0    0  0.87190207229E+02 -0.67985242328E+02  0.27859388667E+02  0.16925654802E+03  0.12509000000E+03 0.  0.
         25    1    3    3    0    0 -0.40269505924E+02  0.48624693512E+02  0.38117113799E+02  0.14521162622E+03  0.12509000000E+03 0.  0.
         25    1    3    3    0    0 -0.46920701305E+02  0.19360548816E+02 -0.30235978764E+02  0.13834054204E+03  0.12509000000E+03 0.  0.
<mgrwt>
<rscale>  2 0.45139600E+03</rscale>
<asrwt>0</asrwt>
<pdfrwt beam="1">  1       21 0.35922738E-01 0.45139600E+03</pdfrwt>
<pdfrwt beam="2">  1       21 0.30666779E-01 0.45139600E+03</pdfrwt>
<totfact> 0.70718409E+04</totfact>
</mgrwt>
</event>
<event>
 7    0  0.4775379E-002  0.4620907E+03  0.7546771E-02  0.1024177E+00
         21   -1    0    0  502  501  0.00000000000E+00  0.00000000000E+00  0.50556069363E+02  0.50556069363E+02  0.00000000000E+00 0.  1.
         21   -1    0    0  501  502 -0.00000000000E+00 -0.00000000000E+00 -0.10558961932E+04  0.10558961932E+04  0.00000000000E+00 0.  1.
      99926    2    1    2    0    0 -0.71054273576E-14  0.00000000000E+00 -0.10053401238E+04  0.11064522626E+04  0.46209073215E+03 0.  0.
      99925    2    3    3    0    0  0.59570741003E+02 -0.59171226313E+02 -0.42427785952E+03  0.50617668392E+03  0.26297000980E+03 0.  0.
         25    1    3    3    0    0 -0.59570741003E+02  0.59171226313E+02 -0.58106226433E+03  0.60027557866E+03  0.12509000000E+03 0.  0.
         25    1    4    4    0    0  0.49866381277E+02 -0.50169340470E+01 -0.25690437190E+03  0.29010203379E+03  0.12509000000E+03 0.  0.
         25    1    4    4    0    0  0.97043597262E+01 -0.54154292266E+02 -0.16737348763E+03  0.21607465013E+03  0.12509000000E+03 0.  0.
<mgrwt>
<rscale>  2 0.46209073E+03</rscale>
<asrwt>0</asrwt>
<pdfrwt beam="1">  1       21 0.74347167E-02 0.46209073E+03</pdfrwt>
<pdfrwt beam="2">  1       21 0.15527884E+00 0.46209073E+03</pdfrwt>
<totfact> 0.33385479E+04</totfact>
</mgrwt>
</event>
<event>
 7    0  0.4775379E-002  0.4599400E+03  0.7546771E-02  0.1024799E+00
         21   -1    0    0  502  501  0.00000000000E+00  0.00000000000E+00  0.71952616049E+03  0.71952616049E+03  0.00000000000E+00 0. -1.
         21   -1    0    0  501  502 -0.00000000000E+00 -0.00000000000E+00 -0.73501425918E+02  0.73501425918E+02  0.00000000000E+00 0. -1.
      99926    2    1    2    0    0  0.00000000000E+00  0.00000000000E+00  0.64602473457E+03  0.79302758641E+03  0.45993999079E+03 0.  0.
      99925    2    3    3    0    0 -0.10737258981E+03 -0.38627792993E+02  0.35050330405E+03  0.45243779878E+03  0.26234789152E+03 0.  0.
         25    1    4    4    0    0 -0.33597558540E+02  0.13326819931E+02  0.18474699450E+03  0.22602070734E+03  0.12509000000E+03 0.  0.
         25    1    3    3    0    0  0.10737258981E+03  0.38627792993E+02  0.29552143053E+03  0.34058978762E+03  0.12509000000E+03 0.  0.
         25    1    4    4    0    0 -0.73775031272E+02 -0.51954612924E+02  0.16575630954E+03  0.22641709144E+03  0.12509000000E+03 0.  0.
<mgrwt>
<rscale>  2 0.45993999E+03</rscale>
<asrwt>0</asrwt>
<pdfrwt beam="1">  1       21 0.10581267E+00 0.45993999E+03</pdfrwt>
<pdfrwt beam="2">  1       21 0.10809034E-01 0.45993999E+03</pdfrwt>
<totfact> 0.46283257E+04</totfact>
</mgrwt>
</event>
<event>
 7    0  0.4775379E-002  0.4549597E+03  0.7546771E-02  0.1026253E+00
         21   -1    0    0  502  501  0.00000000000E+00  0.00000000000E+00  0.10862568085E+04  0.10862568085E+04  0.00000000000E+00 0.  1.
         21   -1    0    0  501  502 -0.00000000000E+00 -0.00000000000E+00 -0.47637971838E+02  0.47637971838E+02  0.00000000000E+00 0.  1.
      99926    2    1    2    0    0  0.00000000000E+00 -0.17763568394E-14  0.10386188367E+04  0.11338947804E+04  0.45495965207E+03 0.  0.
      99925    2    3    3    0    0 -0.81804713372E+02  0.10058517706E+02  0.46042078470E+03  0.53660617313E+03  0.26299372835E+03 0.  0.
         25    1    4    4    0    0 -0.43393614705E+02  0.43744549518E+02  0.21048515472E+03  0.25248386061E+03  0.12509000000E+03 0.  0.
         25    1    4    4    0    0 -0.38411098668E+02 -0.33686031812E+02  0.24993562998E+03  0.28412231252E+03  0.12509000000E+03 0.  0.
         25    1    3    3    0    0  0.81804713372E+02 -0.10058517706E+02  0.57819805199E+03  0.59728860724E+03  0.12509000000E+03 0.  0.
<mgrwt>
<rscale>  2 0.45495965E+03</rscale>
<asrwt>0</asrwt>
<pdfrwt beam="1">  1       21 0.15974363E+00 0.45495965E+03</pdfrwt>
<pdfrwt beam="2">  1       21 0.70055848E-02 0.45495965E+03</pdfrwt>
<totfact> 0.34335462E+04</totfact>
</mgrwt>
</event>
<event>
 7    0  0.4775379E-002  0.4384826E+03  0.7546771E-02  0.1031213E+00
         21   -1    0    0  502  501  0.00000000000E+00  0.00000000000E+00  0.16824187140E+04  0.16824187140E+04  0.00000000000E+00 0.  1.
         21   -1    0    0  501  502 -0.00000000000E+00 -0.00000000000E+00 -0.28570029896E+02  0.28570029896E+02  0.00000000000E+00 0.  1.
      99926    2    1    2    0    0 -0.14210854715E-13  0.88817841970E-15  0.16538486841E+04  0.17109887439E+04  0.43848262432E+03 0.  0.
      99925    2    3    3    0    0  0.95051698108E+02  0.73503305912E+01  0.11227212642E+04  0.11570639323E+04  0.26306853399E+03 0.  0.
         25    1    4    4    0    0  0.76314908245E+02 -0.10591399517E+02  0.48892277670E+03  0.51051849393E+03  0.12509000000E+03 0.  0.
         25    1    4    4    0    0  0.18736789863E+02  0.17941730109E+02  0.63379848753E+03  0.64654543836E+03  0.12509000000E+03 0.  0.
         25    1    3    3    0    0 -0.95051698108E+02 -0.73503305912E+01  0.53112741992E+03  0.55392481165E+03  0.12509000000E+03 0.  0.
<mgrwt>
<rscale>  2 0.43848262E+03</rscale>
<asrwt>0</asrwt>
<pdfrwt beam="1">  1       21 0.24741445E+00 0.43848262E+03</pdfrwt>
<pdfrwt beam="2">  1       21 0.42014761E-02 0.43848262E+03</pdfrwt>
<totfact> 0.21684320E+04</totfact>
</mgrwt>
</event>
<event>
 7    0  0.4775379E-002  0.4530663E+03  0.7546771E-02  0.1026812E+00
         21   -1    0    0  502  501  0.00000000000E+00  0.00000000000E+00  0.12239438156E+03  0.12239438156E+03  0.00000000000E+00 0.  1.
         21   -1    0    0  501  502 -0.00000000000E+00 -0.00000000000E+00 -0.41927790765E+03  0.41927790765E+03  0.00000000000E+00 0.  1.
      99926    2    1    2    0    0  0.00000000000E+00  0.00000000000E+00 -0.29688352609E+03  0.54167228921E+03  0.45306626539E+03 0.  0.
      99925    2    3    3    0    0 -0.58204349704E+02  0.54567706221E+02 -0.27961961425E+03  0.39230384663E+03  0.26334349910E+03 0.  0.
         25    1    4    4    0    0 -0.67831653457E+02  0.28705548294E+02 -0.12544297875E+03  0.19185565077E+03  0.12509000000E+03 0.  0.
         25    1    3    3    0    0  0.58204349704E+02 -0.54567706221E+02 -0.17263911834E+02  0.14936844258E+03  0.12509000000E+03 0.  0.
         25    1    4    4    0    0  0.96273037531E+01  0.25862157926E+02 -0.15417663550E+03  0.20044819586E+03  0.12509000000E+03 0.  0.
<mgrwt>
<rscale>  2 0.45306627E+03</rscale>
<asrwt>0</asrwt>
<pdfrwt beam="1">  1       21 0.17999174E-01 0.45306627E+03</pdfrwt>
<pdfrwt beam="2">  1       21 0.61658515E-01 0.45306627E+03</pdfrwt>
<totfact> 0.63384593E+04</totfact>
</mgrwt>
</event>
<event>
 7    0  0.4775379E-002  0.4450643E+03  0.7546771E-02  0.1029204E+00
         21   -1    0    0  502  501  0.00000000000E+00  0.00000000000E+00  0.78938138522E+02  0.78938138522E+02  0.00000000000E+00 0.  1.
         21   -1    0    0  501  502 -0.00000000000E+00 -0.00000000000E+00 -0.62733381343E+03  0.62733381343E+03  0.00000000000E+00 0.  1.
      99926    2    1    2    0    0  0.00000000000E+00 -0.17763568394E-14 -0.54839567491E+03  0.70627195195E+03  0.44506432553E+03 0.  0.
      99925    2    3    3    0    0  0.32313520007E+02 -0.13370171191E+02 -0.50272131208E+03  0.56858905333E+03  0.26332844301E+03 0.  0.
         25    1    3    3    0    0 -0.32313520007E+02  0.13370171191E+02 -0.45674362829E+02  0.13768289862E+03  0.12509000000E+03 0.  0.
         25    1    4    4    0    0  0.42200593105E+01 -0.45894615778E+02 -0.25853595021E+03  0.29088222756E+03  0.12509000000E+03 0.  0.
         25    1    4    4    0    0  0.28093460697E+02  0.32524444588E+02 -0.24418536187E+03  0.27770682577E+03  0.12509000000E+03 0.  0.
<mgrwt>
<rscale>  2 0.44506433E+03</rscale>
<asrwt>0</asrwt>
<pdfrwt beam="1">  1       21 0.11608550E-01 0.44506433E+03</pdfrwt>
<pdfrwt beam="2">  1       21 0.92254972E-01 0.44506433E+03</pdfrwt>
<totfact> 0.56881879E+04</totfact>
</mgrwt>
</event>
<event>
 7    0  0.4775379E-002  0.4588326E+03  0.7546771E-02  0.1025120E+00
         21   -1    0    0  502  501  0.00000000000E+00  0.00000000000E+00  0.16317155825E+03  0.16317155825E+03  0.00000000000E+00 0. -1.
         21   -1    0    0  501  502 -0.00000000000E+00 -0.00000000000E+00 -0.32255517176E+03  0.32255517176E+03  0.00000000000E+00 0. -1.
      99926    2    1    2    0    0  0.14210854715E-13 -0.44408920985E-15 -0.15938361351E+03  0.48572673001E+03  0.45883256205E+03 0.  0.
      99925    2    3    3    0    0 -0.88070497031E+02 -0.32678448146E+01 -0.18971363008E+02  0.27804861502E+03  0.26302856963E+03 0.  0.
         25    1    4    4    0    0 -0.22735880645E+02 -0.58204782950E+01  0.26017514018E+02  0.12990464723E+03  0.12509000000E+03 0.  0.
         25    1    3    3    0    0  0.88070497031E+02  0.32678448146E+01 -0.14041225050E+03  0.20767811500E+03  0.12509000000E+03 0.  0.
         25    1    4    4    0    0 -0.65334616386E+02  0.25526334804E+01 -0.44988877026E+02  0.14814396779E+03  0.12509000000E+03 0.  0.
<mgrwt>
<rscale>  2 0.45883256E+03</rscale>
<asrwt>0</asrwt>
<pdfrwt beam="1">  1       21 0.23995817E-01 0.45883256E+03</pdfrwt>
<pdfrwt beam="2">  1       21 0.47434584E-01 0.45883256E+03</pdfrwt>
<totfact> 0.64306731E+04</totfact>
</mgrwt>
</event>
<event>
 7    0  0.4775379E-002  0.4562965E+03  0.7546771E-02  0.1025861E+00
         21   -1    0    0  502  501  0.00000000000E+00  0.00000000000E+00  0.12220650805E+03  0.12220650805E+03  0.00000000000E+00 0.  1.
         21   -1    0    0  501  502 -0.00000000000E+00 -0.00000000000E+00 -0.42593176731E+03  0.42593176731E+03  0.00000000000E+00 0.  1.
      99926    2    1    2    0    0 -0.35527136788E-14  0.00000000000E+00 -0.30372525927E+03  0.54813827536E+03  0.45629654371E+03 0.  0.
      99925    2    3    3    0    0  0.12245798255E+02  0.36879408129E+02 -0.61670153694E+02  0.27291430738E+03  0.26299992585E+03 0.  0.
         25    1    4    4    0    0  0.46117156211E+02  0.15552737924E+02 -0.37575032792E+02  0.13938461516E+03  0.12509000000E+03 0.  0.
         25    1    3    3    0    0 -0.12245798255E+02 -0.36879408129E+02 -0.24205510557E+03  0.27522396798E+03  0.12509000000E+03 0.  0.
         25    1    4    4    0    0 -0.33871357957E+02  0.21326670205E+02 -0.24095120902E+02  0.13352969222E+03  0.12509000000E+03 0.  0.
<mgrwt>
<rscale>  2 0.45629654E+03</rscale>
<asrwt>0</asrwt>
<pdfrwt beam="1">  1       21 0.17971545E-01 0.45629654E+03</pdfrwt>
<pdfrwt beam="2">  1       21 0.62637025E-01 0.45629654E+03</pdfrwt>
<totfact> 0.61357829E+04</totfact>
</mgrwt>
</event>
<event>
 7    0  0.4775379E-002  0.4540993E+03  0.7546771E-02  0.1026507E+00
         21   -1    0    0  502  501  0.00000000000E+00  0.00000000000E+00  0.17149618911E+03  0.17149618911E+03  0.00000000000E+00 0. -1.
         21   -1    0    0  501  502 -0.00000000000E+00 -0.00000000000E+00 -0.30059876302E+03  0.30059876302E+03  0.00000000000E+00 0. -1.
      99926    2    1    2    0    0  0.00000000000E+00 -0.35527136788E-14 -0.12910257390E+03  0.47209495213E+03  0.45409929447E+03 0.  0.
      99925    2    3    3    0    0  0.83448060248E+02  0.14055659684E+02 -0.15798835890E+03  0.31833202746E+03  0.26308519120E+03 0.  0.
         25    1    4    4    0    0  0.46336638364E+02  0.43294918228E+02 -0.59924854323E+02  0.15251239381E+03  0.12509000000E+03 0.  0.
         25    1    4    4    0    0  0.37111421884E+02 -0.29239258543E+02 -0.98063504574E+02  0.16581963365E+03  0.12509000000E+03 0.  0.
         25    1    3    3    0    0 -0.83448060248E+02 -0.14055659684E+02  0.28885784993E+02  0.15376292467E+03  0.12509000000E+03 0.  0.
<mgrwt>
<rscale>  2 0.45409929E+03</rscale>
<asrwt>0</asrwt>
<pdfrwt beam="1">  1       21 0.25220028E-01 0.45409929E+03</pdfrwt>
<pdfrwt beam="2">  1       21 0.44205700E-01 0.45409929E+03</pdfrwt>
<totfact> 0.67763240E+04</totfact>
</mgrwt>
</event>
<event>
 7    0  0.4775379E-002  0.4541287E+03  0.7546771E-02  0.1026498E+00
         21   -1    0    0  502  501  0.00000000000E+00  0.00000000000E+00  0.20448707777E+03  0.20448707777E+03  0.00000000000E+00 0.  1.
         21   -1    0    0  501  502 -0.00000000000E+00 -0.00000000000E+00 -0.25213436347E+03  0.25213436347E+03  0.00000000000E+00 0.  1.
      99926    2    1    2    0    0  0.14210854715E-13 -0.35527136788E-14 -0.47647285698E+02  0.45662144123E+03  0.45412870066E+03 0.  0.
      99925    2    3    3    0    0 -0.92363758112E+02  0.14356052770E+02 -0.92627368797E+02  0.29411643811E+03  0.26303514908E+03 0.  0.
         25    1    3    3    0    0  0.92363758112E+02 -0.14356052770E+02  0.44980083099E+02  0.16250500312E+03  0.12509000000E+03 0.  0.
         25    1    4    4    0    0 -0.30199632709E+02  0.32332602181E+02 -0.15616461098E+02  0.13359938973E+03  0.12509000000E+03 0.  0.
         25    1    4    4    0    0 -0.62164125403E+02 -0.17976549412E+02 -0.77010907699E+02  0.16051704838E+03  0.12509000000E+03 0.  0.
<mgrwt>
<rscale>  2 0.45412870E+03</rscale>
<asrwt>0</asrwt>
<pdfrwt beam="1">  1       21 0.30071629E-01 0.45412870E+03</pdfrwt>
<pdfrwt beam="2">  1       21 0.37078583E-01 0.45412870E+03</pdfrwt>
<totfact> 0.68904902E+04</totfact>
</mgrwt>
</event>
<event>
 7    0  0.4775379E-002  0.4530218E+03  0.7546771E-02  0.1026825E+00
         21   -1    0    0  502  501  0.00000000000E+00  0.00000000000E+00  0.14234589831E+03  0.14234589831E+03  0.00000000000E+00 0.  1.
         21   -1    0    0  501  502 -0.00000000000E+00 -0.00000000000E+00 -0.36044024811E+03  0.36044024811E+03  0.00000000000E+00 0.  1.
      99926    2    1    2    0    0 -0.14210854715E-13  0.00000000000E+00 -0.21809434980E+03  0.50278614642E+03  0.45302181362E+03 0.  0.
      99925    2    3    3    0    0 -0.91327868356E+02 -0.44233921390E+02 -0.18797770017E+03  0.33892053067E+03  0.26312371806E+03 0.  0.
         25    1    4    4    0    0 -0.16801619477E+02  0.99335647657E+01 -0.81148167078E+02  0.15037786821E+03  0.12509000000E+03 0.  0.
         25    1    3    3    0    0  0.91327868356E+02  0.44233921390E+02 -0.30116649623E+02  0.16386561575E+03  0.12509000000E+03 0.  0.
         25    1    4    4    0    0 -0.74526248879E+02 -0.54167486156E+02 -0.10682953309E+03  0.18854266247E+03  0.12509000000E+03 0.  0.
<mgrwt>
<rscale>  2 0.45302181E+03</rscale>
<asrwt>0</asrwt>
<pdfrwt beam="1">  1       21 0.20933221E-01 0.45302181E+03</pdfrwt>
<pdfrwt beam="2">  1       21 0.53005918E-01 0.45302181E+03</pdfrwt>
<totfact> 0.66107289E+04</totfact>
</mgrwt>
</event>
<event>
 7    0  0.4775379E-002  0.4596006E+03  0.7546771E-02  0.1024897E+00
         21   -1    0    0  502  501  0.00000000000E+00  0.00000000000E+00  0.96626515566E+03  0.96626515566E+03  0.00000000000E+00 0. -1.
         21   -1    0    0  501  502 -0.00000000000E+00 -0.00000000000E+00 -0.54651839936E+02  0.54651839936E+02  0.00000000000E+00 0. -1.
      99926    2    1    2    0    0 -0.14210854715E-13  0.44408920985E-15  0.91161331572E+03  0.10209169956E+04  0.45960055972E+03 0.  0.
      99925    2    3    3    0    0 -0.11703044423E+03  0.22122573182E+01  0.59137210386E+03  0.65773252341E+03  0.26304008853E+03 0.  0.
         25    1    4    4    0    0 -0.33437002366E+02 -0.53659713732E+01  0.34986612413E+03  0.37309601940E+03  0.12509000000E+03 0.  0.
         25    1    4    4    0    0 -0.83593441864E+02  0.75782286913E+01  0.24150597973E+03  0.28463650401E+03  0.12509000000E+03 0.  0.
         25    1    3    3    0    0  0.11703044423E+03 -0.22122573182E+01  0.32024121187E+03  0.36318447219E+03  0.12509000000E+03 0.  0.
<mgrwt>
<rscale>  2 0.45960056E+03</rscale>
<asrwt>0</asrwt>
<pdfrwt beam="1">  1       21 0.14209781E+00 0.45960056E+03</pdfrwt>
<pdfrwt beam="2">  1       21 0.80370359E-02 0.45960056E+03</pdfrwt>
<totfact> 0.37015365E+04</totfact>
</mgrwt>
</event>
<event>
 7    0  0.4775379E-002  0.4484271E+03  0.7546771E-02  0.1028192E+00
         21   -1    0    0  502  501  0.00000000000E+00  0.00000000000E+00  0.37430009981E+03  0.37430009981E+03  0.00000000000E+00 0.  1.
         21   -1    0    0  501  502 -0.00000000000E+00 -0.00000000000E+00 -0.13430858386E+03  0.13430858386E+03  0.00000000000E+00 0.  1.
      99926    2    1    2    0    0 -0.17763568394E-14  0.00000000000E+00  0.23999151595E+03  0.50860868368E+03  0.44842710153E+03 0.  0.
      99925    2    3    3    0    0  0.15588145381E+02 -0.10073403875E+03  0.18808040499E+03  0.33910172695E+03  0.26310721320E+03 0.  0.
         25    1    4    4    0    0 -0.17103888870E+02 -0.15459528644E+02  0.80673421481E+02  0.15062287035E+03  0.12509000000E+03 0.  0.
         25    1    3    3    0    0 -0.15588145381E+02  0.10073403875E+03  0.51911110959E+02  0.16950695673E+03  0.12509000000E+03 0.  0.
         25    1    4    4    0    0  0.32692034252E+02 -0.85274510102E+02  0.10740698351E+03  0.18847885659E+03  0.12509000000E+03 0.  0.
<mgrwt>
<rscale>  2 0.44842710E+03</rscale>
<asrwt>0</asrwt>
<pdfrwt beam="1">  1       21 0.55044132E-01 0.44842710E+03</pdfrwt>
<pdfrwt beam="2">  1       21 0.19751262E-01 0.44842710E+03</pdfrwt>
<totfact> 0.68156306E+04</totfact>
</mgrwt>
</event>
<event>
 7    0  0.4775379E-002  0.4171982E+03  0.7546771E-02  0.1037982E+00
         21   -1    0    0  502  501  0.00000000000E+00  0.00000000000E+00  0.54950304185E+03  0.54950304185E+03  0.00000000000E+00 0.  1.
         21   -1    0    0  501  502 -0.00000000000E+00 -0.00000000000E+00 -0.79187164707E+02  0.79187164707E+02  0.00000000000E+00 0.  1.
      99926    2    1    2    0    0  0.00000000000E+00 -0.14210854715E-13  0.47031587715E+03  0.62869020656E+03  0.41719821611E+03 0.  0.
      99925    2    3    3    0    0  0.29199593615E+02  0.64653708662E+02  0.32779592136E+03  0.42622498928E+03  0.26303014488E+03 0.  0.
         25    1    4    4    0    0 -0.23699078614E+00  0.10906243814E+02  0.10604094710E+03  0.16435082257E+03  0.12509000000E+03 0.  0.
         25    1    4    4    0    0  0.29436584401E+02  0.53747464847E+02  0.22175497427E+03  0.26187416671E+03  0.12509000000E+03 0.  0.
         25    1    3    3    0    0 -0.29199593615E+02 -0.64653708662E+02  0.14251995578E+03  0.20246521728E+03  0.12509000000E+03 0.  0.
<mgrwt>
<rscale>  2 0.41719822E+03</rscale>
<asrwt>0</asrwt>
<pdfrwt beam="1">  1       21 0.80809269E-01 0.41719822E+03</pdfrwt>
<pdfrwt beam="2">  1       21 0.11645172E-01 0.41719822E+03</pdfrwt>
<totfact> 0.77636667E+04</totfact>
</mgrwt>
</event>
<event>
 7    0  0.4775379E-002  0.4542635E+03  0.7546771E-02  0.1026458E+00
         21   -1    0    0  502  501  0.00000000000E+00  0.00000000000E+00  0.44056812894E+03  0.44056812894E+03  0.00000000000E+00 0.  1.
         21   -1    0    0  501  502 -0.00000000000E+00 -0.00000000000E+00 -0.11709617043E+03  0.11709617043E+03  0.00000000000E+00 0.  1.
      99926    2    1    2    0    0  0.00000000000E+00 -0.17763568394E-14  0.32347195851E+03  0.55766429937E+03  0.45426353898E+03 0.  0.
      99925    2    3    3    0    0  0.19450641282E+02  0.14103788016E+02  0.33835745147E+03  0.42942105283E+03  0.26332381465E+03 0.  0.
         25    1    4    4    0    0 -0.20873329762E+02 -0.18391905859E+02  0.14701760131E+03  0.19502728345E+03  0.12509000000E+03 0.  0.
         25    1    3    3    0    0 -0.19450641282E+02 -0.14103788016E+02 -0.14885492959E+02  0.12824324654E+03  0.12509000000E+03 0.  0.
         25    1    4    4    0    0  0.40323971044E+02  0.32495693875E+02  0.19133985016E+03  0.23439376937E+03  0.12509000000E+03 0.  0.
<mgrwt>
<rscale>  2 0.45426354E+03</rscale>
<asrwt>0</asrwt>
<pdfrwt beam="1">  1       21 0.64789430E-01 0.45426354E+03</pdfrwt>
<pdfrwt beam="2">  1       21 0.17220025E-01 0.45426354E+03</pdfrwt>
<totfact> 0.61721657E+04</totfact>
</mgrwt>
</event>
<event>
 7    0  0.4775379E-002  0.4540035E+03  0.7546771E-02  0.1026535E+00
         21   -1    0    0  502  501  0.00000000000E+00  0.00000000000E+00  0.27005991945E+02  0.27005991945E+02  0.00000000000E+00 0. -1.
         21   -1    0    0  501  502 -0.00000000000E+00 -0.00000000000E+00 -0.19080872137E+04  0.19080872137E+04  0.00000000000E+00 0. -1.
      99926    2    1    2    0    0 -0.49960036108E-15  0.00000000000E+00 -0.18810812217E+04  0.19350932056E+04  0.45400347102E+03 0.  0.
      99925    2    3    3    0    0 -0.27823538985E+00 -0.46674153511E+02 -0.16200408573E+04  0.16418899758E+04  0.26285311348E+03 0.  0.
         25    1    4    4    0    0  0.87691973489E+01 -0.30557477521E+02 -0.57978486253E+03  0.59397698034E+03  0.12509000000E+03 0.  0.
         25    1    3    3    0    0  0.27823538985E+00  0.46674153511E+02 -0.26104036445E+03  0.29320322985E+03  0.12509000000E+03 0.  0.
         25    1    4    4    0    0 -0.90474327387E+01 -0.16116675990E+02 -0.10402559948E+04  0.10479129954E+04  0.12509000000E+03 0.  0.
<mgrwt>
<rscale>  2 0.45400347E+03</rscale>
<asrwt>0</asrwt>
<pdfrwt beam="1">  1       21 0.39714683E-02 0.45400347E+03</pdfrwt>
<pdfrwt beam="2">  1       21 0.28060114E+00 0.45400347E+03</pdfrwt>
<totfact> 0.14913633E+04</totfact>
</mgrwt>
</event>
<event>
 7    0  0.4775379E-002  0.4574682E+03  0.7546771E-02  0.1025518E+00
         21   -1    0    0  502  501  0.00000000000E+00  0.00000000000E+00  0.57080825765E+03  0.57080825765E+03  0.00000000000E+00 0. -1.
         21   -1    0    0  501  502 -0.00000000000E+00 -0.00000000000E+00 -0.91658268518E+02  0.91658268518E+02  0.00000000000E+00 0. -1.
      99926    2    1    2    0    0  0.35527136788E-14  0.00000000000E+00  0.47914998914E+03  0.66246652617E+03  0.45746823519E+03 0.  0.
      99925    2    3    3    0    0 -0.28816340347E+02 -0.11156109450E+03  0.30808132977E+03  0.42124411097E+03  0.26316579565E+03 0.  0.
         25    1    3    3    0    0  0.28816340347E+02  0.11156109450E+03  0.17106865937E+03  0.24122241520E+03  0.12509000000E+03 0.  0.
         25    1    4    4    0    0 -0.55450997859E+02 -0.56935602936E+02  0.15711353083E+03  0.21598297552E+03  0.12509000000E+03 0.  0.
         25    1    4    4    0    0  0.26634657512E+02 -0.54625491566E+02  0.15096779894E+03  0.20526113545E+03  0.12509000000E+03 0.  0.
<mgrwt>
<rscale>  2 0.45746824E+03</rscale>
<asrwt>0</asrwt>
<pdfrwt beam="1">  1       21 0.83942389E-01 0.45746824E+03</pdfrwt>
<pdfrwt beam="2">  1       21 0.13479157E-01 0.45746824E+03</pdfrwt>
<totfact> 0.53930954E+04</totfact>
</mgrwt>
</event>
<event>
 7    0  0.4775379E-002  0.4556411E+03  0.7546771E-02  0.1026053E+00
         21   -1    0    0  502  501  0.00000000000E+00  0.00000000000E+00  0.10609219236E+03  0.10609219236E+03  0.00000000000E+00 0.  1.
         21   -1    0    0  501  502 -0.00000000000E+00 -0.00000000000E+00 -0.48921787857E+03  0.48921787857E+03  0.00000000000E+00 0.  1.
      99926    2    1    2    0    0  0.00000000000E+00 -0.14210854715E-13 -0.38312568622E+03  0.59531007093E+03  0.45564107487E+03 0.  0.
      99925    2    3    3    0    0  0.56862640911E+02 -0.97581210763E+02 -0.22308793005E+03  0.36289870261E+03  0.26300530640E+03 0.  0.
         25    1    4    4    0    0  0.61636629692E+02 -0.40228515480E+02 -0.14227620412E+03  0.20324230351E+03  0.12509000000E+03 0.  0.
         25    1    4    4    0    0 -0.47739887816E+01 -0.57352695283E+02 -0.80811725934E+02  0.15965639910E+03  0.12509000000E+03 0.  0.
         25    1    3    3    0    0 -0.56862640911E+02  0.97581210763E+02 -0.16003775616E+03  0.23241136832E+03  0.12509000000E+03 0.  0.
<mgrwt>
<rscale>  2 0.45564107E+03</rscale>
<asrwt>0</asrwt>
<pdfrwt beam="1">  1       21 0.15601793E-01 0.45564107E+03</pdfrwt>
<pdfrwt beam="2">  1       21 0.71943806E-01 0.45564107E+03</pdfrwt>
<totfact> 0.58670088E+04</totfact>
</mgrwt>
</event>
<event>
 7    0  0.4775379E-002  0.4481624E+03  0.7546771E-02  0.1028271E+00
         21   -1    0    0  502  501  0.00000000000E+00  0.00000000000E+00  0.82731681721E+03  0.82731681721E+03  0.00000000000E+00 0.  1.
         21   -1    0    0  501  502 -0.00000000000E+00 -0.00000000000E+00 -0.60693050662E+02  0.60693050662E+02  0.00000000000E+00 0.  1.
      99926    2    1    2    0    0  0.00000000000E+00  0.00000000000E+00  0.76662376655E+03  0.88800986787E+03  0.44816238798E+03 0.  0.
      99925    2    3    3    0    0 -0.73631828475E+02 -0.70196853483E+02  0.55186807456E+03  0.61946422977E+03  0.26235151198E+03 0.  0.
         25    1    4    4    0    0 -0.49838015085E+02 -0.13075915145E+02  0.20545523465E+03  0.24599627812E+03  0.12509000000E+03 0.  0.
         25    1    4    4    0    0 -0.23793813390E+02 -0.57120938337E+02  0.34641283991E+03  0.37346795165E+03  0.12509000000E+03 0.  0.
         25    1    3    3    0    0  0.73631828475E+02  0.70196853483E+02  0.21475569199E+03  0.26854563810E+03  0.12509000000E+03 0.  0.
<mgrwt>
<rscale>  2 0.44816239E+03</rscale>
<asrwt>0</asrwt>
<pdfrwt beam="1">  1       21 0.12166423E+00 0.44816239E+03</pdfrwt>
<pdfrwt beam="2">  1       21 0.89254491E-02 0.44816239E+03</pdfrwt>
<totfact> 0.46179608E+04</totfact>
</mgrwt>
</event>
<event>
 7    0  0.4775379E-002  0.4593178E+03  0.7546771E-02  0.1024979E+00
         21   -1    0    0  502  501  0.00000000000E+00  0.00000000000E+00  0.12879291320E+03  0.12879291320E+03  0.00000000000E+00 0.  1.
         21   -1    0    0  501  502 -0.00000000000E+00 -0.00000000000E+00 -0.40951956218E+03  0.40951956218E+03  0.00000000000E+00 0.  1.
      99926    2    1    2    0    0  0.00000000000E+00  0.14210854715E-13 -0.28072664897E+03  0.53831247538E+03  0.45931783082E+03 0.  0.
      99925    2    3    3    0    0 -0.66795854238E+02  0.94494984569E+02 -0.17407359129E+03  0.33728170394E+03  0.26470048050E+03 0.  0.
         25    1    4    4    0    0 -0.75692390731E+02  0.56748871127E+02 -0.10938677800E+03  0.19121387944E+03  0.12509000000E+03 0.  0.
         25    1    3    3    0    0  0.66795854238E+02 -0.94494984569E+02 -0.10665305768E+03  0.20103077144E+03  0.12509000000E+03 0.  0.
         25    1    4    4    0    0  0.88965364930E+01  0.37746113442E+02 -0.64686813290E+02  0.14606782450E+03  0.12509000000E+03 0.  0.
<mgrwt>
<rscale>  2 0.45931783E+03</rscale>
<asrwt>0</asrwt>
<pdfrwt beam="1">  1       21 0.18940134E-01 0.45931783E+03</pdfrwt>
<pdfrwt beam="2">  1       21 0.60223465E-01 0.45931783E+03</pdfrwt>
<totfact> 0.60548681E+04</totfact>
</mgrwt>
</event>
<event>
 7    0  0.4775379E-002  0.4621790E+03  0.7546771E-02  0.1024151E+00
         21   -1    0    0  502  501  0.00000000000E+00  0.00000000000E+00  0.14008551283E+03  0.14008551283E+03  0.00000000000E+00 0. -1.
         21   -1    0    0  501  502 -0.00000000000E+00 -0.00000000000E+00 -0.38121262839E+03  0.38121262839E+03  0.00000000000E+00 0. -1.
      99926    2    1    2    0    0  0.00000000000E+00  0.00000000000E+00 -0.24112711555E+03  0.52129814122E+03  0.46217904127E+03 0.  0.
      99925    2    3    3    0    0  0.21731125934E+02 -0.75552063520E+02 -0.48532756219E+02  0.27856278845E+03  0.26279543860E+03 0.  0.
         25    1    4    4    0    0  0.20506640922E+02 -0.40592412934E+02 -0.64122892793E+02  0.14774139498E+03  0.12509000000E+03 0.  0.
         25    1    3    3    0    0 -0.21731125934E+02  0.75552063520E+02 -0.19259435934E+03  0.24273535277E+03  0.12509000000E+03 0.  0.
         25    1    4    4    0    0  0.12244850117E+01 -0.34959650585E+02  0.15590136574E+02  0.13082139348E+03  0.12509000000E+03 0.  0.
<mgrwt>
<rscale>  2 0.46217904E+03</rscale>
<asrwt>0</asrwt>
<pdfrwt beam="1">  1       21 0.20600811E-01 0.46217904E+03</pdfrwt>
<pdfrwt beam="2">  1       21 0.56060680E-01 0.46217904E+03</pdfrwt>
<totfact> 0.60290707E+04</totfact>
</mgrwt>
</event>
<event>
 7    0  0.4775379E-002  0.4555015E+03  0.7546771E-02  0.1026094E+00
         21   -1    0    0  502  501  0.00000000000E+00  0.00000000000E+00  0.84576638552E+03  0.84576638552E+03  0.00000000000E+00 0. -1.
         21   -1    0    0  501  502 -0.00000000000E+00 -0.00000000000E+00 -0.61329457063E+02  0.61329457063E+02  0.00000000000E+00 0. -1.
      99926    2    1    2    0    0 -0.14210854715E-13  0.00000000000E+00  0.78443692846E+03  0.90709584259E+03  0.45550145214E+03 0.  0.
      99925    2    3    3    0    0  0.68493048214E+02 -0.89622824561E+02  0.46579517234E+03  0.54667438765E+03  0.26299086524E+03 0.  0.
         25    1    3    3    0    0 -0.68493048214E+02  0.89622824561E+02  0.31864175612E+03  0.36042145494E+03  0.12509000000E+03 0.  0.
         25    1    4    4    0    0 -0.47524698767E+00 -0.18081692888E+02  0.20321009118E+03  0.23930947063E+03  0.12509000000E+03 0.  0.
         25    1    4    4    0    0  0.68968295202E+02 -0.71541131673E+02  0.26258508116E+03  0.30736491701E+03  0.12509000000E+03 0.  0.
<mgrwt>
<rscale>  2 0.45550145E+03</rscale>
<asrwt>0</asrwt>
<pdfrwt beam="1">  1       21 0.12437740E+00 0.45550145E+03</pdfrwt>
<pdfrwt beam="2">  1       21 0.90190383E-02 0.45550145E+03</pdfrwt>
<totfact> 0.42760231E+04</totfact>
</mgrwt>
</event>
<event>
 7    0  0.4775379E-002  0.4315586E+03  0.7546771E-02  0.1033369E+00
         21   -1    0    0  502  501  0.00000000000E+00  0.00000000000E+00  0.22597575284E+03  0.22597575284E+03  0.00000000000E+00 0.  1.
         21   -1    0    0  501  502 -0.00000000000E+00 -0.00000000000E+00 -0.20604289160E+03  0.20604289160E+03  0.00000000000E+00 0.  1.
      99926    2    1    2    0    0  0.00000000000E+00  0.00000000000E+00  0.19932861233E+02  0.43201864444E+03  0.43155855939E+03 0.  0.
      99925    2    3    3    0    0 -0.80627691479E+02 -0.31944565496E+02 -0.93066535909E+01  0.27702271796E+03  0.26293286703E+03 0.  0.
         25    1    4    4    0    0 -0.50320476585E+02 -0.49612934945E+02 -0.26113252880E+02  0.14602398349E+03  0.12509000000E+03 0.  0.
         25    1    3    3    0    0  0.80627691479E+02  0.31944565496E+02  0.29239514824E+02  0.15499592648E+03  0.12509000000E+03 0.  0.
         25    1    4    4    0    0 -0.30307214894E+02  0.17668369449E+02  0.16806599289E+02  0.13099873447E+03  0.12509000000E+03 0.  0.
<mgrwt>
<rscale>  2 0.43155856E+03</rscale>
<asrwt>0</asrwt>
<pdfrwt beam="1">  1       21 0.33231728E-01 0.43155856E+03</pdfrwt>
<pdfrwt beam="2">  1       21 0.30300425E-01 0.43155856E+03</pdfrwt>
<totfact> 0.85100766E+04</totfact>
</mgrwt>
</event>
<event>
 7    0  0.4775379E-002  0.4530450E+03  0.7546771E-02  0.1026818E+00
         21   -1    0    0  502  501  0.00000000000E+00  0.00000000000E+00  0.12058500299E+04  0.12058500299E+04  0.00000000000E+00 0.  1.
         21   -1    0    0  501  502 -0.00000000000E+00 -0.00000000000E+00 -0.42552930877E+02  0.42552930877E+02  0.00000000000E+00 0.  1.
      99926    2    1    2    0    0  0.00000000000E+00  0.00000000000E+00  0.11632970990E+04  0.12484029608E+04  0.45304504398E+03 0.  0.
      99925    2    3    3    0    0  0.53549804430E+02  0.43084154924E+02  0.97463418229E+03  0.10118336682E+04  0.26300524094E+03 0.  0.
         25    1    3    3    0    0 -0.53549804430E+02 -0.43084154924E+02  0.18866291671E+03  0.23656929260E+03  0.12509000000E+03 0.  0.
         25    1    4    4    0    0  0.52124753145E+02  0.33024480187E+02  0.62448629736E+03  0.63987362023E+03  0.12509000000E+03 0.  0.
         25    1    4    4    0    0  0.14250512854E+01  0.10059674737E+02  0.35014788493E+03  0.37196004792E+03  0.12509000000E+03 0.  0.
<mgrwt>
<rscale>  2 0.45304504E+03</rscale>
<asrwt>0</asrwt>
<pdfrwt beam="1">  1       21 0.17733086E+00 0.45304504E+03</pdfrwt>
<pdfrwt beam="2">  1       21 0.62577847E-02 0.45304504E+03</pdfrwt>
<totfact> 0.31121688E+04</totfact>
</mgrwt>
</event>
<event>
 7    0  0.4775379E-002  0.4557542E+03  0.7546771E-02  0.1026020E+00
         21   -1    0    0  502  501  0.00000000000E+00  0.00000000000E+00  0.62324728412E+03  0.62324728412E+03  0.00000000000E+00 0. -1.
         21   -1    0    0  501  502 -0.00000000000E+00 -0.00000000000E+00 -0.83318394083E+02  0.83318394083E+02  0.00000000000E+00 0. -1.
      99926    2    1    2    0    0  0.00000000000E+00  0.00000000000E+00  0.53992889003E+03  0.70656567820E+03  0.45575415666E+03 0.  0.
      99925    2    3    3    0    0 -0.75834756589E+02 -0.71912129408E+02  0.40962888109E+03  0.49788442582E+03  0.26300345357E+03 0.  0.
         25    1    4    4    0    0 -0.32123642636E+02 -0.34699138632E+02  0.13143708623E+03  0.18750779817E+03  0.12509000000E+03 0.  0.
         25    1    4    4    0    0 -0.43711113953E+02 -0.37212990776E+02  0.27819179486E+03  0.31037662765E+03  0.12509000000E+03 0.  0.
         25    1    3    3    0    0  0.75834756589E+02  0.71912129408E+02  0.13030000894E+03  0.20868125238E+03  0.12509000000E+03 0.  0.
<mgrwt>
<rscale>  2 0.45575416E+03</rscale>
<asrwt>0</asrwt>
<pdfrwt beam="1">  1       21 0.91654010E-01 0.45575416E+03</pdfrwt>
<pdfrwt beam="2">  1       21 0.12252705E-01 0.45575416E+03</pdfrwt>
<totfact> 0.52237267E+04</totfact>
</mgrwt>
</event>
<event>
 7    0  0.4775379E-002  0.4549462E+03  0.7546771E-02  0.1026257E+00
         21   -1    0    0  502  501  0.00000000000E+00  0.00000000000E+00  0.14516442931E+03  0.14516442931E+03  0.00000000000E+00 0. -1.
         21   -1    0    0  501  502 -0.00000000000E+00 -0.00000000000E+00 -0.35645095901E+03  0.35645095901E+03  0.00000000000E+00 0. -1.
      99926    2    1    2    0    0  0.00000000000E+00  0.00000000000E+00 -0.21128652970E+03  0.50161538832E+03  0.45494615084E+03 0.  0.
      99925    2    3    3    0    0  0.41015905453E+02 -0.97657942201E+02 -0.17677628083E+03  0.33411063151E+03  0.26298418669E+03 0.  0.
         25    1    4    4    0    0  0.59852401907E+02 -0.40201638419E+02 -0.83888001517E+02  0.16698259384E+03  0.12509000000E+03 0.  0.
         25    1    4    4    0    0 -0.18836496454E+02 -0.57456303782E+02 -0.92888279314E+02  0.16712803767E+03  0.12509000000E+03 0.  0.
         25    1    3    3    0    0 -0.41015905453E+02  0.97657942201E+02 -0.34510248872E+02  0.16750475681E+03  0.12509000000E+03 0.  0.
<mgrwt>
<rscale>  2 0.45494615E+03</rscale>
<asrwt>0</asrwt>
<pdfrwt beam="1">  1       21 0.21347710E-01 0.45494615E+03</pdfrwt>
<pdfrwt beam="2">  1       21 0.52419258E-01 0.45494615E+03</pdfrwt>
<totfact> 0.65185183E+04</totfact>
</mgrwt>
</event>
<event>
 7    0  0.4775379E-002  0.4501983E+03  0.7546771E-02  0.1027663E+00
         21   -1    0    0  502  501  0.00000000000E+00  0.00000000000E+00  0.13353532588E+03  0.13353532588E+03  0.00000000000E+00 0. -1.
         21   -1    0    0  501  502 -0.00000000000E+00 -0.00000000000E+00 -0.37944734861E+03  0.37944734861E+03  0.00000000000E+00 0. -1.
      99926    2    1    2    0    0  0.00000000000E+00 -0.17763568394E-14 -0.24591202273E+03  0.51298267449E+03  0.45019829120E+03 0.  0.
      99925    2    3    3    0    0 -0.76006664670E+02  0.12142014485E+02 -0.68228395840E+02  0.28245410586E+03  0.26306038532E+03 0.  0.
         25    1    4    4    0    0 -0.20604183209E+02  0.42923931109E+02 -0.31859984697E+02  0.13758474826E+03  0.12509000000E+03 0.  0.
         25    1    3    3    0    0  0.76006664670E+02 -0.12142014485E+02 -0.17768362689E+03  0.23052856863E+03  0.12509000000E+03 0.  0.
         25    1    4    4    0    0 -0.55402481461E+02 -0.30781916624E+02 -0.36368411143E+02  0.14486935760E+03  0.12509000000E+03 0.  0.
<mgrwt>
<rscale>  2 0.45019829E+03</rscale>
<asrwt>0</asrwt>
<pdfrwt beam="1">  1       21 0.19637548E-01 0.45019829E+03</pdfrwt>
<pdfrwt beam="2">  1       21 0.55801080E-01 0.45019829E+03</pdfrwt>
<totfact> 0.66879976E+04</totfact>
</mgrwt>
</event>
<event>
 7    0  0.4775379E-002  0.4538296E+03  0.7546771E-02  0.1026586E+00
         21   -1    0    0  502  501  0.00000000000E+00  0.00000000000E+00  0.16694549916E+03  0.16694549916E+03  0.00000000000E+00 0. -1.
         21   -1    0    0  501  502 -0.00000000000E+00 -0.00000000000E+00 -0.30842599593E+03  0.30842599593E+03  0.00000000000E+00 0. -1.
      99926    2    1    2    0    0  0.00000000000E+00  0.00000000000E+00 -0.14148049677E+03  0.47537149508E+03  0.45382962372E+03 0.  0.
      99925    2    3    3    0    0 -0.83461732548E+02 -0.73300890722E+02 -0.73670340320E+02  0.29485942679E+03  0.26301308170E+03 0.  0.
         25    1    4    4    0    0 -0.30953676975E+02 -0.53863988248E+02 -0.85987885434E+00  0.13966999263E+03  0.12509000000E+03 0.  0.
         25    1    4    4    0    0 -0.52508055573E+02 -0.19436902474E+02 -0.72810461466E+02  0.15518943417E+03  0.12509000000E+03 0.  0.
         25    1    3    3    0    0  0.83461732548E+02  0.73300890722E+02 -0.67810156451E+02  0.18051206829E+03  0.12509000000E+03 0.  0.
<mgrwt>
<rscale>  2 0.45382962E+03</rscale>
<asrwt>0</asrwt>
<pdfrwt beam="1">  1       21 0.24550809E-01 0.45382962E+03</pdfrwt>
<pdfrwt beam="2">  1       21 0.45356764E-01 0.45382962E+03</pdfrwt>
<totfact> 0.67664910E+04</totfact>
</mgrwt>
</event>
<event>
 7    0  0.4775379E-002  0.4327804E+03  0.7546771E-02  0.1032985E+00
         21   -1    0    0  502  501  0.00000000000E+00  0.00000000000E+00  0.97505798129E+02  0.97505798129E+02  0.00000000000E+00 0.  1.
         21   -1    0    0  501  502 -0.00000000000E+00 -0.00000000000E+00 -0.48022500746E+03  0.48022500746E+03  0.00000000000E+00 0.  1.
      99926    2    1    2    0    0  0.00000000000E+00  0.00000000000E+00 -0.38271920933E+03  0.57773080559E+03  0.43278041838E+03 0.  0.
      99925    2    3    3    0    0  0.52000094565E+02 -0.50070984046E+02 -0.31962730487E+03  0.42012620608E+03  0.26293212383E+03 0.  0.
         25    1    3    3    0    0 -0.52000094565E+02  0.50070984046E+02 -0.63091904468E+02  0.15760459951E+03  0.12509000000E+03 0.  0.
         25    1    4    4    0    0 -0.79368290596E+01 -0.11705999256E+02 -0.17962963807E+03  0.21934980886E+03  0.12509000000E+03 0.  0.
         25    1    4    4    0    0  0.59936923625E+02 -0.38364984790E+02 -0.13999766680E+03  0.20077639722E+03  0.12509000000E+03 0.  0.
<mgrwt>
<rscale>  2 0.43278042E+03</rscale>
<asrwt>0</asrwt>
<pdfrwt beam="1">  1       21 0.14339088E-01 0.43278042E+03</pdfrwt>
<pdfrwt beam="2">  1       21 0.70621326E-01 0.43278042E+03</pdfrwt>
<totfact> 0.71890722E+04</totfact>
</mgrwt>
</event>
<event>
 7    0  0.4775379E-002  0.4528752E+03  0.7546771E-02  0.1026868E+00
         21   -1    0    0  502  501  0.00000000000E+00  0.00000000000E+00  0.43939304062E+02  0.43939304062E+02  0.00000000000E+00 0.  1.
         21   -1    0    0  501  502 -0.00000000000E+00 -0.00000000000E+00 -0.11669273796E+04  0.11669273796E+04  0.00000000000E+00 0.  1.
      99926    2    1    2    0    0  0.00000000000E+00  0.35527136788E-14 -0.11229880756E+04  0.12108666837E+04  0.45287515698E+03 0.  0.
      99925    2    3    3    0    0 -0.96570404275E+02 -0.24537242318E+02 -0.83973214525E+03  0.88558319287E+03  0.26302014464E+03 0.  0.
         25    1    4    4    0    0 -0.37527585631E+02 -0.37534258368E+02 -0.50964304848E+03  0.52744732931E+03  0.12509000000E+03 0.  0.
         25    1    4    4    0    0 -0.59042818645E+02  0.12997016050E+02 -0.33008909677E+03  0.35813586356E+03  0.12509000000E+03 0.  0.
         25    1    3    3    0    0  0.96570404275E+02  0.24537242318E+02 -0.28325593033E+03  0.32528349083E+03  0.12509000000E+03 0.  0.
<mgrwt>
<rscale>  2 0.45287516E+03</rscale>
<asrwt>0</asrwt>
<pdfrwt beam="1">  1       21 0.64616623E-02 0.45287516E+03</pdfrwt>
<pdfrwt beam="2">  1       21 0.17160697E+00 0.45287516E+03</pdfrwt>
<totfact> 0.32345453E+04</totfact>
</mgrwt>
</event>
<event>
 7    0  0.4775379E-002  0.4627031E+03  0.7546771E-02  0.1024000E+00
         21   -1    0    0  502  501  0.00000000000E+00  0.00000000000E+00  0.98130499208E+02  0.98130499208E+02  0.00000000000E+00 0.  1.
         21   -1    0    0  501  502 -0.00000000000E+00 -0.00000000000E+00 -0.54543227915E+03  0.54543227915E+03  0.00000000000E+00 0.  1.
      99926    2    1    2    0    0  0.00000000000E+00  0.71054273576E-14 -0.44730177994E+03  0.64356277836E+03  0.46270310929E+03 0.  0.
      99925    2    3    3    0    0 -0.92941827159E+02 -0.60321491837E+02 -0.21438359672E+03  0.35690051403E+03  0.26294635339E+03 0.  0.
         25    1    4    4    0    0 -0.17936447058E+02 -0.38929885324E+01 -0.72505182427E+02  0.14574423169E+03  0.12509000000E+03 0.  0.
         25    1    4    4    0    0 -0.75005380101E+02 -0.56428503305E+02 -0.14187841430E+03  0.21115628234E+03  0.12509000000E+03 0.  0.
         25    1    3    3    0    0  0.92941827159E+02  0.60321491837E+02 -0.23291818322E+03  0.28666226432E+03  0.12509000000E+03 0.  0.
<mgrwt>
<rscale>  2 0.46270311E+03</rscale>
<asrwt>0</asrwt>
<pdfrwt beam="1">  1       21 0.14430956E-01 0.46270311E+03</pdfrwt>
<pdfrwt beam="2">  1       21 0.80210629E-01 0.46270311E+03</pdfrwt>
<totfact> 0.52790974E+04</totfact>
</mgrwt>
</event>
<event>
 7    0  0.4775379E-002  0.4574921E+03  0.7546771E-02  0.1025511E+00
         21   -1    0    0  502  501  0.00000000000E+00  0.00000000000E+00  0.74220209150E+02  0.74220209150E+02  0.00000000000E+00 0.  1.
         21   -1    0    0  501  502 -0.00000000000E+00 -0.00000000000E+00 -0.70499329099E+03  0.70499329099E+03  0.00000000000E+00 0.  1.
      99926    2    1    2    0    0  0.00000000000E+00  0.00000000000E+00 -0.63077308184E+03  0.77921350014E+03  0.45749207428E+03 0.  0.
      99925    2    3    3    0    0  0.20826961287E+02 -0.11330653378E+03 -0.38824230045E+03  0.48300272901E+03  0.26322503576E+03 0.  0.
         25    1    4    4    0    0  0.17346937239E+02 -0.92885353573E+02 -0.17532390306E+03  0.23519052749E+03  0.12509000000E+03 0.  0.
         25    1    3    3    0    0 -0.20826961287E+02  0.11330653378E+03 -0.24253078138E+03  0.29621077113E+03  0.12509000000E+03 0.  0.
         25    1    4    4    0    0  0.34800240482E+01 -0.20421180211E+02 -0.21291839740E+03  0.24781220151E+03  0.12509000000E+03 0.  0.
<mgrwt>
<rscale>  2 0.45749207E+03</rscale>
<asrwt>0</asrwt>
<pdfrwt beam="1">  1       21 0.10914737E-01 0.45749207E+03</pdfrwt>
<pdfrwt beam="2">  1       21 0.10367548E+00 0.45749207E+03</pdfrwt>
<totfact> 0.47843943E+04</totfact>
</mgrwt>
</event>
<event>
 7    0  0.4775379E-002  0.4520352E+03  0.7546771E-02  0.1027117E+00
         21   -1    0    0  502  501  0.00000000000E+00  0.00000000000E+00  0.13861008458E+03  0.13861008458E+03  0.00000000000E+00 0. -1.
         21   -1    0    0  501  502 -0.00000000000E+00 -0.00000000000E+00 -0.36854425574E+03  0.36854425574E+03  0.00000000000E+00 0. -1.
      99926    2    1    2    0    0  0.88817841970E-15  0.00000000000E+00 -0.22993417116E+03  0.50715434033E+03  0.45203517766E+03 0.  0.
      99925    2    3    3    0    0 -0.78901951004E+01  0.93178773893E+02 -0.21088033302E+03  0.34981681800E+03  0.26297671421E+03 0.  0.
         25    1    3    3    0    0  0.78901951004E+01 -0.93178773893E+02 -0.19053838133E+02  0.15733752232E+03  0.12509000000E+03 0.  0.
         25    1    4    4    0    0  0.26012896811E+02  0.71580460788E+02 -0.12772374710E+03  0.19432266167E+03  0.12509000000E+03 0.  0.
         25    1    4    4    0    0 -0.33903091911E+02  0.21598313106E+02 -0.83156585929E+02  0.15549415633E+03  0.12509000000E+03 0.  0.
<mgrwt>
<rscale>  2 0.45203518E+03</rscale>
<asrwt>0</asrwt>
<pdfrwt beam="1">  1       21 0.20383836E-01 0.45203518E+03</pdfrwt>
<pdfrwt beam="2">  1       21 0.54197684E-01 0.45203518E+03</pdfrwt>
<totfact> 0.66317712E+04</totfact>
</mgrwt>
</event>
<event>
 7    0  0.4775379E-002  0.4578062E+03  0.7546771E-02  0.1025419E+00
         21   -1    0    0  502  501  0.00000000000E+00  0.00000000000E+00  0.15716558280E+03  0.15716558280E+03  0.00000000000E+00 0. -1.
         21   -1    0    0  501  502 -0.00000000000E+00 -0.00000000000E+00 -0.33338489957E+03  0.33338489957E+03  0.00000000000E+00 0. -1.
      99926    2    1    2    0    0  0.00000000000E+00  0.14210854715E-13 -0.17621931678E+03  0.49055048237E+03  0.45780621244E+03 0.  0.
      99925    2    3    3    0    0 -0.18241697992E+02  0.99933448183E+02 -0.17001720714E+03  0.32928849716E+03  0.26306959160E+03 0.  0.
         25    1    4    4    0    0 -0.33918315280E+02  0.54924180359E+02 -0.49638028854E+02  0.14926004056E+03  0.12509000000E+03 0.  0.
         25    1    4    4    0    0  0.15676617288E+02  0.45009267825E+02 -0.12037917829E+03  0.18002845660E+03  0.12509000000E+03 0.  0.
         25    1    3    3    0    0  0.18241697992E+02 -0.99933448183E+02 -0.62021096357E+01  0.16126198521E+03  0.12509000000E+03 0.  0.
<mgrwt>
<rscale>  2 0.45780621E+03</rscale>
<asrwt>0</asrwt>
<pdfrwt beam="1">  1       21 0.23112586E-01 0.45780621E+03</pdfrwt>
<pdfrwt beam="2">  1       21 0.49027191E-01 0.45780621E+03</pdfrwt>
<totfact> 0.64491032E+04</totfact>
</mgrwt>
</event>
<event>
 7    0  0.4775379E-002  0.4239995E+03  0.7546771E-02  0.1035772E+00
         21   -1    0    0  502  501  0.00000000000E+00  0.00000000000E+00  0.17012946004E+04  0.17012946004E+04  0.00000000000E+00 0. -1.
         21   -1    0    0  501  502 -0.00000000000E+00 -0.00000000000E+00 -0.26417465202E+02  0.26417465202E+02  0.00000000000E+00 0. -1.
      99926    2    1    2    0    0 -0.35527136788E-14  0.00000000000E+00  0.16748771352E+04  0.17277120656E+04  0.42399948540E+03 0.  0.
      99925    2    3    3    0    0 -0.88586977371E+01  0.61725484847E+02  0.87676767645E+03  0.91745610095E+03  0.26289851027E+03 0.  0.
         25    1    4    4    0    0  0.20194650054E+02  0.11217885271E+02  0.50890756294E+03  0.52456465813E+03  0.12509000000E+03 0.  0.
         25    1    3    3    0    0  0.88586977371E+01 -0.61725484847E+02  0.79810945878E+03  0.81025596468E+03  0.12509000000E+03 0.  0.
         25    1    4    4    0    0 -0.29053347791E+02  0.50507599576E+02  0.36786011351E+03  0.39289144282E+03  0.12509000000E+03 0.  0.
<mgrwt>
<rscale>  2 0.42399949E+03</rscale>
<asrwt>0</asrwt>
<pdfrwt beam="1">  1       21 0.25019031E+00 0.42399949E+03</pdfrwt>
<pdfrwt beam="2">  1       21 0.38849225E-02 0.42399949E+03</pdfrwt>
<totfact> 0.23957678E+04</totfact>
</mgrwt>
</event>
<event>
 7    0  0.4775379E-002  0.4620831E+03  0.7546771E-02  0.1024179E+00
         21   -1    0    0  502  501  0.00000000000E+00  0.00000000000E+00  0.27229583175E+03  0.27229583175E+03  0.00000000000E+00 0.  1.
         21   -1    0    0  501  502 -0.00000000000E+00 -0.00000000000E+00 -0.19603747853E+03  0.19603747853E+03  0.00000000000E+00 0.  1.
      99926    2    1    2    0    0  0.00000000000E+00  0.00000000000E+00  0.76258353222E+02  0.46833331028E+03  0.46208305864E+03 0.  0.
      99925    2    3    3    0    0  0.94220797371E+02 -0.58927823491E+02  0.26010688187E+01  0.28551386196E+03  0.26298546114E+03 0.  0.
         25    1    4    4    0    0  0.75047818878E+02 -0.38825200615E+02  0.31387786033E+02  0.15418259478E+03  0.12509000000E+03 0.  0.
         25    1    4    4    0    0  0.19172978493E+02 -0.20102622876E+02 -0.28786717215E+02  0.13133126718E+03  0.12509000000E+03 0.  0.
         25    1    3    3    0    0 -0.94220797371E+02  0.58927823491E+02  0.73657284403E+02  0.18281944832E+03  0.12509000000E+03 0.  0.
<mgrwt>
<rscale>  2 0.46208306E+03</rscale>
<asrwt>0</asrwt>
<pdfrwt beam="1">  1       21 0.40043505E-01 0.46208306E+03</pdfrwt>
<pdfrwt beam="2">  1       21 0.28829041E-01 0.46208306E+03</pdfrwt>
<totfact> 0.63889536E+04</totfact>
</mgrwt>
</event>
<event>
 7    0  0.4775379E-002  0.4535656E+03  0.7546771E-02  0.1026664E+00
         21   -1    0    0  502  501  0.00000000000E+00  0.00000000000E+00  0.65212620696E+02  0.65212620696E+02  0.00000000000E+00 0.  1.
         21   -1    0    0  501  502 -0.00000000000E+00 -0.00000000000E+00 -0.78865763017E+03  0.78865763017E+03  0.00000000000E+00 0.  1.
      99926    2    1    2    0    0 -0.14210854715E-13 -0.71054273576E-14 -0.72344500947E+03  0.85387025087E+03  0.45356556701E+03 0.  0.
      99925    2    3    3    0    0  0.10438877024E+03  0.37663900522E+02 -0.46225550668E+03  0.54373632943E+03  0.26391941522E+03 0.  0.
         25    1    4    4    0    0  0.38807566110E+02 -0.38717589501E+01 -0.15449606181E+03  0.20257729122E+03  0.12509000000E+03 0.  0.
         25    1    4    4    0    0  0.65581204133E+02  0.41535659472E+02 -0.30775944486E+03  0.34115903820E+03  0.12509000000E+03 0.  0.
         25    1    3    3    0    0 -0.10438877024E+03 -0.37663900522E+02 -0.26118950280E+03  0.31013392144E+03  0.12509000000E+03 0.  0.
<mgrwt>
<rscale>  2 0.45356557E+03</rscale>
<asrwt>0</asrwt>
<pdfrwt beam="1">  1       21 0.95900912E-02 0.45356557E+03</pdfrwt>
<pdfrwt beam="2">  1       21 0.11597906E+00 0.45356557E+03</pdfrwt>
<totfact> 0.45779674E+04</totfact>
</mgrwt>
</event>
<event>
 7    0  0.4775379E-002  0.4291876E+03  0.7546771E-02  0.1034117E+00
         21   -1    0    0  502  501  0.00000000000E+00  0.00000000000E+00  0.35473821638E+03  0.35473821638E+03  0.00000000000E+00 0. -1.
         21   -1    0    0  501  502 -0.00000000000E+00 -0.00000000000E+00 -0.12981547210E+03  0.12981547210E+03  0.00000000000E+00 0. -1.
      99926    2    1    2    0    0  0.00000000000E+00  0.00000000000E+00  0.22492274428E+03  0.48455368847E+03  0.42918764675E+03 0.  0.
      99925    2    3    3    0    0 -0.40792283996E+02  0.75328785180E+02  0.16061497501E+03  0.31986782509E+03  0.26302056767E+03 0.  0.
         25    1    4    4    0    0 -0.19731622577E+02  0.34352824341E+02  0.32940805643E+02  0.13528509987E+03  0.12509000000E+03 0.  0.
         25    1    3    3    0    0  0.40792283996E+02 -0.75328785180E+02  0.64307769266E+02  0.16468586338E+03  0.12509000000E+03 0.  0.
         25    1    4    4    0    0 -0.21060661419E+02  0.40975960840E+02  0.12767416937E+03  0.18458272522E+03  0.12509000000E+03 0.  0.
<mgrwt>
<rscale>  2 0.42918765E+03</rscale>
<asrwt>0</asrwt>
<pdfrwt beam="1">  1       21 0.52167385E-01 0.42918765E+03</pdfrwt>
<pdfrwt beam="2">  1       21 0.19090511E-01 0.42918765E+03</pdfrwt>
<totfact> 0.81909742E+04</totfact>
</mgrwt>
</event>
<event>
 6    0  0.4775379E-002  0.4581807E+03  0.7546771E-02  0.1025310E+00
         21   -1    0    0  502  501  0.00000000000E+00  0.00000000000E+00  0.23474020052E+02  0.23474020052E+02  0.00000000000E+00 0. -1.
         21   -1    0    0  501  502 -0.00000000000E+00 -0.00000000000E+00 -0.22357651642E+04  0.22357651642E+04  0.00000000000E+00 0. -1.
      99926    2    1    2    0    0  0.00000000000E+00 -0.71054273576E-14 -0.22122911441E+04  0.22592391842E+04  0.45818073418E+03 0.  0.
         25    1    3    3    0    0 -0.64336083920E+02  0.10231067994E+02 -0.96639286439E+03  0.97663016689E+03  0.12509000000E+03 0.  0.
         25    1    3    3    0    0  0.93753048674E+02 -0.55811677592E+02 -0.60423498423E+03  0.62661950318E+03  0.12509000000E+03 0.  0.
         25    1    3    3    0    0 -0.29416964754E+02  0.45580609598E+02 -0.64166329549E+03  0.65598951414E+03  0.12509000000E+03 0.  0.
<mgrwt>
<rscale>  2 0.45818073E+03</rscale>
<asrwt>0</asrwt>
<pdfrwt beam="1">  1       21 0.34520612E-02 0.45818073E+03</pdfrwt>
<pdfrwt beam="2">  1       21 0.32878905E+00 0.45818073E+03</pdfrwt>
<totfact> 0.96787504E+03</totfact>
</mgrwt>
</event>
<event>
 7    0  0.4775379E-002  0.4565203E+03  0.7546771E-02  0.1025795E+00
         21   -1    0    0  502  501  0.00000000000E+00  0.00000000000E+00  0.15499644304E+03  0.15499644304E+03  0.00000000000E+00 0. -1.
         21   -1    0    0  501  502 -0.00000000000E+00 -0.00000000000E+00 -0.33615414745E+03  0.33615414745E+03  0.00000000000E+00 0. -1.
      99926    2    1    2    0    0  0.00000000000E+00  0.00000000000E+00 -0.18115770441E+03  0.49115059049E+03  0.45652030477E+03 0.  0.
      99925    2    3    3    0    0 -0.35883156725E+02  0.56980858224E+02 -0.21362348592E+03  0.34542497774E+03  0.26296197895E+03 0.  0.
         25    1    4    4    0    0 -0.27593882243E+01  0.18129478667E+01 -0.13580066897E+03  0.18466247804E+03  0.12509000000E+03 0.  0.
         25    1    3    3    0    0  0.35883156725E+02 -0.56980858224E+02  0.32465781508E+02  0.14572561274E+03  0.12509000000E+03 0.  0.
         25    1    4    4    0    0 -0.33123768501E+02  0.55167910357E+02 -0.77822816955E+02  0.16076249971E+03  0.12509000000E+03 0.  0.
<mgrwt>
<rscale>  2 0.45652030E+03</rscale>
<asrwt>0</asrwt>
<pdfrwt beam="1">  1       21 0.22793594E-01 0.45652030E+03</pdfrwt>
<pdfrwt beam="2">  1       21 0.49434434E-01 0.45652030E+03</pdfrwt>
<totfact> 0.65107585E+04</totfact>
</mgrwt>
</event>
<event>
 7    0  0.4775379E-002  0.4506897E+03  0.7546771E-02  0.1027517E+00
         21   -1    0    0  502  501  0.00000000000E+00  0.00000000000E+00  0.10698645811E+03  0.10698645811E+03  0.00000000000E+00 0. -1.
         21   -1    0    0  501  502 -0.00000000000E+00 -0.00000000000E+00 -0.47464230311E+03  0.47464230311E+03  0.00000000000E+00 0. -1.
      99926    2    1    2    0    0  0.00000000000E+00  0.00000000000E+00 -0.36765584501E+03  0.58162876122E+03  0.45068968871E+03 0.  0.
      99925    2    3    3    0    0  0.77740684250E+02 -0.65818691649E+02 -0.18227176074E+03  0.33588401365E+03  0.26309572727E+03 0.  0.
         25    1    4    4    0    0  0.99384212943E+01 -0.19236254092E+02 -0.51148334589E+02  0.13686659900E+03  0.12509000000E+03 0.  0.
         25    1    4    4    0    0  0.67802262956E+02 -0.46582437557E+02 -0.13112342615E+03  0.19901741466E+03  0.12509000000E+03 0.  0.
         25    1    3    3    0    0 -0.77740684250E+02  0.65818691649E+02 -0.18538408426E+03  0.24574474757E+03  0.12509000000E+03 0.  0.
<mgrwt>
<rscale>  2 0.45068969E+03</rscale>
<asrwt>0</asrwt>
<pdfrwt beam="1">  1       21 0.15733302E-01 0.45068969E+03</pdfrwt>
<pdfrwt beam="2">  1       21 0.69800340E-01 0.45068969E+03</pdfrwt>
<totfact> 0.61906136E+04</totfact>
</mgrwt>
</event>
<event>
 7    0  0.4775379E-002  0.4409095E+03  0.7546771E-02  0.1030468E+00
         21   -1    0    0  502  501  0.00000000000E+00  0.00000000000E+00  0.99623347020E+02  0.99623347020E+02  0.00000000000E+00 0. -1.
         21   -1    0    0  501  502 -0.00000000000E+00 -0.00000000000E+00 -0.48784043159E+03  0.48784043159E+03  0.00000000000E+00 0. -1.
      99926    2    1    2    0    0 -0.14210854715E-13  0.35527136788E-14 -0.38821708457E+03  0.58746377861E+03  0.44090949913E+03 0.  0.
      99925    2    3    3    0    0 -0.84689336438E+02  0.20469096191E+02 -0.18366814575E+03  0.33235783184E+03  0.26293815436E+03 0.  0.
         25    1    4    4    0    0 -0.84222367046E+02  0.12462058089E+02 -0.92287716088E+02  0.17723780817E+03  0.12509000000E+03 0.  0.
         25    1    4    4    0    0 -0.46696939176E+00  0.80070381029E+01 -0.91380429666E+02  0.15512002368E+03  0.12509000000E+03 0.  0.
         25    1    3    3    0    0  0.84689336438E+02 -0.20469096191E+02 -0.20454893881E+03  0.25510594677E+03  0.12509000000E+03 0.  0.
<mgrwt>
<rscale>  2 0.44090950E+03</rscale>
<asrwt>0</asrwt>
<pdfrwt beam="1">  1       21 0.14650492E-01 0.44090950E+03</pdfrwt>
<pdfrwt beam="2">  1       21 0.71741239E-01 0.44090950E+03</pdfrwt>
<totfact> 0.66565820E+04</totfact>
</mgrwt>
</event>
<event>
 7    0  0.4775379E-002  0.4609130E+03  0.7546771E-02  0.1024517E+00
         21   -1    0    0  502  501  0.00000000000E+00  0.00000000000E+00  0.45941422300E+03  0.45941422300E+03  0.00000000000E+00 0.  1.
         21   -1    0    0  501  502 -0.00000000000E+00 -0.00000000000E+00 -0.11560416493E+03  0.11560416493E+03  0.00000000000E+00 0.  1.
      99926    2    1    2    0    0  0.00000000000E+00  0.00000000000E+00  0.34381005807E+03  0.57501838793E+03  0.46091299659E+03 0.  0.
      99925    2    3    3    0    0 -0.10080057769E+03 -0.61005056433E+02  0.19825871708E+03  0.34981831169E+03  0.26302843748E+03 0.  0.
         25    1    4    4    0    0 -0.75272265007E+02 -0.65704611354E+02  0.10152839883E+03  0.18957461249E+03  0.12509000000E+03 0.  0.
         25    1    4    4    0    0 -0.25528312684E+02  0.46995549204E+01  0.96730318244E+02  0.16024369920E+03  0.12509000000E+03 0.  0.
         25    1    3    3    0    0  0.10080057769E+03  0.61005056433E+02  0.14555134100E+03  0.22520007624E+03  0.12509000000E+03 0.  0.
<mgrwt>
<rscale>  2 0.46091300E+03</rscale>
<asrwt>0</asrwt>
<pdfrwt beam="1">  1       21 0.67560914E-01 0.46091300E+03</pdfrwt>
<pdfrwt beam="2">  1       21 0.17000613E-01 0.46091300E+03</pdfrwt>
<totfact> 0.57506740E+04</totfact>
</mgrwt>
</event>
<event>
 7    0  0.4775379E-002  0.4525340E+03  0.7546771E-02  0.1026969E+00
         21   -1    0    0  502  501  0.00000000000E+00  0.00000000000E+00  0.25043440720E+02  0.25043440720E+02  0.00000000000E+00 0.  1.
         21   -1    0    0  501  502 -0.00000000000E+00 -0.00000000000E+00 -0.20443183421E+04  0.20443183421E+04  0.00000000000E+00 0.  1.
      99926    2    1    2    0    0  0.35527136788E-14 -0.14210854715E-13 -0.20192749014E+04  0.20693617828E+04  0.45253404386E+03 0.  0.
      99925    2    3    3    0    0 -0.23242789578E+02 -0.10241189586E+03 -0.14406143520E+04  0.14680931546E+04  0.26248690624E+03 0.  0.
         25    1    3    3    0    0  0.23242789578E+02  0.10241189586E+03 -0.57866054942E+03  0.60126862818E+03  0.12509000000E+03 0.  0.
         25    1    4    4    0    0  0.25126231466E+02 -0.41924763038E+02 -0.61781177139E+03  0.63224038643E+03  0.12509000000E+03 0.  0.
         25    1    4    4    0    0 -0.48369021044E+02 -0.60487132817E+02 -0.82280258056E+03  0.83585276821E+03  0.12509000000E+03 0.  0.
<mgrwt>
<rscale>  2 0.45253404E+03</rscale>
<asrwt>0</asrwt>
<pdfrwt beam="1">  1       21 0.36828585E-02 0.45253404E+03</pdfrwt>
<pdfrwt beam="2">  1       21 0.30063508E+00 0.45253404E+03</pdfrwt>
<totfact> 0.12854622E+04</totfact>
</mgrwt>
</event>
<event>
 7    0  0.4775379E-002  0.4576591E+03  0.7546771E-02  0.1025462E+00
         21   -1    0    0  502  501  0.00000000000E+00  0.00000000000E+00  0.80299992383E+02  0.80299992383E+02  0.00000000000E+00 0.  1.
         21   -1    0    0  501  502 -0.00000000000E+00 -0.00000000000E+00 -0.65209184038E+03  0.65209184038E+03  0.00000000000E+00 0.  1.
      99926    2    1    2    0    0  0.00000000000E+00  0.00000000000E+00 -0.57179184800E+03  0.73239183276E+03  0.45765912999E+03 0.  0.
      99925    2    3    3    0    0  0.72586705205E+02  0.82748346655E+02 -0.41585201731E+03  0.50417952472E+03  0.26296002396E+03 0.  0.
         25    1    4    4    0    0  0.50632812383E+02  0.63011093293E+02 -0.28011480900E+03  0.31724737019E+03  0.12509000000E+03 0.  0.
         25    1    4    4    0    0  0.21953892823E+02  0.19737253363E+02 -0.13573720831E+03  0.18693215454E+03  0.12509000000E+03 0.  0.
         25    1    3    3    0    0 -0.72586705205E+02 -0.82748346655E+02 -0.15593983069E+03  0.22821230804E+03  0.12509000000E+03 0.  0.
<mgrwt>
<rscale>  2 0.45765913E+03</rscale>
<asrwt>0</asrwt>
<pdfrwt beam="1">  1       21 0.11808822E-01 0.45765913E+03</pdfrwt>
<pdfrwt beam="2">  1       21 0.95895863E-01 0.45765913E+03</pdfrwt>
<totfact> 0.50123083E+04</totfact>
</mgrwt>
</event>
<event>
 7    0  0.4775379E-002  0.4713771E+03  0.7546771E-02  0.1021532E+00
         21   -1    0    0  502  501  0.00000000000E+00  0.00000000000E+00  0.97797975527E+03  0.97797975527E+03  0.00000000000E+00 0. -1.
         21   -1    0    0  501  502 -0.00000000000E+00 -0.00000000000E+00 -0.56799842645E+02  0.56799842645E+02  0.00000000000E+00 0. -1.
      99926    2    1    2    0    0 -0.71054273576E-14  0.00000000000E+00  0.92117991263E+03  0.10347795979E+04  0.47137711531E+03 0.  0.
      99925    2    3    3    0    0 -0.50288576702E+02  0.10728224048E+03  0.67729066965E+03  0.73616966672E+03  0.26302985940E+03 0.  0.
         25    1    4    4    0    0 -0.12067786510E+02  0.64653453912E+02  0.24881104689E+03  0.28614707010E+03  0.12509000000E+03 0.  0.
         25    1    4    4    0    0 -0.38220790192E+02  0.42628786567E+02  0.42847962276E+03  0.45002259662E+03  0.12509000000E+03 0.  0.
         25    1    3    3    0    0  0.50288576702E+02 -0.10728224048E+03  0.24388924298E+03  0.29860993120E+03  0.12509000000E+03 0.  0.
<mgrwt>
<rscale>  2 0.47137712E+03</rscale>
<asrwt>0</asrwt>
<pdfrwt beam="1">  1       21 0.14382054E+00 0.47137712E+03</pdfrwt>
<pdfrwt beam="2">  1       21 0.83529187E-02 0.47137712E+03</pdfrwt>
<totfact> 0.33366389E+04</totfact>
</mgrwt>
</event>
<event>
 7    0  0.4775379E-002  0.4096014E+03  0.7546771E-02  0.1040505E+00
         21   -1    0    0  502  501  0.00000000000E+00  0.00000000000E+00  0.77205600253E+03  0.77205600253E+03  0.00000000000E+00 0.  1.
         21   -1    0    0  501  502 -0.00000000000E+00 -0.00000000000E+00 -0.54326793443E+02  0.54326793443E+02  0.00000000000E+00 0.  1.
      99926    2    1    2    0    0  0.00000000000E+00  0.17763568394E-14  0.71772920908E+03  0.82638279597E+03  0.40960140125E+03 0.  0.
      99925    2    3    3    0    0 -0.32507798867E+02  0.10635690759E+02  0.37050939692E+03  0.45573608957E+03  0.26315070820E+03 0.  0.
         25    1    3    3    0    0  0.32507798867E+02 -0.10635690759E+02  0.34721981216E+03  0.37064670640E+03  0.12509000000E+03 0.  0.
         25    1    4    4    0    0  0.18344355804E+02  0.10997602216E+02  0.21614103477E+03  0.25064300839E+03  0.12509000000E+03 0.  0.
         25    1    4    4    0    0 -0.50852154671E+02 -0.36191145706E+00  0.15436836215E+03  0.20509308118E+03  0.12509000000E+03 0.  0.
<mgrwt>
<rscale>  2 0.40960140E+03</rscale>
<asrwt>0</asrwt>
<pdfrwt beam="1">  1       21 0.11353764E+00 0.40960140E+03</pdfrwt>
<pdfrwt beam="2">  1       21 0.79892348E-02 0.40960140E+03</pdfrwt>
<totfact> 0.67543405E+04</totfact>
</mgrwt>
</event>
<event>
 6    0  0.4775379E-002  0.4843810E+03  0.7546771E-02  0.1017938E+00
         21   -1    0    0  502  501  0.00000000000E+00  0.00000000000E+00  0.12225512903E+04  0.12225512903E+04  0.00000000000E+00 0.  1.
         21   -1    0    0  501  502 -0.00000000000E+00 -0.00000000000E+00 -0.47978542516E+02  0.47978542516E+02  0.00000000000E+00 0.  1.
      99926    2    1    2    0    0  0.35527136788E-14  0.00000000000E+00  0.11745727478E+04  0.12705298328E+04  0.48438096189E+03 0.  0.
         25    1    3    3    0    0 -0.11653385027E+02 -0.55006967560E+02  0.66562326913E+03  0.67960533574E+03  0.12509000000E+03 0.  0.
         25    1    3    3    0    0 -0.14662472124E+02  0.31747295061E+02  0.40256451388E+03  0.42299949736E+03  0.12509000000E+03 0.  0.
         25    1    3    3    0    0  0.26315857151E+02  0.23259672498E+02  0.10638496481E+03  0.16792499975E+03  0.12509000000E+03 0.  0.
<mgrwt>
<rscale>  2 0.48438096E+03</rscale>
<asrwt>0</asrwt>
<pdfrwt beam="1">  1       21 0.17978693E+00 0.48438096E+03</pdfrwt>
<pdfrwt beam="2">  1       21 0.70556688E-02 0.48438096E+03</pdfrwt>
<totfact> 0.24005234E+04</totfact>
</mgrwt>
</event>
<event>
 7    0  0.4775379E-002  0.4577580E+03  0.7546771E-02  0.1025433E+00
         21   -1    0    0  502  501  0.00000000000E+00  0.00000000000E+00  0.28775765700E+03  0.28775765700E+03  0.00000000000E+00 0. -1.
         21   -1    0    0  501  502 -0.00000000000E+00 -0.00000000000E+00 -0.18204764160E+03  0.18204764160E+03  0.00000000000E+00 0. -1.
      99926    2    1    2    0    0  0.14210854715E-13  0.00000000000E+00  0.10571001541E+03  0.46980529860E+03  0.45775802695E+03 0.  0.
      99925    2    3    3    0    0  0.10670494600E+03 -0.29082193039E+02  0.10101853548E+03  0.30276866329E+03  0.26312050377E+03 0.  0.
         25    1    4    4    0    0  0.75459976809E+02  0.11023891958E+02  0.27627717973E+02  0.14908565724E+03  0.12509000000E+03 0.  0.
         25    1    3    3    0    0 -0.10670494600E+03  0.29082193039E+02  0.46914799263E+01  0.16703663531E+03  0.12509000000E+03 0.  0.
         25    1    4    4    0    0  0.31244969193E+02 -0.40106084997E+02  0.73390817507E+02  0.15368300605E+03  0.12509000000E+03 0.  0.
<mgrwt>
<rscale>  2 0.45775803E+03</rscale>
<asrwt>0</asrwt>
<pdfrwt beam="1">  1       21 0.42317303E-01 0.45775803E+03</pdfrwt>
<pdfrwt beam="2">  1       21 0.26771712E-01 0.45775803E+03</pdfrwt>
<totfact> 0.65994722E+04</totfact>
</mgrwt>
</event>
<event>
 7    0  0.4775379E-002  0.4584432E+03  0.7546771E-02  0.1025234E+00
         21   -1    0    0  502  501  0.00000000000E+00  0.00000000000E+00  0.51240238059E+03  0.51240238059E+03  0.00000000000E+00 0.  1.
         21   -1    0    0  501  502 -0.00000000000E+00 -0.00000000000E+00 -0.10254155132E+03  0.10254155132E+03  0.00000000000E+00 0.  1.
      99926    2    1    2    0    0 -0.71054273576E-14  0.00000000000E+00  0.40986082927E+03  0.61494393191E+03  0.45844316990E+03 0.  0.
      99925    2    3    3    0    0 -0.55438938667E+02  0.73399162140E+02  0.35275347426E+03  0.44950611574E+03  0.26298254992E+03 0.  0.
         25    1    3    3    0    0  0.55438938667E+02 -0.73399162140E+02  0.57107355005E+02  0.16543781617E+03  0.12509000000E+03 0.  0.
         25    1    4    4    0    0 -0.61946551918E+02  0.15623328746E+02  0.16938239794E+03  0.22004401498E+03  0.12509000000E+03 0.  0.
         25    1    4    4    0    0  0.65076132518E+01  0.57775833394E+02  0.18337107632E+03  0.22946210076E+03  0.12509000000E+03 0.  0.
<mgrwt>
<rscale>  2 0.45844317E+03</rscale>
<asrwt>0</asrwt>
<pdfrwt beam="1">  1       21 0.75353290E-01 0.45844317E+03</pdfrwt>
<pdfrwt beam="2">  1       21 0.15079640E-01 0.45844317E+03</pdfrwt>
<totfact> 0.56223140E+04</totfact>
</mgrwt>
</event>
<event>
 7    0  0.4775379E-002  0.4557238E+03  0.7546771E-02  0.1026029E+00
         21   -1    0    0  502  501  0.00000000000E+00  0.00000000000E+00  0.28971384279E+03  0.28971384279E+03  0.00000000000E+00 0.  1.
         21   -1    0    0  501  502 -0.00000000000E+00 -0.00000000000E+00 -0.17921493233E+03  0.17921493233E+03  0.00000000000E+00 0.  1.
      99926    2    1    2    0    0  0.00000000000E+00 -0.14210854715E-13  0.11049891046E+03  0.46892877512E+03  0.45572380552E+03 0.  0.
      99925    2    3    3    0    0  0.34562697015E+02  0.69234395626E+02  0.15538199750E+03  0.31514327136E+03  0.26302801138E+03 0.  0.
         25    1    4    4    0    0  0.51710272121E+02  0.58444293844E+02  0.81703387722E+02  0.16856049179E+03  0.12509000000E+03 0.  0.
         25    1    3    3    0    0 -0.34562697015E+02 -0.69234395626E+02 -0.44883087046E+02  0.15378550376E+03  0.12509000000E+03 0.  0.
         25    1    4    4    0    0 -0.17147575107E+02  0.10790101783E+02  0.73678609782E+02  0.14658277957E+03  0.12509000000E+03 0.  0.
<mgrwt>
<rscale>  2 0.45572381E+03</rscale>
<asrwt>0</asrwt>
<pdfrwt beam="1">  1       21 0.42604977E-01 0.45572381E+03</pdfrwt>
<pdfrwt beam="2">  1       21 0.26355137E-01 0.45572381E+03</pdfrwt>
<totfact> 0.67129301E+04</totfact>
</mgrwt>
</event>
<event>
 7    0  0.4775379E-002  0.4583059E+03  0.7546771E-02  0.1025274E+00
         21   -1    0    0  502  501  0.00000000000E+00  0.00000000000E+00  0.64998770898E+02  0.64998770898E+02  0.00000000000E+00 0.  1.
         21   -1    0    0  501  502 -0.00000000000E+00 -0.00000000000E+00 -0.80787794434E+03  0.80787794434E+03  0.00000000000E+00 0.  1.
      99926    2    1    2    0    0  0.00000000000E+00 -0.14210854715E-13 -0.74287917344E+03  0.87287671524E+03  0.45830589531E+03 0.  0.
      99925    2    3    3    0    0  0.18979124027E+02 -0.83591557146E+02 -0.31639588936E+03  0.42023639967E+03  0.26295345069E+03 0.  0.
         25    1    4    4    0    0 -0.76774101664E+01 -0.53725727804E+02 -0.21377421781E+03  0.25355930422E+03  0.12509000000E+03 0.  0.
         25    1    4    4    0    0  0.26656534194E+02 -0.29865829343E+02 -0.10262167155E+03  0.16667709546E+03  0.12509000000E+03 0.  0.
         25    1    3    3    0    0 -0.18979124027E+02  0.83591557146E+02 -0.42648328408E+03  0.45264031557E+03  0.12509000000E+03 0.  0.
<mgrwt>
<rscale>  2 0.45830590E+03</rscale>
<asrwt>0</asrwt>
<pdfrwt beam="1">  1       21 0.95586434E-02 0.45830590E+03</pdfrwt>
<pdfrwt beam="2">  1       21 0.11880557E+00 0.45830590E+03</pdfrwt>
<totfact> 0.43295159E+04</totfact>
</mgrwt>
</event>
<event>
 7    0  0.4775379E-002  0.4376562E+03  0.7546771E-02  0.1031468E+00
         21   -1    0    0  502  501  0.00000000000E+00  0.00000000000E+00  0.10177739535E+04  0.10177739535E+04  0.00000000000E+00 0.  1.
         21   -1    0    0  501  502 -0.00000000000E+00 -0.00000000000E+00 -0.47049485134E+02  0.47049485134E+02  0.00000000000E+00 0.  1.
      99926    2    1    2    0    0 -0.17763568394E-14  0.00000000000E+00  0.97072446841E+03  0.10648234387E+04  0.43765621438E+03 0.  0.
      99925    2    3    3    0    0  0.12281062649E+02  0.82031732696E+02  0.73844039765E+03  0.78826706595E+03  0.26304128327E+03 0.  0.
         25    1    3    3    0    0 -0.12281062649E+02 -0.82031732696E+02  0.23228407075E+03  0.27655637273E+03  0.12509000000E+03 0.  0.
         25    1    4    4    0    0 -0.23502647518E+02  0.53218910417E+02  0.44701800747E+03  0.46782179723E+03  0.12509000000E+03 0.  0.
         25    1    4    4    0    0  0.35783710167E+02  0.28812822279E+02  0.29142239018E+03  0.32044526871E+03  0.12509000000E+03 0.  0.
<mgrwt>
<rscale>  2 0.43765621E+03</rscale>
<asrwt>0</asrwt>
<pdfrwt beam="1">  1       21 0.14967263E+00 0.43765621E+03</pdfrwt>
<pdfrwt beam="2">  1       21 0.69190426E-02 0.43765621E+03</pdfrwt>
<totfact> 0.42162184E+04</totfact>
</mgrwt>
</event>
<event>
 7    0  0.4775379E-002  0.4615720E+03  0.7546771E-02  0.1024326E+00
         21   -1    0    0  502  501  0.00000000000E+00  0.00000000000E+00  0.36102245170E+03  0.36102245170E+03  0.00000000000E+00 0.  1.
         21   -1    0    0  501  502 -0.00000000000E+00 -0.00000000000E+00 -0.14753150045E+03  0.14753150045E+03  0.00000000000E+00 0.  1.
      99926    2    1    2    0    0  0.00000000000E+00  0.35527136788E-14  0.21349095125E+03  0.50855395216E+03  0.46157202687E+03 0.  0.
      99925    2    3    3    0    0  0.11710246957E+03  0.18514481847E+02  0.14654696637E+03  0.32366268782E+03  0.26310786328E+03 0.  0.
         25    1    4    4    0    0  0.52340768356E+02 -0.31261802581E+02  0.73124884054E+02  0.15719927831E+03  0.12509000000E+03 0.  0.
         25    1    3    3    0    0 -0.11710246957E+03 -0.18514481847E+02  0.66943984876E+02  0.18489126434E+03  0.12509000000E+03 0.  0.
         25    1    4    4    0    0  0.64761701210E+02  0.49776284428E+02  0.73422082321E+02  0.16646340952E+03  0.12509000000E+03 0.  0.
<mgrwt>
<rscale>  2 0.46157203E+03</rscale>
<asrwt>0</asrwt>
<pdfrwt beam="1">  1       21 0.53091537E-01 0.46157203E+03</pdfrwt>
<pdfrwt beam="2">  1       21 0.21695809E-01 0.46157203E+03</pdfrwt>
<totfact> 0.61407466E+04</totfact>
</mgrwt>
</event>
<event>
 7    0  0.4775379E-002  0.4445848E+03  0.7546771E-02  0.1029349E+00
         21   -1    0    0  502  501  0.00000000000E+00  0.00000000000E+00  0.54217953454E+03  0.54217953454E+03  0.00000000000E+00 0.  1.
         21   -1    0    0  501  502 -0.00000000000E+00 -0.00000000000E+00 -0.91139393211E+02  0.91139393211E+02  0.00000000000E+00 0.  1.
      99926    2    1    2    0    0  0.00000000000E+00  0.00000000000E+00  0.45104014133E+03  0.63331892775E+03  0.44458481211E+03 0.  0.
      99925    2    3    3    0    0 -0.58809126545E+02  0.72172325938E+02  0.34969734081E+03  0.44734788347E+03  0.26299152205E+03 0.  0.
         25    1    3    3    0    0  0.58809126545E+02 -0.72172325938E+02  0.10134280051E+03  0.18597104428E+03  0.12509000000E+03 0.  0.
         25    1    4    4    0    0 -0.40779981336E+00  0.36262812282E+02  0.21370640541E+03  0.25026604578E+03  0.12509000000E+03 0.  0.
         25    1    4    4    0    0 -0.58401326731E+02  0.35909513656E+02  0.13599093540E+03  0.19708183769E+03  0.12509000000E+03 0.  0.
<mgrwt>
<rscale>  2 0.44458481E+03</rscale>
<asrwt>0</asrwt>
<pdfrwt beam="1">  1       21 0.79732282E-01 0.44458481E+03</pdfrwt>
<pdfrwt beam="2">  1       21 0.13402852E-01 0.44458481E+03</pdfrwt>
<totfact> 0.61581033E+04</totfact>
</mgrwt>
</event>
<event>
 7    0  0.4775379E-002  0.4547993E+03  0.7546771E-02  0.1026300E+00
         21   -1    0    0  502  501  0.00000000000E+00  0.00000000000E+00  0.21416378573E+03  0.21416378573E+03  0.00000000000E+00 0.  1.
         21   -1    0    0  501  502 -0.00000000000E+00 -0.00000000000E+00 -0.24145354021E+03  0.24145354021E+03  0.00000000000E+00 0.  1.
      99926    2    1    2    0    0  0.00000000000E+00  0.00000000000E+00 -0.27289754480E+02  0.45561732594E+03  0.45479931508E+03 0.  0.
      99925    2    3    3    0    0 -0.60713298100E+02  0.88579095802E+02 -0.54888165150E+02  0.28846009112E+03  0.26203845656E+03 0.  0.
         25    1    3    3    0    0  0.60713298100E+02 -0.88579095802E+02  0.27598410669E+02  0.16715723481E+03  0.12509000000E+03 0.  0.
         25    1    4    4    0    0 -0.24616266344E+02  0.92254299978E+01 -0.45576044097E+02  0.13570465365E+03  0.12509000000E+03 0.  0.
         25    1    4    4    0    0 -0.36097031756E+02  0.79353665804E+02 -0.93121210533E+01  0.15275543747E+03  0.12509000000E+03 0.  0.
<mgrwt>
<rscale>  2 0.45479932E+03</rscale>
<asrwt>0</asrwt>
<pdfrwt beam="1">  1       21 0.31494675E-01 0.45479932E+03</pdfrwt>
<pdfrwt beam="2">  1       21 0.35507873E-01 0.45479932E+03</pdfrwt>
<totfact> 0.68610420E+04</totfact>
</mgrwt>
</event>
<event>
 7    0  0.4775379E-002  0.4558946E+03  0.7546771E-02  0.1025979E+00
         21   -1    0    0  502  501  0.00000000000E+00  0.00000000000E+00  0.25612607371E+03  0.25612607371E+03  0.00000000000E+00 0. -1.
         21   -1    0    0  501  502 -0.00000000000E+00 -0.00000000000E+00 -0.20286876433E+03  0.20286876433E+03  0.00000000000E+00 0. -1.
      99926    2    1    2    0    0 -0.11102230246E-14  0.00000000000E+00  0.53257309376E+02  0.45899483804E+03  0.45589463733E+03 0.  0.
      99925    2    3    3    0    0  0.18585692552E+01 -0.65132152116E+02  0.12760319051E+03  0.29955685743E+03  0.26307049452E+03 0.  0.
         25    1    4    4    0    0  0.29132731256E+02 -0.49801411086E+01  0.73803409499E+02  0.14821595457E+03  0.12509000000E+03 0.  0.
         25    1    3    3    0    0 -0.18585692552E+01  0.65132152116E+02 -0.74345881137E+02  0.15943798061E+03  0.12509000000E+03 0.  0.
         25    1    4    4    0    0 -0.27274162001E+02 -0.60152011007E+02  0.53799781014E+02  0.15134090286E+03  0.12509000000E+03 0.  0.
<mgrwt>
<rscale>  2 0.45589464E+03</rscale>
<asrwt>0</asrwt>
<pdfrwt beam="1">  1       21 0.37665599E-01 0.45589464E+03</pdfrwt>
<pdfrwt beam="2">  1       21 0.29833642E-01 0.45589464E+03</pdfrwt>
<totfact> 0.67769009E+04</totfact>
</mgrwt>
</event>
<event>
 7    0  0.4775379E-002  0.4718096E+03  0.7546771E-02  0.1021411E+00
         21   -1    0    0  502  501  0.00000000000E+00  0.00000000000E+00  0.42144262875E+03  0.42144262875E+03  0.00000000000E+00 0.  1.
         21   -1    0    0  501  502 -0.00000000000E+00 -0.00000000000E+00 -0.13204901274E+03  0.13204901274E+03  0.00000000000E+00 0.  1.
      99926    2    1    2    0    0  0.00000000000E+00  0.00000000000E+00  0.28939361601E+03  0.55349164149E+03  0.47180963556E+03 0.  0.
      99925    2    3    3    0    0 -0.31914716998E+02  0.11435672247E+03  0.23565468632E+03  0.37285003554E+03  0.26341603726E+03 0.  0.
         25    1    4    4    0    0 -0.12105874644E+02  0.99285323706E+02  0.11398239202E+03  0.19657980948E+03  0.12509000000E+03 0.  0.
         25    1    4    4    0    0 -0.19808842354E+02  0.15071398761E+02  0.12167229430E+03  0.17627022606E+03  0.12509000000E+03 0.  0.
         25    1    3    3    0    0  0.31914716998E+02 -0.11435672247E+03  0.53738929695E+02  0.18064160595E+03  0.12509000000E+03 0.  0.
<mgrwt>
<rscale>  2 0.47180964E+03</rscale>
<asrwt>0</asrwt>
<pdfrwt beam="1">  1       21 0.61976857E-01 0.47180964E+03</pdfrwt>
<pdfrwt beam="2">  1       21 0.19418973E-01 0.47180964E+03</pdfrwt>
<totfact> 0.54074560E+04</totfact>
</mgrwt>
</event>
<event>
 7    0  0.4775379E-002  0.4467024E+03  0.7546771E-02  0.1028710E+00
         21   -1    0    0  502  501  0.00000000000E+00  0.00000000000E+00  0.99669445464E+02  0.99669445464E+02  0.00000000000E+00 0.  1.
         21   -1    0    0  501  502 -0.00000000000E+00 -0.00000000000E+00 -0.50051195696E+03  0.50051195696E+03  0.00000000000E+00 0.  1.
      99926    2    1    2    0    0  0.00000000000E+00 -0.35527136788E-14 -0.40084251150E+03  0.60018140242E+03  0.44670235817E+03 0.  0.
      99925    2    3    3    0    0  0.53594252030E+02  0.21061352484E+02 -0.13552181797E+03  0.30125247620E+03  0.26281355911E+03 0.  0.
         25    1    4    4    0    0  0.60429059723E+02 -0.83558471358E+01 -0.56241556210E+02  0.15010700245E+03  0.12509000000E+03 0.  0.
         25    1    4    4    0    0 -0.68348076936E+01  0.29417199620E+02 -0.79280261759E+02  0.15114547375E+03  0.12509000000E+03 0.  0.
         25    1    3    3    0    0 -0.53594252030E+02 -0.21061352484E+02 -0.26532069353E+03  0.29892892622E+03  0.12509000000E+03 0.  0.
<mgrwt>
<rscale>  2 0.44670236E+03</rscale>
<asrwt>0</asrwt>
<pdfrwt beam="1">  1       21 0.14657272E-01 0.44670236E+03</pdfrwt>
<pdfrwt beam="2">  1       21 0.73604698E-01 0.44670236E+03</pdfrwt>
<totfact> 0.62676117E+04</totfact>
</mgrwt>
</event>
<event>
 7    0  0.4775379E-002  0.4530090E+03  0.7546771E-02  0.1026829E+00
         21   -1    0    0  502  501  0.00000000000E+00  0.00000000000E+00  0.13489434986E+03  0.13489434986E+03  0.00000000000E+00 0.  1.
         21   -1    0    0  501  502 -0.00000000000E+00 -0.00000000000E+00 -0.38032943128E+03  0.38032943128E+03  0.00000000000E+00 0.  1.
      99926    2    1    2    0    0  0.00000000000E+00  0.00000000000E+00 -0.24543508142E+03  0.51522378115E+03  0.45300901256E+03 0.  0.
      99925    2    3    3    0    0  0.91022706220E+02 -0.57964183630E+02 -0.18591156525E+03  0.33962327799E+03  0.26293702901E+03 0.  0.
         25    1    4    4    0    0  0.32476101878E+02 -0.60135222561E+02 -0.67640802436E+02  0.15777746493E+03  0.12509000000E+03 0.  0.
         25    1    4    4    0    0  0.58546604341E+02  0.21710389310E+01 -0.11827076282E+03  0.18184581306E+03  0.12509000000E+03 0.  0.
         25    1    3    3    0    0 -0.91022706220E+02  0.57964183630E+02 -0.59523516172E+02  0.17560050316E+03  0.12509000000E+03 0.  0.
<mgrwt>
<rscale>  2 0.45300901E+03</rscale>
<asrwt>0</asrwt>
<pdfrwt beam="1">  1       21 0.19837404E-01 0.45300901E+03</pdfrwt>
<pdfrwt beam="2">  1       21 0.55930799E-01 0.45300901E+03</pdfrwt>
<totfact> 0.65238402E+04</totfact>
</mgrwt>
</event>
<event>
 7    0  0.4775379E-002  0.4686270E+03  0.7546771E-02  0.1022308E+00
         21   -1    0    0  502  501  0.00000000000E+00  0.00000000000E+00  0.23479266000E+03  0.23479266000E+03  0.00000000000E+00 0. -1.
         21   -1    0    0  501  502 -0.00000000000E+00 -0.00000000000E+00 -0.23383535507E+03  0.23383535507E+03  0.00000000000E+00 0. -1.
      99926    2    1    2    0    0  0.00000000000E+00  0.00000000000E+00  0.95730493218E+00  0.46862801508E+03  0.46862703729E+03 0.  0.
      99925    2    3    3    0    0 -0.20403461255E+02 -0.10199327213E+03  0.70962336824E+02  0.29152030383E+03  0.26292490469E+03 0.  0.
         25    1    4    4    0    0  0.26763677379E+02 -0.38665258327E+02  0.20371936025E+02  0.13518069576E+03  0.12509000000E+03 0.  0.
         25    1    4    4    0    0 -0.47167138634E+02 -0.63328013807E+02  0.50590400799E+02  0.15633960807E+03  0.12509000000E+03 0.  0.
         25    1    3    3    0    0  0.20403461255E+02  0.10199327213E+03 -0.70005031891E+02  0.17710771124E+03  0.12509000000E+03 0.  0.
<mgrwt>
<rscale>  2 0.46862704E+03</rscale>
<asrwt>0</asrwt>
<pdfrwt beam="1">  1       21 0.34528332E-01 0.46862704E+03</pdfrwt>
<pdfrwt beam="2">  1       21 0.34387552E-01 0.46862704E+03</pdfrwt>
<totfact> 0.60686941E+04</totfact>
</mgrwt>
</event>
<event>
 7    0  0.4775379E-002  0.4438482E+03  0.7546771E-02  0.1029573E+00
         21   -1    0    0  502  501  0.00000000000E+00  0.00000000000E+00  0.23822501734E+03  0.23822501734E+03  0.00000000000E+00 0.  1.
         21   -1    0    0  501  502 -0.00000000000E+00 -0.00000000000E+00 -0.20673856637E+03  0.20673856637E+03  0.00000000000E+00 0.  1.
      99926    2    1    2    0    0 -0.26645352591E-14  0.00000000000E+00  0.31486450967E+02  0.44496358371E+03  0.44384816574E+03 0.  0.
      99925    2    3    3    0    0  0.76446175595E+01 -0.71365344172E+02 -0.53178719512E+02  0.27772976022E+03  0.26297222472E+03 0.  0.
         25    1    3    3    0    0 -0.76446175595E+01  0.71365344172E+02  0.84665170479E+02  0.16723382349E+03  0.12509000000E+03 0.  0.
         25    1    4    4    0    0  0.36912591207E+02 -0.55854082595E+02 -0.41385718813E+02  0.14779209638E+03  0.12509000000E+03 0.  0.
         25    1    4    4    0    0 -0.29267973648E+02 -0.15511261577E+02 -0.11793000699E+02  0.12993766383E+03  0.12509000000E+03 0.  0.
<mgrwt>
<rscale>  2 0.44384817E+03</rscale>
<asrwt>0</asrwt>
<pdfrwt beam="1">  1       21 0.35033091E-01 0.44384817E+03</pdfrwt>
<pdfrwt beam="2">  1       21 0.30402730E-01 0.44384817E+03</pdfrwt>
<totfact> 0.75811744E+04</totfact>
</mgrwt>
</event>
<event>
 7    0  0.4775379E-002  0.4538677E+03  0.7546771E-02  0.1026575E+00
         21   -1    0    0  502  501  0.00000000000E+00  0.00000000000E+00  0.73610073999E+02  0.73610073999E+02  0.00000000000E+00 0.  1.
         21   -1    0    0  501  502 -0.00000000000E+00 -0.00000000000E+00 -0.69961843957E+03  0.69961843957E+03  0.00000000000E+00 0.  1.
      99926    2    1    2    0    0  0.00000000000E+00  0.00000000000E+00 -0.62600836557E+03  0.77322851356E+03  0.45386766841E+03 0.  0.
      99925    2    3    3    0    0 -0.60566485593E+02 -0.53378582689E+02 -0.26264785768E+03  0.38055060604E+03  0.26328177747E+03 0.  0.
         25    1    4    4    0    0 -0.19725010038E+02 -0.56081588846E+02 -0.17156727616E+03  0.22049276400E+03  0.12509000000E+03 0.  0.
         25    1    3    3    0    0  0.60566485593E+02  0.53378582689E+02 -0.36336050788E+03  0.39267790752E+03  0.12509000000E+03 0.  0.
         25    1    4    4    0    0 -0.40841475555E+02  0.27030061571E+01 -0.91080581525E+02  0.16005784204E+03  0.12509000000E+03 0.  0.
<mgrwt>
<rscale>  2 0.45386767E+03</rscale>
<asrwt>0</asrwt>
<pdfrwt beam="1">  1       21 0.10825011E-01 0.45386767E+03</pdfrwt>
<pdfrwt beam="2">  1       21 0.10288506E+00 0.45386767E+03</pdfrwt>
<totfact> 0.49525722E+04</totfact>
</mgrwt>
</event>
<event>
 7    0  0.4775379E-002  0.4238693E+03  0.7546771E-02  0.1035814E+00
         21   -1    0    0  502  501  0.00000000000E+00  0.00000000000E+00  0.27320036507E+03  0.27320036507E+03  0.00000000000E+00 0.  1.
         21   -1    0    0  501  502 -0.00000000000E+00 -0.00000000000E+00 -0.16440790399E+03  0.16440790399E+03  0.00000000000E+00 0.  1.
      99926    2    1    2    0    0  0.00000000000E+00  0.00000000000E+00  0.10879246108E+03  0.43760826906E+03  0.42386931661E+03 0.  0.
      99925    2    3    3    0    0 -0.37151909673E+02 -0.69457782815E+02  0.53268304413E+02  0.27969978905E+03  0.26303956310E+03 0.  0.
         25    1    4    4    0    0  0.43364582992E+01 -0.35018031018E+02 -0.82565199462E+01  0.13023342731E+03  0.12509000000E+03 0.  0.
         25    1    3    3    0    0  0.37151909673E+02  0.69457782815E+02  0.55524156664E+02  0.15790848001E+03  0.12509000000E+03 0.  0.
         25    1    4    4    0    0 -0.41488367972E+02 -0.34439751796E+02  0.61524824359E+02  0.14946636174E+03  0.12509000000E+03 0.  0.
<mgrwt>
<rscale>  2 0.42386932E+03</rscale>
<asrwt>0</asrwt>
<pdfrwt beam="1">  1       21 0.40176524E-01 0.42386932E+03</pdfrwt>
<pdfrwt beam="2">  1       21 0.24177633E-01 0.42386932E+03</pdfrwt>
<totfact> 0.90226554E+04</totfact>
</mgrwt>
</event>
<event>
 7    0  0.4775379E-002  0.4553135E+03  0.7546771E-02  0.1026149E+00
         21   -1    0    0  502  501  0.00000000000E+00  0.00000000000E+00  0.39592890429E+03  0.39592890429E+03  0.00000000000E+00 0.  1.
         21   -1    0    0  501  502 -0.00000000000E+00 -0.00000000000E+00 -0.13090127175E+03  0.13090127175E+03  0.00000000000E+00 0.  1.
      99926    2    1    2    0    0  0.00000000000E+00 -0.35527136788E-14  0.26502763254E+03  0.52683017604E+03  0.45531350560E+03 0.  0.
      99925    2    3    3    0    0  0.10699756817E+03  0.29994779860E+02  0.19318275315E+03  0.34473854744E+03  0.26301506338E+03 0.  0.
         25    1    4    4    0    0  0.70626318514E+02 -0.20862334401E+02  0.10880505854E+03  0.18140937883E+03  0.12509000000E+03 0.  0.
         25    1    3    3    0    0 -0.10699756817E+03 -0.29994779860E+02  0.71844879386E+02  0.18209162860E+03  0.12509000000E+03 0.  0.
         25    1    4    4    0    0  0.36371249653E+02  0.50857114261E+02  0.84377694615E+02  0.16332916862E+03  0.12509000000E+03 0.  0.
<mgrwt>
<rscale>  2 0.45531351E+03</rscale>
<asrwt>0</asrwt>
<pdfrwt beam="1">  1       21 0.58224838E-01 0.45531351E+03</pdfrwt>
<pdfrwt beam="2">  1       21 0.19250187E-01 0.45531351E+03</pdfrwt>
<totfact> 0.63264259E+04</totfact>
</mgrwt>
</event>
<event>
 7    0  0.4775379E-002  0.4571040E+03  0.7546771E-02  0.1025624E+00
         21   -1    0    0  502  501  0.00000000000E+00  0.00000000000E+00  0.49002428145E+03  0.49002428145E+03  0.00000000000E+00 0.  1.
         21   -1    0    0  501  502 -0.00000000000E+00 -0.00000000000E+00 -0.10659884120E+03  0.10659884120E+03  0.00000000000E+00 0.  1.
      99926    2    1    2    0    0  0.00000000000E+00  0.00000000000E+00  0.38342544025E+03  0.59662312265E+03  0.45710401689E+03 0.  0.
      99925    2    3    3    0    0  0.71924815285E+02  0.80605726660E+02  0.18866916016E+03  0.34118628319E+03  0.26294783820E+03 0.  0.
         25    1    3    3    0    0 -0.71924815285E+02 -0.80605726660E+02  0.19475628008E+03  0.25543683947E+03  0.12509000000E+03 0.  0.
         25    1    4    4    0    0  0.54710816396E+02  0.42355608862E+01  0.95435277326E+02  0.16663317096E+03  0.12509000000E+03 0.  0.
         25    1    4    4    0    0  0.17213998890E+02  0.76370165774E+02  0.93233882836E+02  0.17455311222E+03  0.12509000000E+03 0.  0.
<mgrwt>
<rscale>  2 0.45710402E+03</rscale>
<asrwt>0</asrwt>
<pdfrwt beam="1">  1       21 0.72062393E-01 0.45710402E+03</pdfrwt>
<pdfrwt beam="2">  1       21 0.15676300E-01 0.45710402E+03</pdfrwt>
<totfact> 0.57917634E+04</totfact>
</mgrwt>
</event>
<event>
 7    0  0.4775379E-002  0.4512893E+03  0.7546771E-02  0.1027338E+00
         21   -1    0    0  502  501  0.00000000000E+00  0.00000000000E+00  0.11406896699E+03  0.11406896699E+03  0.00000000000E+00 0.  1.
         21   -1    0    0  501  502 -0.00000000000E+00 -0.00000000000E+00 -0.44635732234E+03  0.44635732234E+03  0.00000000000E+00 0.  1.
      99926    2    1    2    0    0 -0.35527136788E-14 -0.71054273576E-14 -0.33228835535E+03  0.56042628934E+03  0.45128934696E+03 0.  0.
      99925    2    3    3    0    0  0.15357304776E+02  0.39473611302E+02 -0.33539689931E+03  0.42832335998E+03  0.26301294234E+03 0.  0.
         25    1    4    4    0    0 -0.63069953324E+01 -0.12912824764E+02 -0.12777196295E+03  0.17938701695E+03  0.12509000000E+03 0.  0.
         25    1    4    4    0    0  0.21664300108E+02  0.52386436067E+02 -0.20762493636E+03  0.24893634303E+03  0.12509000000E+03 0.  0.
         25    1    3    3    0    0 -0.15357304776E+02 -0.39473611302E+02  0.31085439628E+01  0.13210292936E+03  0.12509000000E+03 0.  0.
<mgrwt>
<rscale>  2 0.45128935E+03</rscale>
<asrwt>0</asrwt>
<pdfrwt beam="1">  1       21 0.16774848E-01 0.45128935E+03</pdfrwt>
<pdfrwt beam="2">  1       21 0.65640783E-01 0.45128935E+03</pdfrwt>
<totfact> 0.63011899E+04</totfact>
</mgrwt>
</event>
<event>
 7    0  0.4775379E-002  0.4013470E+03  0.7546771E-02  0.1043314E+00
         21   -1    0    0  502  501  0.00000000000E+00  0.00000000000E+00  0.50558988637E+03  0.50558988637E+03  0.00000000000E+00 0.  1.
         21   -1    0    0  501  502 -0.00000000000E+00 -0.00000000000E+00 -0.79649264479E+02  0.79649264479E+02  0.00000000000E+00 0.  1.
      99926    2    1    2    0    0  0.00000000000E+00  0.00000000000E+00  0.42594062189E+03  0.58523915085E+03  0.40134704473E+03 0.  0.
      99925    2    3    3    0    0  0.41898296514E+02 -0.22549839296E+02  0.27593733737E+03  0.38421065543E+03  0.26308259366E+03 0.  0.
         25    1    4    4    0    0 -0.58594645620E+01 -0.10060615580E+02  0.89140152820E+02  0.15404228074E+03  0.12509000000E+03 0.  0.
         25    1    3    3    0    0 -0.41898296514E+02  0.22549839296E+02  0.15000328452E+03  0.20102849542E+03  0.12509000000E+03 0.  0.
         25    1    4    4    0    0  0.47757761076E+02 -0.12489223716E+02  0.18679718455E+03  0.23016837469E+03  0.12509000000E+03 0.  0.
<mgrwt>
<rscale>  2 0.40134704E+03</rscale>
<asrwt>0</asrwt>
<pdfrwt beam="1">  1       21 0.74351452E-01 0.40134704E+03</pdfrwt>
<pdfrwt beam="2">  1       21 0.11713127E-01 0.40134704E+03</pdfrwt>
<totfact> 0.93289914E+04</totfact>
</mgrwt>
</event>
<event>
 7    0  0.4775379E-002  0.4347714E+03  0.7546771E-02  0.1032363E+00
         21   -1    0    0  502  501  0.00000000000E+00  0.00000000000E+00  0.34517288017E+03  0.34517288017E+03  0.00000000000E+00 0.  1.
         21   -1    0    0  501  502 -0.00000000000E+00 -0.00000000000E+00 -0.13690687869E+03  0.13690687869E+03  0.00000000000E+00 0.  1.
      99926    2    1    2    0    0  0.00000000000E+00  0.00000000000E+00  0.20826600148E+03  0.48207975886E+03  0.43477139571E+03 0.  0.
      99925    2    3    3    0    0  0.81771910835E+02 -0.25289453237E+02  0.93631616246E+02  0.29204094118E+03  0.26304910172E+03 0.  0.
         25    1    4    4    0    0  0.57982616994E+02 -0.35973855414E+02  0.18174976086E+02  0.14364518788E+03  0.12509000000E+03 0.  0.
         25    1    4    4    0    0  0.23789293842E+02  0.10684402177E+02  0.75456640160E+02  0.14839575329E+03  0.12509000000E+03 0.  0.
         25    1    3    3    0    0 -0.81771910835E+02  0.25289453237E+02  0.11463438523E+03  0.19003881768E+03  0.12509000000E+03 0.  0.
<mgrwt>
<rscale>  2 0.43477140E+03</rscale>
<asrwt>0</asrwt>
<pdfrwt beam="1">  1       21 0.50760718E-01 0.43477140E+03</pdfrwt>
<pdfrwt beam="2">  1       21 0.20133365E-01 0.43477140E+03</pdfrwt>
<totfact> 0.78402809E+04</totfact>
</mgrwt>
</event>
<event>
 7    0  0.4775379E-002  0.4502817E+03  0.7546771E-02  0.1027638E+00
         21   -1    0    0  502  501  0.00000000000E+00  0.00000000000E+00  0.45844809427E+03  0.45844809427E+03  0.00000000000E+00 0.  1.
         21   -1    0    0  501  502 -0.00000000000E+00 -0.00000000000E+00 -0.11056517278E+03  0.11056517278E+03  0.00000000000E+00 0.  1.
      99926    2    1    2    0    0  0.00000000000E+00 -0.71054273576E-14  0.34788292149E+03  0.56901326705E+03  0.45028165742E+03 0.  0.
      99925    2    3    3    0    0 -0.80954701523E+02  0.36680785208E+02  0.29898650446E+03  0.40796199757E+03  0.26294660657E+03 0.  0.
         25    1    4    4    0    0 -0.48334581251E+02  0.38889985882E+02  0.20535057893E+03  0.24832444728E+03  0.12509000000E+03 0.  0.
         25    1    3    3    0    0  0.80954701523E+02 -0.36680785208E+02  0.48896417031E+02  0.16105126948E+03  0.12509000000E+03 0.  0.
         25    1    4    4    0    0 -0.32620120272E+02 -0.22092006746E+01  0.93635925526E+02  0.15963755029E+03  0.12509000000E+03 0.  0.
<mgrwt>
<rscale>  2 0.45028166E+03</rscale>
<asrwt>0</asrwt>
<pdfrwt beam="1">  1       21 0.67418836E-01 0.45028166E+03</pdfrwt>
<pdfrwt beam="2">  1       21 0.16259584E-01 0.45028166E+03</pdfrwt>
<totfact> 0.62943196E+04</totfact>
</mgrwt>
</event>
<event>
 7    0  0.4775379E-002  0.4564511E+03  0.7546771E-02  0.1025816E+00
         21   -1    0    0  502  501  0.00000000000E+00  0.00000000000E+00  0.55350158536E+02  0.55350158536E+02  0.00000000000E+00 0. -1.
         21   -1    0    0  501  502 -0.00000000000E+00 -0.00000000000E+00 -0.94104326587E+03  0.94104326587E+03  0.00000000000E+00 0. -1.
      99926    2    1    2    0    0 -0.71054273576E-14  0.00000000000E+00 -0.88569310734E+03  0.99639342441E+03  0.45645106618E+03 0.  0.
      99925    2    3    3    0    0  0.61356941085E+02  0.91781287693E+02 -0.62411736748E+03  0.68613892440E+03  0.26282248040E+03 0.  0.
         25    1    4    4    0    0 -0.92583779144E+01  0.32178041639E+02 -0.27689501451E+03  0.30567875471E+03  0.12509000000E+03 0.  0.
         25    1    3    3    0    0 -0.61356941085E+02 -0.91781287693E+02 -0.26157573986E+03  0.31025450001E+03  0.12509000000E+03 0.  0.
         25    1    4    4    0    0  0.70615318999E+02  0.59603246054E+02 -0.34722235297E+03  0.38046016969E+03  0.12509000000E+03 0.  0.
<mgrwt>
<rscale>  2 0.45645107E+03</rscale>
<asrwt>0</asrwt>
<pdfrwt beam="1">  1       21 0.81397300E-02 0.45645107E+03</pdfrwt>
<pdfrwt beam="2">  1       21 0.13838870E+00 0.45645107E+03</pdfrwt>
<totfact> 0.38865033E+04</totfact>
</mgrwt>
</event>
<event>
 7    0  0.4775379E-002  0.4157765E+03  0.7546771E-02  0.1038450E+00
         21   -1    0    0  502  501  0.00000000000E+00  0.00000000000E+00  0.22594890158E+03  0.22594890158E+03  0.00000000000E+00 0. -1.
         21   -1    0    0  501  502 -0.00000000000E+00 -0.00000000000E+00 -0.19127118906E+03  0.19127118906E+03  0.00000000000E+00 0. -1.
      99926    2    1    2    0    0 -0.71054273576E-14  0.00000000000E+00  0.34677712527E+02  0.41722009064E+03  0.41577645470E+03 0.  0.
      99925    2    3    3    0    0  0.37159143634E+02 -0.35746756138E+02 -0.24974643581E+02  0.26935344728E+03  0.26318988242E+03 0.  0.
         25    1    4    4    0    0  0.58860526818E+02 -0.25772941597E+02 -0.77179496790E+01  0.14083991261E+03  0.12509000000E+03 0.  0.
         25    1    4    4    0    0 -0.21701383183E+02 -0.99738145405E+01 -0.17256693902E+02  0.12851353467E+03  0.12509000000E+03 0.  0.
         25    1    3    3    0    0 -0.37159143634E+02  0.35746756138E+02  0.59652356109E+02  0.14786664336E+03  0.12509000000E+03 0.  0.
<mgrwt>
<rscale>  2 0.41577645E+03</rscale>
<asrwt>0</asrwt>
<pdfrwt beam="1">  1       21 0.33227780E-01 0.41577645E+03</pdfrwt>
<pdfrwt beam="2">  1       21 0.28128116E-01 0.41577645E+03</pdfrwt>
<totfact> 0.98927105E+04</totfact>
</mgrwt>
</event>
<event>
 7    0  0.4775379E-002  0.4608633E+03  0.7546771E-02  0.1024531E+00
         21   -1    0    0  502  501  0.00000000000E+00  0.00000000000E+00  0.34059185272E+02  0.34059185272E+02  0.00000000000E+00 0. -1.
         21   -1    0    0  501  502 -0.00000000000E+00 -0.00000000000E+00 -0.15590136255E+04  0.15590136255E+04  0.00000000000E+00 0. -1.
      99926    2    1    2    0    0 -0.35527136788E-14  0.00000000000E+00 -0.15249544403E+04  0.15930728108E+04  0.46086325049E+03 0.  0.
      99925    2    3    3    0    0 -0.23203078982E+02  0.10150870364E+03 -0.11504665644E+04  0.11847456416E+04  0.26307132087E+03 0.  0.
         25    1    3    3    0    0  0.23203078982E+02 -0.10150870364E+03 -0.37448787589E+03  0.40832716917E+03  0.12509000000E+03 0.  0.
         25    1    4    4    0    0  0.31694469019E+00  0.10306803774E+02 -0.46715418873E+03  0.48372189820E+03  0.12509000000E+03 0.  0.
         25    1    4    4    0    0 -0.23520023672E+02  0.91201899866E+02 -0.68331237564E+03  0.70102374343E+03  0.12509000000E+03 0.  0.
<mgrwt>
<rscale>  2 0.46086325E+03</rscale>
<asrwt>0</asrwt>
<pdfrwt beam="1">  1       21 0.50087040E-02 0.46086325E+03</pdfrwt>
<pdfrwt beam="2">  1       21 0.22926670E+00 0.46086325E+03</pdfrwt>
<totfact> 0.20631363E+04</totfact>
</mgrwt>
</event>
<event>
 7    0  0.4775379E-002  0.4550023E+03  0.7546771E-02  0.1026241E+00
         21   -1    0    0  502  501  0.00000000000E+00  0.00000000000E+00  0.18918105283E+04  0.18918105283E+04  0.00000000000E+00 0. -1.
         21   -1    0    0  501  502 -0.00000000000E+00 -0.00000000000E+00 -0.27358326673E+02  0.27358326673E+02  0.00000000000E+00 0. -1.
      99926    2    1    2    0    0  0.00000000000E+00 -0.14210854715E-13  0.18644522016E+04  0.19191688550E+04  0.45500228762E+03 0.  0.
      99925    2    3    3    0    0  0.23631225022E+02  0.92202311561E+02  0.14316689430E+04  0.14587249842E+04  0.26295040639E+03 0.  0.
         25    1    3    3    0    0 -0.23631225022E+02 -0.92202311561E+02  0.43278325862E+03  0.46044387073E+03  0.12509000000E+03 0.  0.
         25    1    4    4    0    0 -0.20441671797E+02  0.43498103206E+02  0.82565780587E+03  0.83646175491E+03  0.12509000000E+03 0.  0.
         25    1    4    4    0    0  0.44072896819E+02  0.48704208355E+02  0.60601113712E+03  0.62226322932E+03  0.12509000000E+03 0.  0.
<mgrwt>
<rscale>  2 0.45500229E+03</rscale>
<asrwt>0</asrwt>
<pdfrwt beam="1">  1       21 0.27820734E+00 0.45500229E+03</pdfrwt>
<pdfrwt beam="2">  1       21 0.40232846E-02 0.45500229E+03</pdfrwt>
<totfact> 0.15074401E+04</totfact>
</mgrwt>
</event>
<event>
 7    0  0.4775379E-002  0.4504148E+03  0.7546771E-02  0.1027598E+00
         21   -1    0    0  502  501  0.00000000000E+00  0.00000000000E+00  0.43813804482E+02  0.43813804482E+02  0.00000000000E+00 0. -1.
         21   -1    0    0  501  502 -0.00000000000E+00 -0.00000000000E+00 -0.11575890892E+04  0.11575890892E+04  0.00000000000E+00 0. -1.
      99926    2    1    2    0    0  0.00000000000E+00 -0.14210854715E-13 -0.11137752847E+04  0.12014028937E+04  0.45041484001E+03 0.  0.
      99925    2    3    3    0    0  0.15152385511E+02 -0.88975694910E+02 -0.54226468874E+03  0.60944162934E+03  0.26310043299E+03 0.  0.
         25    1    4    4    0    0  0.25383672323E+02 -0.24731704559E+02 -0.32926423055E+03  0.35400343169E+03  0.12509000000E+03 0.  0.
         25    1    3    3    0    0 -0.15152385511E+02  0.88975694910E+02 -0.57151059598E+03  0.59196126435E+03  0.12509000000E+03 0.  0.
         25    1    4    4    0    0 -0.10231286811E+02 -0.64243990351E+02 -0.21300045820E+03  0.25543819765E+03  0.12509000000E+03 0.  0.
<mgrwt>
<rscale>  2 0.45041484E+03</rscale>
<asrwt>0</asrwt>
<pdfrwt beam="1">  1       21 0.64432059E-02 0.45041484E+03</pdfrwt>
<pdfrwt beam="2">  1       21 0.17023371E+00 0.45041484E+03</pdfrwt>
<totfact> 0.33284554E+04</totfact>
</mgrwt>
</event>
<event>
 7    0  0.4775379E-002  0.4219040E+03  0.7546771E-02  0.1036448E+00
         21   -1    0    0  502  501  0.00000000000E+00  0.00000000000E+00  0.40949226699E+02  0.40949226699E+02  0.00000000000E+00 0. -1.
         21   -1    0    0  501  502 -0.00000000000E+00 -0.00000000000E+00 -0.10867296163E+04  0.10867296163E+04  0.00000000000E+00 0. -1.
      99926    2    1    2    0    0 -0.35527136788E-14  0.35527136788E-14 -0.10457803896E+04  0.11276788430E+04  0.42190395788E+03 0.  0.
      99925    2    3    3    0    0  0.30707600407E+02 -0.19872549772E+02 -0.86474390187E+03  0.90461025949E+03  0.26305860716E+03 0.  0.
         25    1    4    4    0    0 -0.19245632762E+02 -0.27557045817E+02 -0.46563643633E+03  0.48331623612E+03  0.12509000000E+03 0.  0.
         25    1    4    4    0    0  0.49953233169E+02  0.76844960446E+01 -0.39910746553E+03  0.42129402337E+03  0.12509000000E+03 0.  0.
         25    1    3    3    0    0 -0.30707600407E+02  0.19872549772E+02 -0.18103648773E+03  0.22306858350E+03  0.12509000000E+03 0.  0.
<mgrwt>
<rscale>  2 0.42190396E+03</rscale>
<asrwt>0</asrwt>
<pdfrwt beam="1">  1       21 0.60219451E-02 0.42190396E+03</pdfrwt>
<pdfrwt beam="2">  1       21 0.15981318E+00 0.42190396E+03</pdfrwt>
<totfact> 0.45094640E+04</totfact>
</mgrwt>
</event>
<event>
 7    0  0.4775379E-002  0.4528199E+03  0.7546771E-02  0.1026884E+00
         21   -1    0    0  502  501  0.00000000000E+00  0.00000000000E+00  0.46971750084E+02  0.46971750084E+02  0.00000000000E+00 0. -1.
         21   -1    0    0  501  502 -0.00000000000E+00 -0.00000000000E+00 -0.10913255893E+04  0.10913255893E+04  0.00000000000E+00 0. -1.
      99926    2    1    2    0    0 -0.35527136788E-14  0.14210854715E-13 -0.10443538392E+04  0.11382973394E+04  0.45281993261E+03 0.  0.
      99925    2    3    3    0    0  0.26564237249E+02  0.92733900110E+02 -0.51719383904E+03  0.58797887812E+03  0.26253468159E+03 0.  0.
         25    1    4    4    0    0  0.34288508140E+02  0.32217981881E+02 -0.18883715944E+03  0.23134537176E+03  0.12509000000E+03 0.  0.
         25    1    3    3    0    0 -0.26564237249E+02 -0.92733900110E+02 -0.52716000019E+03  0.55031846129E+03  0.12509000000E+03 0.  0.
         25    1    4    4    0    0 -0.77242708904E+01  0.60515918228E+02 -0.32835667960E+03  0.35663350636E+03  0.12509000000E+03 0.  0.
<mgrwt>
<rscale>  2 0.45281993E+03</rscale>
<asrwt>0</asrwt>
<pdfrwt beam="1">  1       21 0.69076110E-02 0.45281993E+03</pdfrwt>
<pdfrwt beam="2">  1       21 0.16048904E+00 0.45281993E+03</pdfrwt>
<totfact> 0.34762474E+04</totfact>
</mgrwt>
</event>
<event>
 7    0  0.4775379E-002  0.4527957E+03  0.7546771E-02  0.1026892E+00
         21   -1    0    0  502  501  0.00000000000E+00  0.00000000000E+00  0.16323688101E+04  0.16323688101E+04  0.00000000000E+00 0. -1.
         21   -1    0    0  501  502 -0.00000000000E+00 -0.00000000000E+00 -0.31399754601E+02  0.31399754601E+02  0.00000000000E+00 0. -1.
      99926    2    1    2    0    0  0.00000000000E+00  0.00000000000E+00  0.16009690555E+04  0.16637685647E+04  0.45279567160E+03 0.  0.
      99925    2    3    3    0    0 -0.94370887884E+02 -0.58650369287E+02  0.10184012833E+04  0.10576510451E+04  0.26294263446E+03 0.  0.
         25    1    4    4    0    0 -0.28821332661E+02 -0.31524136710E+02  0.35419718701E+03  0.37805766200E+03  0.12509000000E+03 0.  0.
         25    1    3    3    0    0  0.94370887884E+02  0.58650369287E+02  0.58256777221E+03  0.60611751965E+03  0.12509000000E+03 0.  0.
         25    1    4    4    0    0 -0.65549555223E+02 -0.27126232577E+02  0.66420409629E+03  0.67959338307E+03  0.12509000000E+03 0.  0.
<mgrwt>
<rscale>  2 0.45279567E+03</rscale>
<asrwt>0</asrwt>
<pdfrwt beam="1">  1       21 0.24005418E+00 0.45279567E+03</pdfrwt>
<pdfrwt beam="2">  1       21 0.46176121E-02 0.45279567E+03</pdfrwt>
<totfact> 0.20372875E+04</totfact>
</mgrwt>
</event>
<event>
 7    0  0.4775379E-002  0.3922724E+03  0.7546771E-02  0.1046489E+00
         21   -1    0    0  502  501  0.00000000000E+00  0.00000000000E+00  0.47211915271E+03  0.47211915271E+03  0.00000000000E+00 0.  1.
         21   -1    0    0  501  502 -0.00000000000E+00 -0.00000000000E+00 -0.81482398273E+02  0.81482398273E+02  0.00000000000E+00 0.  1.
      99926    2    1    2    0    0  0.00000000000E+00  0.17763568394E-14  0.39063675444E+03  0.55360155098E+03  0.39227235861E+03 0.  0.
      99925    2    3    3    0    0 -0.43969969037E+01 -0.12203167341E+02  0.29617283238E+03  0.39631457903E+03  0.26301834164E+03 0.  0.
         25    1    3    3    0    0  0.43969969037E+01  0.12203167341E+02  0.94463922057E+02  0.15728697195E+03  0.12509000000E+03 0.  0.
         25    1    4    4    0    0 -0.40707299007E+01  0.33571722962E+02  0.15890731343E+03  0.20504310226E+03  0.12509000000E+03 0.  0.
         25    1    4    4    0    0 -0.32626700309E+00 -0.45774890303E+02  0.13726551895E+03  0.19127147677E+03  0.12509000000E+03 0.  0.
<mgrwt>
<rscale>  2 0.39227236E+03</rscale>
<asrwt>0</asrwt>
<pdfrwt beam="1">  1       21 0.69429286E-01 0.39227236E+03</pdfrwt>
<pdfrwt beam="2">  1       21 0.11982706E-01 0.39227236E+03</pdfrwt>
<totfact> 0.10467748E+05</totfact>
</mgrwt>
</event>
<event>
 7    0  0.4775379E-002  0.4564168E+03  0.7546771E-02  0.1025826E+00
         21   -1    0    0  502  501  0.00000000000E+00  0.00000000000E+00  0.91607890366E+03  0.91607890366E+03  0.00000000000E+00 0. -1.
         21   -1    0    0  501  502 -0.00000000000E+00 -0.00000000000E+00 -0.56849983938E+02  0.56849983938E+02  0.00000000000E+00 0. -1.
      99926    2    1    2    0    0 -0.71054273576E-14  0.00000000000E+00  0.85922891972E+03  0.97292888760E+03  0.45641678742E+03 0.  0.
      99925    2    3    3    0    0  0.49646215380E+02  0.37369658948E+02  0.74502453521E+03  0.79250885641E+03  0.26295910579E+03 0.  0.
         25    1    4    4    0    0  0.52121575594E+00  0.37069442960E+02  0.44561077700E+03  0.46431765844E+03  0.12509000000E+03 0.  0.
         25    1    4    4    0    0  0.49124999624E+02  0.30021598753E+00  0.29941375821E+03  0.32819119797E+03  0.12509000000E+03 0.  0.
         25    1    3    3    0    0 -0.49646215380E+02 -0.37369658948E+02  0.11420438452E+03  0.18042003119E+03  0.12509000000E+03 0.  0.
<mgrwt>
<rscale>  2 0.45641679E+03</rscale>
<asrwt>0</asrwt>
<pdfrwt beam="1">  1       21 0.13471748E+00 0.45641679E+03</pdfrwt>
<pdfrwt beam="2">  1       21 0.83602924E-02 0.45641679E+03</pdfrwt>
<totfact> 0.39783550E+04</totfact>
</mgrwt>
</event>
<event>
 7    0  0.4775379E-002  0.4582677E+03  0.7546771E-02  0.1025285E+00
         21   -1    0    0  502  501  0.00000000000E+00  0.00000000000E+00  0.64453093802E+03  0.64453093802E+03  0.00000000000E+00 0. -1.
         21   -1    0    0  501  502 -0.00000000000E+00 -0.00000000000E+00 -0.81458171059E+02  0.81458171059E+02  0.00000000000E+00 0. -1.
      99926    2    1    2    0    0 -0.71054273576E-14  0.00000000000E+00  0.56307276697E+03  0.72598910908E+03  0.45826765717E+03 0.  0.
      99925    2    3    3    0    0 -0.36777345059E+02  0.77873387585E+02  0.47673269396E+03  0.55129236066E+03  0.26312044357E+03 0.  0.
         25    1    4    4    0    0  0.10051287284E+02  0.45140474422E+02  0.29179619945E+03  0.32082895898E+03  0.12509000000E+03 0.  0.
         25    1    4    4    0    0 -0.46828632343E+02  0.32732913163E+02  0.18493649451E+03  0.23046340168E+03  0.12509000000E+03 0.  0.
         25    1    3    3    0    0  0.36777345059E+02 -0.77873387585E+02  0.86340073002E+02  0.17469674842E+03  0.12509000000E+03 0.  0.
<mgrwt>
<rscale>  2 0.45826766E+03</rscale>
<asrwt>0</asrwt>
<pdfrwt beam="1">  1       21 0.94783959E-01 0.45826766E+03</pdfrwt>
<pdfrwt beam="2">  1       21 0.11979143E-01 0.45826766E+03</pdfrwt>
<totfact> 0.50211728E+04</totfact>
</mgrwt>
</event>
<event>
 7    0  0.4775379E-002  0.4462364E+03  0.7546771E-02  0.1028850E+00
         21   -1    0    0  502  501  0.00000000000E+00  0.00000000000E+00  0.32404668102E+03  0.32404668102E+03  0.00000000000E+00 0. -1.
         21   -1    0    0  501  502 -0.00000000000E+00 -0.00000000000E+00 -0.15362516364E+03  0.15362516364E+03  0.00000000000E+00 0. -1.
      99926    2    1    2    0    0 -0.35527136788E-14 -0.14210854715E-13  0.17042151738E+03  0.47767184465E+03  0.44623636964E+03 0.  0.
      99925    2    3    3    0    0 -0.31490579754E+02 -0.88742536331E+02  0.59273309682E+02  0.28566057795E+03  0.26310025881E+03 0.  0.
         25    1    4    4    0    0  0.11187309674E+02 -0.55197661803E+02  0.52957786429E+00  0.13718500763E+03  0.12509000000E+03 0.  0.
         25    1    3    3    0    0  0.31490579754E+02  0.88742536331E+02  0.11114820770E+03  0.19201126670E+03  0.12509000000E+03 0.  0.
         25    1    4    4    0    0 -0.42677889428E+02 -0.33544874528E+02  0.58743731817E+02  0.14847557032E+03  0.12509000000E+03 0.  0.
<mgrwt>
<rscale>  2 0.44623637E+03</rscale>
<asrwt>0</asrwt>
<pdfrwt beam="1">  1       21 0.47653924E-01 0.44623637E+03</pdfrwt>
<pdfrwt beam="2">  1       21 0.22591936E-01 0.44623637E+03</pdfrwt>
<totfact> 0.71731628E+04</totfact>
</mgrwt>
</event>
<event>
 7    0  0.4775379E-002  0.4505812E+03  0.7546771E-02  0.1027549E+00
         21   -1    0    0  502  501  0.00000000000E+00  0.00000000000E+00  0.76929663457E+02  0.76929663457E+02  0.00000000000E+00 0.  1.
         21   -1    0    0  501  502 -0.00000000000E+00 -0.00000000000E+00 -0.65976964419E+03  0.65976964419E+03  0.00000000000E+00 0.  1.
      99926    2    1    2    0    0 -0.14210854715E-13  0.00000000000E+00 -0.58283998074E+03  0.73669930765E+03  0.45058120994E+03 0.  0.
      99925    2    3    3    0    0  0.88681271268E+02 -0.47234364556E+01 -0.26551117228E+03  0.38423404765E+03  0.26315953725E+03 0.  0.
         25    1    3    3    0    0 -0.88681271268E+02  0.47234364556E+01 -0.31732880846E+03  0.35246526000E+03  0.12509000000E+03 0.  0.
         25    1    4    4    0    0  0.76301373209E+02 -0.15604215374E+01 -0.10467560600E+03  0.18008005181E+03  0.12509000000E+03 0.  0.
         25    1    4    4    0    0  0.12379898059E+02 -0.31630149182E+01 -0.16083556628E+03  0.20415399584E+03  0.12509000000E+03 0.  0.
<mgrwt>
<rscale>  2 0.45058121E+03</rscale>
<asrwt>0</asrwt>
<pdfrwt beam="1">  1       21 0.11313187E-01 0.45058121E+03</pdfrwt>
<pdfrwt beam="2">  1       21 0.97024939E-01 0.45058121E+03</pdfrwt>
<totfact> 0.52764662E+04</totfact>
</mgrwt>
</event>
<event>
 7    0  0.4775379E-002  0.4687505E+03  0.7546771E-02  0.1022273E+00
         21   -1    0    0  502  501  0.00000000000E+00  0.00000000000E+00  0.14599398642E+03  0.14599398642E+03  0.00000000000E+00 0.  1.
         21   -1    0    0  501  502 -0.00000000000E+00 -0.00000000000E+00 -0.37626046294E+03  0.37626046294E+03  0.00000000000E+00 0.  1.
      99926    2    1    2    0    0  0.00000000000E+00  0.00000000000E+00 -0.23026647651E+03  0.52225444936E+03  0.46875053031E+03 0.  0.
      99925    2    3    3    0    0  0.66762724358E+02 -0.98185069989E+02 -0.97211122157E+02  0.30442698379E+03  0.26292245408E+03 0.  0.
         25    1    4    4    0    0  0.91040006683E+01 -0.80271232713E+02 -0.39842947163E+02  0.15414707966E+03  0.12509000000E+03 0.  0.
         25    1    4    4    0    0  0.57658723690E+02 -0.17913837276E+02 -0.57368174995E+02  0.15027990413E+03  0.12509000000E+03 0.  0.
         25    1    3    3    0    0 -0.66762724358E+02  0.98185069989E+02 -0.13305535436E+03  0.21782746557E+03  0.12509000000E+03 0.  0.
<mgrwt>
<rscale>  2 0.46875053E+03</rscale>
<asrwt>0</asrwt>
<pdfrwt beam="1">  1       21 0.21469705E-01 0.46875053E+03</pdfrwt>
<pdfrwt beam="2">  1       21 0.55332419E-01 0.46875053E+03</pdfrwt>
<totfact> 0.57229752E+04</totfact>
</mgrwt>
</event>
<event>
 7    0  0.4775379E-002  0.4437855E+03  0.7546771E-02  0.1029592E+00
         21   -1    0    0  502  501  0.00000000000E+00  0.00000000000E+00  0.74892567377E+03  0.74892567377E+03  0.00000000000E+00 0. -1.
         21   -1    0    0  501  502 -0.00000000000E+00 -0.00000000000E+00 -0.65742695957E+02  0.65742695957E+02  0.00000000000E+00 0. -1.
      99926    2    1    2    0    0 -0.31086244690E-14  0.00000000000E+00  0.68318297781E+03  0.81466836973E+03  0.44378550163E+03 0.  0.
      99925    2    3    3    0    0 -0.12498397920E+01 -0.10198340511E+03  0.41981098105E+03  0.50577600369E+03  0.26299416168E+03 0.  0.
         25    1    3    3    0    0  0.12498397920E+01  0.10198340511E+03  0.26337199676E+03  0.30889236604E+03  0.12509000000E+03 0.  0.
         25    1    4    4    0    0  0.24341125446E+02 -0.35598084409E+02  0.15024094053E+03  0.20019880697E+03  0.12509000000E+03 0.  0.
         25    1    4    4    0    0 -0.25590965238E+02 -0.66385320706E+02  0.26957004052E+03  0.30557719672E+03  0.12509000000E+03 0.  0.
<mgrwt>
<rscale>  2 0.44378550E+03</rscale>
<asrwt>0</asrwt>
<pdfrwt beam="1">  1       21 0.11013612E+00 0.44378550E+03</pdfrwt>
<pdfrwt beam="2">  1       21 0.96680439E-02 0.44378550E+03</pdfrwt>
<totfact> 0.51443295E+04</totfact>
</mgrwt>
</event>
<event>
 7    0  0.4775379E-002  0.4577632E+03  0.7546771E-02  0.1025432E+00
         21   -1    0    0  502  501  0.00000000000E+00  0.00000000000E+00  0.37438962627E+02  0.37438962627E+02  0.00000000000E+00 0. -1.
         21   -1    0    0  501  502 -0.00000000000E+00 -0.00000000000E+00 -0.13992586968E+04  0.13992586968E+04  0.00000000000E+00 0. -1.
      99926    2    1    2    0    0  0.71054273576E-14  0.71054273576E-14 -0.13618197342E+04  0.14366976594E+04  0.45776323161E+03 0.  0.
      99925    2    3    3    0    0  0.51570802890E+02  0.39226517613E+02 -0.55399707544E+03  0.61668349890E+03  0.26303518934E+03 0.  0.
         25    1    4    4    0    0  0.14238756683E+01  0.48610144357E+02 -0.30950024371E+03  0.33734682822E+03  0.12509000000E+03 0.  0.
         25    1    4    4    0    0  0.50146927222E+02 -0.93836267440E+01 -0.24449683173E+03  0.27933667068E+03  0.12509000000E+03 0.  0.
         25    1    3    3    0    0 -0.51570802890E+02 -0.39226517613E+02 -0.80782265872E+03  0.82001416051E+03  0.12509000000E+03 0.  0.
<mgrwt>
<rscale>  2 0.45776323E+03</rscale>
<asrwt>0</asrwt>
<pdfrwt beam="1">  1       21 0.55057290E-02 0.45776323E+03</pdfrwt>
<pdfrwt beam="2">  1       21 0.20577337E+00 0.45776323E+03</pdfrwt>
<totfact> 0.24832830E+04</totfact>
</mgrwt>
</event>
<event>
 7    0  0.4775379E-002  0.4683290E+03  0.7546771E-02  0.1022393E+00
         21   -1    0    0  502  501  0.00000000000E+00  0.00000000000E+00  0.21538311663E+03  0.21538311663E+03  0.00000000000E+00 0.  1.
         21   -1    0    0  501  502 -0.00000000000E+00 -0.00000000000E+00 -0.25458359445E+03  0.25458359445E+03  0.00000000000E+00 0.  1.
      99926    2    1    2    0    0  0.14210854715E-13  0.88817841970E-15 -0.39200477819E+02  0.46996671109E+03  0.46832897847E+03 0.  0.
      99925    2    3    3    0    0 -0.11659794678E+03  0.75571653210E+01 -0.69482669902E+02  0.29613716470E+03  0.26309159423E+03 0.  0.
         25    1    3    3    0    0  0.11659794678E+03 -0.75571653210E+01  0.30282192083E+02  0.17382954639E+03  0.12509000000E+03 0.  0.
         25    1    4    4    0    0 -0.97416486566E+02 -0.14330019537E+02 -0.32375131506E+02  0.16245300414E+03  0.12509000000E+03 0.  0.
         25    1    4    4    0    0 -0.19181460218E+02  0.21887184858E+02 -0.37107538396E+02  0.13368416055E+03  0.12509000000E+03 0.  0.
<mgrwt>
<rscale>  2 0.46832898E+03</rscale>
<asrwt>0</asrwt>
<pdfrwt beam="1">  1       21 0.31673988E-01 0.46832898E+03</pdfrwt>
<pdfrwt beam="2">  1       21 0.37438764E-01 0.46832898E+03</pdfrwt>
<totfact> 0.60741636E+04</totfact>
</mgrwt>
</event>
<event>
 7    0  0.4775379E-002  0.4433198E+03  0.7546771E-02  0.1029733E+00
         21   -1    0    0  502  501  0.00000000000E+00  0.00000000000E+00  0.11728411194E+04  0.11728411194E+04  0.00000000000E+00 0.  1.
         21   -1    0    0  501  502 -0.00000000000E+00 -0.00000000000E+00 -0.41892393593E+02  0.41892393593E+02  0.00000000000E+00 0.  1.
      99926    2    1    2    0    0  0.14210854715E-13  0.17763568394E-14  0.11309487258E+04  0.12147335130E+04  0.44331984750E+03 0.  0.
      99925    2    3    3    0    0 -0.89530087928E+02  0.14085424566E+02  0.84668999997E+03  0.89121447624E+03  0.26299287210E+03 0.  0.
         25    1    3    3    0    0  0.89530087928E+02 -0.14085424566E+02  0.28425872584E+03  0.32351903676E+03  0.12509000000E+03 0.  0.
         25    1    4    4    0    0 -0.31832284130E+01  0.11753241491E+02  0.35743585094E+03  0.37888806693E+03  0.12509000000E+03 0.  0.
         25    1    4    4    0    0 -0.86346859515E+02  0.23321830749E+01  0.48925414903E+03  0.51232640930E+03  0.12509000000E+03 0.  0.
<mgrwt>
<rscale>  2 0.44331985E+03</rscale>
<asrwt>0</asrwt>
<pdfrwt beam="1">  1       21 0.17247661E+00 0.44331985E+03</pdfrwt>
<pdfrwt beam="2">  1       21 0.61606469E-02 0.44331985E+03</pdfrwt>
<totfact> 0.34747549E+04</totfact>
</mgrwt>
</event>
<event>
 7    0  0.4775379E-002  0.4403129E+03  0.7546771E-02  0.1030651E+00
         21   -1    0    0  502  501  0.00000000000E+00  0.00000000000E+00  0.49213129119E+03  0.49213129119E+03  0.00000000000E+00 0.  1.
         21   -1    0    0  501  502 -0.00000000000E+00 -0.00000000000E+00 -0.98487644791E+02  0.98487644791E+02  0.00000000000E+00 0.  1.
      99926    2    1    2    0    0 -0.14210854715E-13 -0.35527136788E-14  0.39364364640E+03  0.59061893598E+03  0.44031285149E+03 0.  0.
      99925    2    3    3    0    0 -0.91866375633E+02 -0.17899351330E+02  0.20885508763E+03  0.34863931431E+03  0.26300020172E+03 0.  0.
         25    1    4    4    0    0 -0.14349736098E+02 -0.15518709019E+02  0.63840115432E+02  0.14202046928E+03  0.12509000000E+03 0.  0.
         25    1    3    3    0    0  0.91866375633E+02  0.17899351330E+02  0.18478855877E+03  0.24197962167E+03  0.12509000000E+03 0.  0.
         25    1    4    4    0    0 -0.77516639535E+02 -0.23806423112E+01  0.14501497220E+03  0.20661884504E+03  0.12509000000E+03 0.  0.
<mgrwt>
<rscale>  2 0.44031285E+03</rscale>
<asrwt>0</asrwt>
<pdfrwt beam="1">  1       21 0.72372248E-01 0.44031285E+03</pdfrwt>
<pdfrwt beam="2">  1       21 0.14483477E-01 0.44031285E+03</pdfrwt>
<totfact> 0.66667108E+04</totfact>
</mgrwt>
</event>
<event>
 7    0  0.4775379E-002  0.4914550E+03  0.7546771E-02  0.1016034E+00
         21   -1    0    0  502  501  0.00000000000E+00  0.00000000000E+00  0.35118160055E+03  0.35118160055E+03  0.00000000000E+00 0.  1.
         21   -1    0    0  501  502 -0.00000000000E+00 -0.00000000000E+00 -0.17193953320E+03  0.17193953320E+03  0.00000000000E+00 0.  1.
      99926    2    1    2    0    0  0.00000000000E+00  0.00000000000E+00  0.17924206735E+03  0.52312113376E+03  0.49145498459E+03 0.  0.
      99925    2    3    3    0    0  0.41208569180E+02  0.82989449975E+02 -0.88074193379E+01  0.27899921233E+03  0.26301633953E+03 0.  0.
         25    1    3    3    0    0 -0.41208569180E+02 -0.82989449975E+02  0.18804948669E+03  0.24412192143E+03  0.12509000000E+03 0.  0.
         25    1    4    4    0    0  0.15895031696E+02  0.27352957972E+01  0.12483620806E+02  0.12674179565E+03  0.12509000000E+03 0.  0.
         25    1    4    4    0    0  0.25313537484E+02  0.80254154178E+02 -0.21291040144E+02  0.15225741668E+03  0.12509000000E+03 0.  0.
<mgrwt>
<rscale>  2 0.49145498E+03</rscale>
<asrwt>0</asrwt>
<pdfrwt beam="1">  1       21 0.51644353E-01 0.49145498E+03</pdfrwt>
<pdfrwt beam="2">  1       21 0.25285226E-01 0.49145498E+03</pdfrwt>
<totfact> 0.48157788E+04</totfact>
</mgrwt>
</event>
<event>
 7    0  0.4775379E-002  0.4381337E+03  0.7546771E-02  0.1031321E+00
         21   -1    0    0  502  501  0.00000000000E+00  0.00000000000E+00  0.23783232962E+04  0.23783232962E+04  0.00000000000E+00 0. -1.
         21   -1    0    0  501  502 -0.00000000000E+00 -0.00000000000E+00 -0.20178201674E+02  0.20178201674E+02  0.00000000000E+00 0. -1.
      99926    2    1    2    0    0 -0.17763568394E-14  0.00000000000E+00  0.23581450945E+04  0.23985014979E+04  0.43813371072E+03 0.  0.
      99925    2    3    3    0    0 -0.24720694313E+01 -0.62562628543E+02  0.19093456692E+04  0.19284072244E+04  0.26312230097E+03 0.  0.
         25    1    3    3    0    0  0.24720694313E+01  0.62562628543E+02  0.44879942533E+03  0.47009427341E+03  0.12509000000E+03 0.  0.
         25    1    4    4    0    0 -0.19442842420E+02 -0.21279979898E+02  0.11899686123E+04  0.11968724527E+04  0.12509000000E+03 0.  0.
         25    1    4    4    0    0  0.16970772989E+02 -0.41282648644E+02  0.71937705691E+03  0.73153477178E+03  0.12509000000E+03 0.  0.
<mgrwt>
<rscale>  2 0.43813371E+03</rscale>
<asrwt>0</asrwt>
<pdfrwt beam="1">  1       21 0.34975323E+00 0.43813371E+03</pdfrwt>
<pdfrwt beam="2">  1       21 0.29673842E-02 0.43813371E+03</pdfrwt>
<totfact> 0.93999195E+03</totfact>
</mgrwt>
</event>
<event>
 7    0  0.4775379E-002  0.4413370E+03  0.7546771E-02  0.1030337E+00
         21   -1    0    0  502  501  0.00000000000E+00  0.00000000000E+00  0.14379539819E+04  0.14379539819E+04  0.00000000000E+00 0. -1.
         21   -1    0    0  501  502 -0.00000000000E+00 -0.00000000000E+00 -0.33863805139E+02  0.33863805139E+02  0.00000000000E+00 0. -1.
      99926    2    1    2    0    0  0.00000000000E+00 -0.66613381478E-15  0.14040901767E+04  0.14718177870E+04  0.44133702968E+03 0.  0.
      99925    2    3    3    0    0 -0.90636587538E+02  0.18054760656E+01  0.75585198045E+03  0.80542562171E+03  0.26302084523E+03 0.  0.
         25    1    4    4    0    0 -0.45054696599E+02 -0.27786060180E+02  0.29406030776E+03  0.32391505603E+03  0.12509000000E+03 0.  0.
         25    1    4    4    0    0 -0.45581890939E+02  0.29591536246E+02  0.46179167269E+03  0.48151056568E+03  0.12509000000E+03 0.  0.
         25    1    3    3    0    0  0.90636587538E+02 -0.18054760656E+01  0.64823819629E+03  0.66639216530E+03  0.12509000000E+03 0.  0.
<mgrwt>
<rscale>  2 0.44133703E+03</rscale>
<asrwt>0</asrwt>
<pdfrwt beam="1">  1       21 0.21146378E+00 0.44133703E+03</pdfrwt>
<pdfrwt beam="2">  1       21 0.49799723E-02 0.44133703E+03</pdfrwt>
<totfact> 0.27258779E+04</totfact>
</mgrwt>
</event>
<event>
 7    0  0.4775379E-002  0.4529067E+03  0.7546771E-02  0.1026859E+00
         21   -1    0    0  502  501  0.00000000000E+00  0.00000000000E+00  0.47195576655E+03  0.47195576655E+03  0.00000000000E+00 0.  1.
         21   -1    0    0  501  502 -0.00000000000E+00 -0.00000000000E+00 -0.10865661639E+03  0.10865661639E+03  0.00000000000E+00 0.  1.
      99926    2    1    2    0    0  0.00000000000E+00 -0.49821258230E-14  0.36329915016E+03  0.58061238294E+03  0.45290668654E+03 0.  0.
      99925    2    3    3    0    0 -0.19201356030E+02 -0.11660269304E+00  0.36945245484E+03  0.45390769902E+03  0.26299881590E+03 0.  0.
         25    1    4    4    0    0  0.52499617042E+01 -0.37216154273E+02  0.19471328072E+03  0.23446401435E+03  0.12509000000E+03 0.  0.
         25    1    3    3    0    0  0.19201356030E+02  0.11660269304E+00 -0.61533046815E+01  0.12670468392E+03  0.12509000000E+03 0.  0.
         25    1    4    4    0    0 -0.24451317734E+02  0.37099551580E+02  0.17473917412E+03  0.21944368466E+03  0.12509000000E+03 0.  0.
<mgrwt>
<rscale>  2 0.45290669E+03</rscale>
<asrwt>0</asrwt>
<pdfrwt beam="1">  1       21 0.69405259E-01 0.45290669E+03</pdfrwt>
<pdfrwt beam="2">  1       21 0.15978914E-01 0.45290669E+03</pdfrwt>
<totfact> 0.60889181E+04</totfact>
</mgrwt>
</event>
<event>
 7    0  0.4775379E-002  0.4507470E+03  0.7546771E-02  0.1027500E+00
         21   -1    0    0  502  501  0.00000000000E+00  0.00000000000E+00  0.23990486338E+03  0.23990486338E+03  0.00000000000E+00 0.  1.
         21   -1    0    0  501  502 -0.00000000000E+00 -0.00000000000E+00 -0.21172228985E+03  0.21172228985E+03  0.00000000000E+00 0.  1.
      99926    2    1    2    0    0  0.00000000000E+00  0.00000000000E+00  0.28182573533E+02  0.45162715323E+03  0.45074696681E+03 0.  0.
      99925    2    3    3    0    0 -0.93399136046E+02 -0.42101191728E+02 -0.19177082668E+02  0.28314464941E+03  0.26326265028E+03 0.  0.
         25    1    4    4    0    0 -0.42771697678E+02 -0.62125269204E+02 -0.98887170252E+01  0.14640444672E+03  0.12509000000E+03 0.  0.
         25    1    3    3    0    0  0.93399136046E+02  0.42101191728E+02  0.47359656201E+02  0.16848250382E+03  0.12509000000E+03 0.  0.
         25    1    4    4    0    0 -0.50627438368E+02  0.20024077476E+02 -0.92883656426E+01  0.13674020269E+03  0.12509000000E+03 0.  0.
<mgrwt>
<rscale>  2 0.45074697E+03</rscale>
<asrwt>0</asrwt>
<pdfrwt beam="1">  1       21 0.35280127E-01 0.45074697E+03</pdfrwt>
<pdfrwt beam="2">  1       21 0.31135631E-01 0.45074697E+03</pdfrwt>
<totfact> 0.71178516E+04</totfact>
</mgrwt>
</event>
<event>
 7    0  0.4775379E-002  0.4555724E+03  0.7546771E-02  0.1026073E+00
         21   -1    0    0  502  501  0.00000000000E+00  0.00000000000E+00  0.70049388505E+03  0.70049388505E+03  0.00000000000E+00 0. -1.
         21   -1    0    0  501  502 -0.00000000000E+00 -0.00000000000E+00 -0.74071386907E+02  0.74071386907E+02  0.00000000000E+00 0. -1.
      99926    2    1    2    0    0 -0.35527136788E-14  0.00000000000E+00  0.62642249814E+03  0.77456527196E+03  0.45557240296E+03 0.  0.
      99925    2    3    3    0    0 -0.24512523919E+02 -0.11102108234E+03  0.38751394497E+03  0.48190275397E+03  0.26293851409E+03 0.  0.
         25    1    4    4    0    0 -0.14935421910E+02 -0.44758345104E+02  0.25421751199E+03  0.28722887700E+03  0.12509000000E+03 0.  0.
         25    1    4    4    0    0 -0.95771020096E+01 -0.66262737235E+02  0.13329643298E+03  0.19467387697E+03  0.12509000000E+03 0.  0.
         25    1    3    3    0    0  0.24512523919E+02  0.11102108234E+03  0.23890855318E+03  0.29266251798E+03  0.12509000000E+03 0.  0.
<mgrwt>
<rscale>  2 0.45557240E+03</rscale>
<asrwt>0</asrwt>
<pdfrwt beam="1">  1       21 0.10301380E+00 0.45557240E+03</pdfrwt>
<pdfrwt beam="2">  1       21 0.10892851E-01 0.45557240E+03</pdfrwt>
<totfact> 0.48800039E+04</totfact>
</mgrwt>
</event>
<event>
 7    0  0.4775379E-002  0.4281082E+03  0.7546771E-02  0.1034459E+00
         21   -1    0    0  502  501  0.00000000000E+00  0.00000000000E+00  0.24480255823E+03  0.24480255823E+03  0.00000000000E+00 0.  1.
         21   -1    0    0  501  502 -0.00000000000E+00 -0.00000000000E+00 -0.18716781774E+03  0.18716781774E+03  0.00000000000E+00 0.  1.
      99926    2    1    2    0    0  0.00000000000E+00 -0.71054273576E-14  0.57634740492E+02  0.43197037597E+03  0.42810821343E+03 0.  0.
      99925    2    3    3    0    0  0.49192517173E+02 -0.45943249873E+02  0.90252329109E+02  0.28622367398E+03  0.26314981034E+03 0.  0.
         25    1    4    4    0    0  0.45978487698E+02  0.35647972664E+01  0.21277699942E+02  0.13500732471E+03  0.12509000000E+03 0.  0.
         25    1    4    4    0    0  0.32140294754E+01 -0.49508047139E+02  0.68974629167E+02  0.15121634927E+03  0.12509000000E+03 0.  0.
         25    1    3    3    0    0 -0.49192517173E+02  0.45943249873E+02 -0.32617588616E+02  0.14574670199E+03  0.12509000000E+03 0.  0.
<mgrwt>
<rscale>  2 0.42810821E+03</rscale>
<asrwt>0</asrwt>
<pdfrwt beam="1">  1       21 0.36000376E-01 0.42810821E+03</pdfrwt>
<pdfrwt beam="2">  1       21 0.27524679E-01 0.42810821E+03</pdfrwt>
<totfact> 0.87607091E+04</totfact>
</mgrwt>
</event>
<event>
 7    0  0.4775379E-002  0.4521642E+03  0.7546771E-02  0.1027079E+00
         21   -1    0    0  502  501  0.00000000000E+00  0.00000000000E+00  0.15520968046E+03  0.15520968046E+03  0.00000000000E+00 0. -1.
         21   -1    0    0  501  502 -0.00000000000E+00 -0.00000000000E+00 -0.32931660346E+03  0.32931660346E+03  0.00000000000E+00 0. -1.
      99926    2    1    2    0    0  0.00000000000E+00 -0.14210854715E-13 -0.17410692300E+03  0.48452628392E+03  0.45216423916E+03 0.  0.
      99925    2    3    3    0    0  0.17970312176E+02 -0.10854979804E+03 -0.11816964621E+03  0.30879217281E+03  0.26321578586E+03 0.  0.
         25    1    3    3    0    0 -0.17970312176E+02  0.10854979804E+03 -0.55937276790E+02  0.17573411112E+03  0.12509000000E+03 0.  0.
         25    1    4    4    0    0  0.19821870493E+02 -0.74966257443E+02 -0.10013567908E+03  0.17800985543E+03  0.12509000000E+03 0.  0.
         25    1    4    4    0    0 -0.18515583166E+01 -0.33583540602E+02 -0.18033967129E+02  0.13078231737E+03  0.12509000000E+03 0.  0.
<mgrwt>
<rscale>  2 0.45216424E+03</rscale>
<asrwt>0</asrwt>
<pdfrwt beam="1">  1       21 0.22824953E-01 0.45216424E+03</pdfrwt>
<pdfrwt beam="2">  1       21 0.48428911E-01 0.45216424E+03</pdfrwt>
<totfact> 0.67887506E+04</totfact>
</mgrwt>
</event>
<event>
 7    0  0.4775379E-002  0.4535755E+03  0.7546771E-02  0.1026661E+00
         21   -1    0    0  502  501  0.00000000000E+00  0.00000000000E+00  0.12760856492E+03  0.12760856492E+03  0.00000000000E+00 0.  1.
         21   -1    0    0  501  502 -0.00000000000E+00 -0.00000000000E+00 -0.40305044814E+03  0.40305044814E+03  0.00000000000E+00 0.  1.
      99926    2    1    2    0    0  0.00000000000E+00  0.00000000000E+00 -0.27544188323E+03  0.53065901306E+03  0.45357552525E+03 0.  0.
      99925    2    3    3    0    0 -0.67842900292E+02  0.20177352338E+02 -0.27467804102E+03  0.38693053216E+03  0.26316805625E+03 0.  0.
         25    1    3    3    0    0  0.67842900292E+02 -0.20177352338E+02 -0.76384220797E+00  0.14372848090E+03  0.12509000000E+03 0.  0.
         25    1    4    4    0    0  0.13014621984E+01  0.19809722154E+02 -0.10095514415E+03  0.16196779966E+03  0.12509000000E+03 0.  0.
         25    1    4    4    0    0 -0.69144362491E+02  0.36763018441E+00 -0.17372289687E+03  0.22496273250E+03  0.12509000000E+03 0.  0.
<mgrwt>
<rscale>  2 0.45357553E+03</rscale>
<asrwt>0</asrwt>
<pdfrwt beam="1">  1       21 0.18765966E-01 0.45357553E+03</pdfrwt>
<pdfrwt beam="2">  1       21 0.59272124E-01 0.45357553E+03</pdfrwt>
<totfact> 0.63880074E+04</totfact>
</mgrwt>
</event>
<event>
 7    0  0.4775379E-002  0.4513441E+03  0.7546771E-02  0.1027322E+00
         21   -1    0    0  502  501  0.00000000000E+00  0.00000000000E+00  0.22382882051E+04  0.22382882051E+04  0.00000000000E+00 0.  1.
         21   -1    0    0  501  502 -0.00000000000E+00 -0.00000000000E+00 -0.22753043349E+02  0.22753043349E+02  0.00000000000E+00 0.  1.
      99926    2    1    2    0    0  0.00000000000E+00  0.00000000000E+00  0.22155351617E+04  0.22610412484E+04  0.45134407521E+03 0.  0.
      99925    2    3    3    0    0  0.96956883146E+02 -0.14776422447E+02  0.11553118836E+04  0.11889685422E+04  0.26321410696E+03 0.  0.
         25    1    3    3    0    0 -0.96956883146E+02  0.14776422447E+02  0.10602232781E+04  0.10720727062E+04  0.12509000000E+03 0.  0.
         25    1    4    4    0    0  0.14811109950E+02 -0.73649362938E+01  0.63978429071E+03  0.65210816434E+03  0.12509000000E+03 0.  0.
         25    1    4    4    0    0  0.82145773195E+02 -0.74114861534E+01  0.51552759290E+03  0.53686037787E+03  0.12509000000E+03 0.  0.
<mgrwt>
<rscale>  2 0.45134408E+03</rscale>
<asrwt>0</asrwt>
<pdfrwt beam="1">  1       21 0.32915988E+00 0.45134408E+03</pdfrwt>
<pdfrwt beam="2">  1       21 0.33460373E-02 0.45134408E+03</pdfrwt>
<totfact> 0.10182903E+04</totfact>
</mgrwt>
</event>
<event>
 7    0  0.4775379E-002  0.4344866E+03  0.7546771E-02  0.1032452E+00
         21   -1    0    0  502  501  0.00000000000E+00  0.00000000000E+00  0.15534170192E+03  0.15534170192E+03  0.00000000000E+00 0. -1.
         21   -1    0    0  501  502 -0.00000000000E+00 -0.00000000000E+00 -0.30381184515E+03  0.30381184515E+03  0.00000000000E+00 0. -1.
      99926    2    1    2    0    0 -0.71054273576E-14  0.00000000000E+00 -0.14847014323E+03  0.45915354707E+03  0.43448658939E+03 0.  0.
      99925    2    3    3    0    0 -0.62389881045E+02  0.61373172401E+02 -0.12724472580E+03  0.30501987135E+03  0.26303372051E+03 0.  0.
         25    1    4    4    0    0 -0.62403082655E+02  0.52771456578E+02 -0.89061231232E+02  0.17394936724E+03  0.12509000000E+03 0.  0.
         25    1    3    3    0    0  0.62389881045E+02 -0.61373172401E+02 -0.21225417432E+02  0.15413367573E+03  0.12509000000E+03 0.  0.
         25    1    4    4    0    0  0.13201609147E-01  0.86017158233E+01 -0.38183494571E+02  0.13107050411E+03  0.12509000000E+03 0.  0.
<mgrwt>
<rscale>  2 0.43448659E+03</rscale>
<asrwt>0</asrwt>
<pdfrwt beam="1">  1       21 0.22844368E-01 0.43448659E+03</pdfrwt>
<pdfrwt beam="2">  1       21 0.44678212E-01 0.43448659E+03</pdfrwt>
<totfact> 0.80590955E+04</totfact>
</mgrwt>
</event>
<event>
 7    0  0.4775379E-002  0.4551990E+03  0.7546771E-02  0.1026183E+00
         21   -1    0    0  502  501  0.00000000000E+00  0.00000000000E+00  0.27209573356E+03  0.27209573356E+03  0.00000000000E+00 0. -1.
         21   -1    0    0  501  502 -0.00000000000E+00 -0.00000000000E+00 -0.19037984504E+03  0.19037984504E+03  0.00000000000E+00 0. -1.
      99926    2    1    2    0    0  0.00000000000E+00 -0.14210854715E-13  0.81715888520E+02  0.46247557860E+03  0.45519904917E+03 0.  0.
      99925    2    3    3    0    0 -0.64635423284E+02 -0.88236533784E+02  0.82070312122E+02  0.29630982535E+03  0.26286983971E+03 0.  0.
         25    1    4    4    0    0 -0.68337147403E+02 -0.66014820250E+02  0.54340701304E+02  0.16621775515E+03  0.12509000000E+03 0.  0.
         25    1    4    4    0    0  0.37017241192E+01 -0.22221713534E+02  0.27729610818E+02  0.13009207020E+03  0.12509000000E+03 0.  0.
         25    1    3    3    0    0  0.64635423284E+02  0.88236533784E+02 -0.35442360240E+00  0.16616575325E+03  0.12509000000E+03 0.  0.
<mgrwt>
<rscale>  2 0.45519905E+03</rscale>
<asrwt>0</asrwt>
<pdfrwt beam="1">  1       21 0.40014079E-01 0.45519905E+03</pdfrwt>
<pdfrwt beam="2">  1       21 0.27997036E-01 0.45519905E+03</pdfrwt>
<totfact> 0.67890436E+04</totfact>
</mgrwt>
</event>
<event>
 7    0  0.4775379E-002  0.4468759E+03  0.7546771E-02  0.1028658E+00
         21   -1    0    0  502  501  0.00000000000E+00  0.00000000000E+00  0.13338620695E+03  0.13338620695E+03  0.00000000000E+00 0.  1.
         21   -1    0    0  501  502 -0.00000000000E+00 -0.00000000000E+00 -0.37428550185E+03  0.37428550185E+03  0.00000000000E+00 0.  1.
      99926    2    1    2    0    0  0.00000000000E+00  0.71054273576E-14 -0.24089929490E+03  0.50767170880E+03  0.44687592645E+03 0.  0.
      99925    2    3    3    0    0 -0.90008360100E+02 -0.50909361674E+02 -0.13361249420E+03  0.31311777361E+03  0.26362316581E+03 0.  0.
         25    1    3    3    0    0  0.90008360100E+02  0.50909361674E+02 -0.10728680070E+03  0.19455393519E+03  0.12509000000E+03 0.  0.
         25    1    4    4    0    0 -0.64836784863E+02 -0.32167270285E+02 -0.29801370688E+02  0.14756073917E+03  0.12509000000E+03 0.  0.
         25    1    4    4    0    0 -0.25171575236E+02 -0.18742091389E+02 -0.10381112351E+03  0.16555703445E+03  0.12509000000E+03 0.  0.
<mgrwt>
<rscale>  2 0.44687593E+03</rscale>
<asrwt>0</asrwt>
<pdfrwt beam="1">  1       21 0.19615619E-01 0.44687593E+03</pdfrwt>
<pdfrwt beam="2">  1       21 0.55041985E-01 0.44687593E+03</pdfrwt>
<totfact> 0.69082480E+04</totfact>
</mgrwt>
</event>
<event>
 7    0  0.4775379E-002  0.4539303E+03  0.7546771E-02  0.1026556E+00
         21   -1    0    0  502  501  0.00000000000E+00  0.00000000000E+00  0.35135115113E+02  0.35135115113E+02  0.00000000000E+00 0. -1.
         21   -1    0    0  501  502 -0.00000000000E+00 -0.00000000000E+00 -0.14661450483E+04  0.14661450483E+04  0.00000000000E+00 0. -1.
      99926    2    1    2    0    0 -0.14210854715E-13  0.14210854715E-13 -0.14310099332E+04  0.15012801634E+04  0.45393028118E+03 0.  0.
      99925    2    3    3    0    0 -0.60808607356E+02  0.93994640240E+02 -0.92133221791E+03  0.96466898139E+03  0.26305989578E+03 0.  0.
         25    1    3    3    0    0  0.60808607356E+02 -0.93994640240E+02 -0.50967771525E+03  0.53661118200E+03  0.12509000000E+03 0.  0.
         25    1    4    4    0    0 -0.35531427370E+02  0.50723036947E+01 -0.43816346921E+03  0.45708089486E+03  0.12509000000E+03 0.  0.
         25    1    4    4    0    0 -0.25277179986E+02  0.88922336545E+02 -0.48316874869E+03  0.50758808652E+03  0.12509000000E+03 0.  0.
<mgrwt>
<rscale>  2 0.45393028E+03</rscale>
<asrwt>0</asrwt>
<pdfrwt beam="1">  1       21 0.51669301E-02 0.45393028E+03</pdfrwt>
<pdfrwt beam="2">  1       21 0.21560951E+00 0.45393028E+03</pdfrwt>
<totfact> 0.23946118E+04</totfact>
</mgrwt>
</event>
<event>
 7    0  0.4775379E-002  0.4403359E+03  0.7546771E-02  0.1030644E+00
         21   -1    0    0  502  501  0.00000000000E+00  0.00000000000E+00  0.40031004255E+03  0.40031004255E+03  0.00000000000E+00 0.  1.
         21   -1    0    0  501  502 -0.00000000000E+00 -0.00000000000E+00 -0.12109096340E+03  0.12109096340E+03  0.00000000000E+00 0.  1.
      99926    2    1    2    0    0  0.00000000000E+00  0.00000000000E+00  0.27921907916E+03  0.52140100595E+03  0.44033591137E+03 0.  0.
      99925    2    3    3    0    0 -0.81062781113E+02  0.55507733674E+02  0.17144888841E+03  0.32927030801E+03  0.26338551862E+03 0.  0.
         25    1    3    3    0    0  0.81062781113E+02 -0.55507733674E+02  0.10777019075E+03  0.19213069795E+03  0.12509000000E+03 0.  0.
         25    1    4    4    0    0 -0.76770767870E+02  0.49741789785E+02  0.82048556664E+02  0.17534956573E+03  0.12509000000E+03 0.  0.
         25    1    4    4    0    0 -0.42920132431E+01  0.57659438894E+01  0.89400331747E+02  0.15392074228E+03  0.12509000000E+03 0.  0.
<mgrwt>
<rscale>  2 0.44033591E+03</rscale>
<asrwt>0</asrwt>
<pdfrwt beam="1">  1       21 0.58869124E-01 0.44033591E+03</pdfrwt>
<pdfrwt beam="2">  1       21 0.17807495E-01 0.44033591E+03</pdfrwt>
<totfact> 0.71774072E+04</totfact>
</mgrwt>
</event>
<event>
 7    0  0.4775379E-002  0.4538041E+03  0.7546771E-02  0.1026594E+00
         21   -1    0    0  502  501  0.00000000000E+00  0.00000000000E+00  0.88724548562E+02  0.88724548562E+02  0.00000000000E+00 0.  1.
         21   -1    0    0  501  502 -0.00000000000E+00 -0.00000000000E+00 -0.58027402750E+03  0.58027402750E+03  0.00000000000E+00 0.  1.
      99926    2    1    2    0    0  0.00000000000E+00  0.00000000000E+00 -0.49154947894E+03  0.66899857606E+03  0.45380414777E+03 0.  0.
      99925    2    3    3    0    0  0.34514296479E+02  0.55085423027E+02 -0.44420162639E+03  0.52028755518E+03  0.26297987508E+03 0.  0.
         25    1    4    4    0    0 -0.21187492182E+01  0.85637792902E+01 -0.15263562502E+03  0.19754232341E+03  0.12509000000E+03 0.  0.
         25    1    3    3    0    0 -0.34514296479E+02 -0.55085423027E+02 -0.47347852547E+02  0.14871102088E+03  0.12509000000E+03 0.  0.
         25    1    4    4    0    0  0.36633045697E+02  0.46521643736E+02 -0.29156600137E+03  0.32274523177E+03  0.12509000000E+03 0.  0.
<mgrwt>
<rscale>  2 0.45380415E+03</rscale>
<asrwt>0</asrwt>
<pdfrwt beam="1">  1       21 0.13047728E-01 0.45380415E+03</pdfrwt>
<pdfrwt beam="2">  1       21 0.85334416E-01 0.45380415E+03</pdfrwt>
<totfact> 0.55136629E+04</totfact>
</mgrwt>
</event>
<event>
 7    0  0.4775379E-002  0.4568379E+03  0.7546771E-02  0.1025702E+00
         21   -1    0    0  502  501  0.00000000000E+00  0.00000000000E+00  0.22389267780E+03  0.22389267780E+03  0.00000000000E+00 0. -1.
         21   -1    0    0  501  502 -0.00000000000E+00 -0.00000000000E+00 -0.23303671116E+03  0.23303671116E+03  0.00000000000E+00 0. -1.
      99926    2    1    2    0    0  0.88817841970E-15  0.00000000000E+00 -0.91440333613E+01  0.45692938895E+03  0.45683788497E+03 0.  0.
      99925    2    3    3    0    0 -0.58756622027E+01 -0.31302841192E+02  0.10483433460E+03  0.28472901806E+03  0.26280408053E+03 0.  0.
         25    1    4    4    0    0 -0.20423730755E+02 -0.39835333539E+02  0.24466391448E+02  0.13509291242E+03  0.12509000000E+03 0.  0.
         25    1    4    4    0    0  0.14548068552E+02  0.85324923466E+01  0.80367943150E+02  0.14963610564E+03  0.12509000000E+03 0.  0.
         25    1    3    3    0    0  0.58756622027E+01  0.31302841192E+02 -0.11397836796E+03  0.17220037089E+03  0.12509000000E+03 0.  0.
<mgrwt>
<rscale>  2 0.45683788E+03</rscale>
<asrwt>0</asrwt>
<pdfrwt beam="1">  1       21 0.32925394E-01 0.45683788E+03</pdfrwt>
<pdfrwt beam="2">  1       21 0.34270104E-01 0.45683788E+03</pdfrwt>
<totfact> 0.67410708E+04</totfact>
</mgrwt>
</event>
<event>
 7    0  0.4775379E-002  0.4585953E+03  0.7546771E-02  0.1025189E+00
         21   -1    0    0  502  501  0.00000000000E+00  0.00000000000E+00  0.72902195306E+03  0.72902195306E+03  0.00000000000E+00 0. -1.
         21   -1    0    0  501  502 -0.00000000000E+00 -0.00000000000E+00 -0.72120471783E+02  0.72120471783E+02  0.00000000000E+00 0. -1.
      99926    2    1    2    0    0 -0.35527136788E-14  0.00000000000E+00  0.65690148128E+03  0.80114242485E+03  0.45859527776E+03 0.  0.
      99925    2    3    3    0    0 -0.22797612038E+02  0.76362489182E+02  0.56061318059E+03  0.62430943636E+03  0.26291476414E+03 0.  0.
         25    1    3    3    0    0  0.22797612038E+02 -0.76362489182E+02  0.96288300691E+02  0.17683298849E+03  0.12509000000E+03 0.  0.
         25    1    4    4    0    0 -0.24427718233E+02  0.14701447170E+02  0.33894655684E+03  0.36241567635E+03  0.12509000000E+03 0.  0.
         25    1    4    4    0    0  0.16301061945E+01  0.61661042012E+02  0.22166662375E+03  0.26189376001E+03  0.12509000000E+03 0.  0.
<mgrwt>
<rscale>  2 0.45859528E+03</rscale>
<asrwt>0</asrwt>
<pdfrwt beam="1">  1       21 0.10720911E+00 0.45859528E+03</pdfrwt>
<pdfrwt beam="2">  1       21 0.10605952E-01 0.45859528E+03</pdfrwt>
<totfact> 0.46386893E+04</totfact>
</mgrwt>
</event>
<event>
 7    0  0.4775379E-002  0.4513442E+03  0.7546771E-02  0.1027322E+00
         21   -1    0    0  502  501  0.00000000000E+00  0.00000000000E+00  0.16048382443E+04  0.16048382443E+04  0.00000000000E+00 0.  1.
         21   -1    0    0  501  502 -0.00000000000E+00 -0.00000000000E+00 -0.31733976115E+02  0.31733976115E+02  0.00000000000E+00 0.  1.
      99926    2    1    2    0    0  0.00000000000E+00  0.00000000000E+00  0.15731042682E+04  0.16365722204E+04  0.45134420795E+03 0.  0.
      99925    2    3    3    0    0  0.96374232218E+02 -0.17765890599E+02  0.81296059276E+03  0.85999670258E+03  0.26284174625E+03 0.  0.
         25    1    4    4    0    0  0.56192178016E+02  0.27376003987E+02  0.35977437454E+03  0.38599496777E+03  0.12509000000E+03 0.  0.
         25    1    3    3    0    0 -0.96374232218E+02  0.17765890599E+02  0.76014367543E+03  0.77657551783E+03  0.12509000000E+03 0.  0.
         25    1    4    4    0    0  0.40182054203E+02 -0.45141894586E+02  0.45318621822E+03  0.47400173481E+03  0.12509000000E+03 0.  0.
<mgrwt>
<rscale>  2 0.45134421E+03</rscale>
<asrwt>0</asrwt>
<pdfrwt beam="1">  1       21 0.23600557E+00 0.45134421E+03</pdfrwt>
<pdfrwt beam="2">  1       21 0.46667622E-02 0.45134421E+03</pdfrwt>
<totfact> 0.21211557E+04</totfact>
</mgrwt>
</event>
<event>
 7    0  0.4775379E-002  0.4435482E+03  0.7546771E-02  0.1029664E+00
         21   -1    0    0  502  501  0.00000000000E+00  0.00000000000E+00  0.75617844588E+02  0.75617844588E+02  0.00000000000E+00 0.  1.
         21   -1    0    0  501  502 -0.00000000000E+00 -0.00000000000E+00 -0.65042533209E+03  0.65042533209E+03  0.00000000000E+00 0.  1.
      99926    2    1    2    0    0  0.14210854715E-13 -0.71054273576E-14 -0.57480748750E+03  0.72604317667E+03  0.44354824620E+03 0.  0.
      99925    2    3    3    0    0  0.71094804888E+02 -0.55770672155E+02 -0.28759854322E+03  0.40000433708E+03  0.26291768381E+03 0.  0.
         25    1    3    3    0    0 -0.71094804888E+02  0.55770672155E+02 -0.28720894427E+03  0.32603883960E+03  0.12509000000E+03 0.  0.
         25    1    4    4    0    0  0.28810711191E+02  0.12732960247E+02 -0.12493990304E+03  0.17958193904E+03  0.12509000000E+03 0.  0.
         25    1    4    4    0    0  0.42284093697E+02 -0.68503632402E+02 -0.16265864018E+03  0.22042239804E+03  0.12509000000E+03 0.  0.
<mgrwt>
<rscale>  2 0.44354825E+03</rscale>
<asrwt>0</asrwt>
<pdfrwt beam="1">  1       21 0.11120271E-01 0.44354825E+03</pdfrwt>
<pdfrwt beam="2">  1       21 0.95650787E-01 0.44354825E+03</pdfrwt>
<totfact> 0.56424120E+04</totfact>
</mgrwt>
</event>
<event>
 6    0  0.4775379E-002  0.4541489E+03  0.7546771E-02  0.1026492E+00
         21   -1    0    0  502  501  0.00000000000E+00  0.00000000000E+00  0.30822194471E+02  0.30822194471E+02  0.00000000000E+00 0.  1.
         21   -1    0    0  501  502 -0.00000000000E+00 -0.00000000000E+00 -0.16729117911E+04  0.16729117911E+04  0.00000000000E+00 0.  1.
      99926    2    1    2    0    0  0.00000000000E+00  0.00000000000E+00 -0.16420895966E+04  0.17037339856E+04  0.45414892957E+03 0.  0.
         25    1    3    3    0    0 -0.39661909177E+02 -0.51478261534E+02 -0.52280645648E+03  0.54147684852E+03  0.12509000000E+03 0.  0.
         25    1    3    3    0    0 -0.67386055877E+02  0.14755571665E+02 -0.45545592131E+03  0.47733239129E+03  0.12509000000E+03 0.  0.
         25    1    3    3    0    0  0.10704796505E+03  0.36722689869E+02 -0.66382721886E+03  0.68492474577E+03  0.12509000000E+03 0.  0.
<mgrwt>
<rscale>  2 0.45414893E+03</rscale>
<asrwt>0</asrwt>
<pdfrwt beam="1">  1       21 0.45326740E-02 0.45414893E+03</pdfrwt>
<pdfrwt beam="2">  1       21 0.24601653E+00 0.45414893E+03</pdfrwt>
<totfact> 0.19311401E+04</totfact>
</mgrwt>
</event>
<event>
 7    0  0.4775379E-002  0.4546529E+03  0.7546771E-02  0.1026344E+00
         21   -1    0    0  502  501  0.00000000000E+00  0.00000000000E+00  0.49842803108E+03  0.49842803108E+03  0.00000000000E+00 0. -1.
         21   -1    0    0  501  502 -0.00000000000E+00 -0.00000000000E+00 -0.10368058501E+03  0.10368058501E+03  0.00000000000E+00 0. -1.
      99926    2    1    2    0    0  0.00000000000E+00  0.00000000000E+00  0.39474744607E+03  0.60210861609E+03  0.45465287792E+03 0.  0.
      99925    2    3    3    0    0  0.84841371224E+02 -0.37896178864E+02  0.16375778118E+03  0.32347281074E+03  0.26302826796E+03 0.  0.
         25    1    4    4    0    0  0.39315458603E+02 -0.59121000961E+02  0.92334558689E+02  0.17092155180E+03  0.12509000000E+03 0.  0.
         25    1    4    4    0    0  0.45525912621E+02  0.21224822098E+02  0.71423222491E+02  0.15255125894E+03  0.12509000000E+03 0.  0.
         25    1    3    3    0    0 -0.84841371224E+02  0.37896178864E+02  0.23098966489E+03  0.27863580536E+03  0.12509000000E+03 0.  0.
<mgrwt>
<rscale>  2 0.45465288E+03</rscale>
<asrwt>0</asrwt>
<pdfrwt beam="1">  1       21 0.73298239E-01 0.45465288E+03</pdfrwt>
<pdfrwt beam="2">  1       21 0.15247145E-01 0.45465288E+03</pdfrwt>
<totfact> 0.58709512E+04</totfact>
</mgrwt>
</event>
<event>
 7    0  0.4775379E-002  0.4535743E+03  0.7546771E-02  0.1026661E+00
         21   -1    0    0  502  501  0.00000000000E+00  0.00000000000E+00  0.12487438493E+03  0.12487438493E+03  0.00000000000E+00 0. -1.
         21   -1    0    0  501  502 -0.00000000000E+00 -0.00000000000E+00 -0.41187310237E+03  0.41187310237E+03  0.00000000000E+00 0. -1.
      99926    2    1    2    0    0  0.00000000000E+00  0.00000000000E+00 -0.28699871744E+03  0.53674748730E+03  0.45357425115E+03 0.  0.
      99925    2    3    3    0    0  0.26162351015E+02  0.70332902286E+02 -0.27898171517E+03  0.39065516655E+03  0.26296287951E+03 0.  0.
         25    1    4    4    0    0  0.22708288179E+02  0.16609597554E+02 -0.18541098360E+03  0.22542467927E+03  0.12509000000E+03 0.  0.
         25    1    4    4    0    0  0.34540628355E+01  0.53723304732E+02 -0.93570731573E+02  0.16523048729E+03  0.12509000000E+03 0.  0.
         25    1    3    3    0    0 -0.26162351015E+02 -0.70332902286E+02 -0.80170022694E+01  0.14609232074E+03  0.12509000000E+03 0.  0.
<mgrwt>
<rscale>  2 0.45357425E+03</rscale>
<asrwt>0</asrwt>
<pdfrwt beam="1">  1       21 0.18363880E-01 0.45357425E+03</pdfrwt>
<pdfrwt beam="2">  1       21 0.60569573E-01 0.45357425E+03</pdfrwt>
<totfact> 0.63463947E+04</totfact>
</mgrwt>
</event>
<event>
 7    0  0.4775379E-002  0.4510758E+03  0.7546771E-02  0.1027402E+00
         21   -1    0    0  502  501  0.00000000000E+00  0.00000000000E+00  0.30296487518E+02  0.30296487518E+02  0.00000000000E+00 0. -1.
         21   -1    0    0  501  502 -0.00000000000E+00 -0.00000000000E+00 -0.16789851200E+04  0.16789851200E+04  0.00000000000E+00 0. -1.
      99926    2    1    2    0    0  0.00000000000E+00  0.00000000000E+00 -0.16486886324E+04  0.17092816075E+04  0.45107583278E+03 0.  0.
      99925    2    3    3    0    0 -0.38753366600E+02 -0.99226803591E+02 -0.11443247904E+04  0.11788306905E+04  0.26232573104E+03 0.  0.
         25    1    4    4    0    0 -0.47934253819E+02 -0.46445112011E+02 -0.69661525880E+03  0.71089743846E+03  0.12509000000E+03 0.  0.
         25    1    3    3    0    0  0.38753366600E+02  0.99226803591E+02 -0.50436384208E+03  0.53045091693E+03  0.12509000000E+03 0.  0.
         25    1    4    4    0    0  0.91808872187E+01 -0.52781691580E+02 -0.44770953156E+03  0.46793325209E+03  0.12509000000E+03 0.  0.
<mgrwt>
<rscale>  2 0.45107583E+03</rscale>
<asrwt>0</asrwt>
<pdfrwt beam="1">  1       21 0.44553670E-02 0.45107583E+03</pdfrwt>
<pdfrwt beam="2">  1       21 0.24690951E+00 0.45107583E+03</pdfrwt>
<totfact> 0.19661645E+04</totfact>
</mgrwt>
</event>
<event>
 7    0  0.4775379E-002  0.4577205E+03  0.7546771E-02  0.1025444E+00
         21   -1    0    0  502  501  0.00000000000E+00  0.00000000000E+00  0.53694203139E+02  0.53694203139E+02  0.00000000000E+00 0.  1.
         21   -1    0    0  501  502 -0.00000000000E+00 -0.00000000000E+00 -0.97546880431E+03  0.97546880431E+03  0.00000000000E+00 0.  1.
      99926    2    1    2    0    0 -0.14210854715E-13  0.00000000000E+00 -0.92177460117E+03  0.10291630074E+04  0.45772052667E+03 0.  0.
      99925    2    3    3    0    0  0.11119453865E+03 -0.23654360670E+02 -0.62782014516E+03  0.69007528353E+03  0.26291064654E+03 0.  0.
         25    1    4    4    0    0  0.19300642628E+02 -0.19096303172E+02 -0.33514606470E+03  0.35875838162E+03  0.12509000000E+03 0.  0.
         25    1    3    3    0    0 -0.11119453865E+03  0.23654360670E+02 -0.29395445600E+03  0.33908772391E+03  0.12509000000E+03 0.  0.
         25    1    4    4    0    0  0.91893896025E+02 -0.45580574984E+01 -0.29267408046E+03  0.33131690191E+03  0.12509000000E+03 0.  0.
<mgrwt>
<rscale>  2 0.45772053E+03</rscale>
<asrwt>0</asrwt>
<pdfrwt beam="1">  1       21 0.78962063E-02 0.45772053E+03</pdfrwt>
<pdfrwt beam="2">  1       21 0.14345130E+00 0.45772053E+03</pdfrwt>
<totfact> 0.37253825E+04</totfact>
</mgrwt>
</event>
<event>
 7    0  0.4775379E-002  0.4526822E+03  0.7546771E-02  0.1026925E+00
         21   -1    0    0  502  501  0.00000000000E+00  0.00000000000E+00  0.18492251036E+03  0.18492251036E+03  0.00000000000E+00 0.  1.
         21   -1    0    0  501  502 -0.00000000000E+00 -0.00000000000E+00 -0.27703658717E+03  0.27703658717E+03  0.00000000000E+00 0.  1.
      99926    2    1    2    0    0  0.00000000000E+00  0.00000000000E+00 -0.92114076806E+02  0.46195909753E+03  0.45268223363E+03 0.  0.
      99925    2    3    3    0    0  0.66057017458E+02 -0.62271283754E+02  0.69150799496E+01  0.27839569071E+03  0.26308762787E+03 0.  0.
         25    1    4    4    0    0  0.71275736571E+02 -0.19385821255E+02 -0.62314714850E+01  0.14540419535E+03  0.12509000000E+03 0.  0.
         25    1    3    3    0    0 -0.66057017458E+02  0.62271283754E+02 -0.99029156755E+02  0.18356340682E+03  0.12509000000E+03 0.  0.
         25    1    4    4    0    0 -0.52187191132E+01 -0.42885462499E+02  0.13146551435E+02  0.13299149536E+03  0.12509000000E+03 0.  0.
<mgrwt>
<rscale>  2 0.45268223E+03</rscale>
<asrwt>0</asrwt>
<pdfrwt beam="1">  1       21 0.27194487E-01 0.45268223E+03</pdfrwt>
<pdfrwt beam="2">  1       21 0.40740674E-01 0.45268223E+03</pdfrwt>
<totfact> 0.69304710E+04</totfact>
</mgrwt>
</event>
<event>
 7    0  0.4775379E-002  0.4635946E+03  0.7546771E-02  0.1023744E+00
         21   -1    0    0  502  501  0.00000000000E+00  0.00000000000E+00  0.41788416309E+02  0.41788416309E+02  0.00000000000E+00 0.  1.
         21   -1    0    0  501  502 -0.00000000000E+00 -0.00000000000E+00 -0.12857626874E+04  0.12857626874E+04  0.00000000000E+00 0.  1.
      99926    2    1    2    0    0  0.00000000000E+00 -0.14210854715E-13 -0.12439742711E+04  0.13275511037E+04  0.46359459210E+03 0.  0.
      99925    2    3    3    0    0  0.84167444958E+02 -0.73072844095E+02 -0.91114357997E+03  0.95492853812E+03  0.26321491269E+03 0.  0.
         25    1    4    4    0    0  0.71416917208E+02 -0.68860274947E+02 -0.53385058698E+03  0.55721276981E+03  0.12509000000E+03 0.  0.
         25    1    4    4    0    0  0.12750527750E+02 -0.42125691485E+01 -0.37729299299E+03  0.39771576831E+03  0.12509000000E+03 0.  0.
         25    1    3    3    0    0 -0.84167444958E+02  0.73072844095E+02 -0.33283069114E+03  0.37262256560E+03  0.12509000000E+03 0.  0.
<mgrwt>
<rscale>  2 0.46359459E+03</rscale>
<asrwt>0</asrwt>
<pdfrwt beam="1">  1       21 0.61453556E-02 0.46359459E+03</pdfrwt>
<pdfrwt beam="2">  1       21 0.18908274E+00 0.46359459E+03</pdfrwt>
<totfact> 0.26508636E+04</totfact>
</mgrwt>
</event>
<event>
 7    0  0.4775379E-002  0.4557063E+03  0.7546771E-02  0.1026034E+00
         21   -1    0    0  502  501  0.00000000000E+00  0.00000000000E+00  0.48796554820E+03  0.48796554820E+03  0.00000000000E+00 0. -1.
         21   -1    0    0  501  502 -0.00000000000E+00 -0.00000000000E+00 -0.10639494422E+03  0.10639494422E+03  0.00000000000E+00 0. -1.
      99926    2    1    2    0    0  0.00000000000E+00  0.00000000000E+00  0.38157060397E+03  0.59436049242E+03  0.45570634090E+03 0.  0.
      99925    2    3    3    0    0  0.50670543541E+02  0.56269360800E+02  0.35077899386E+03  0.44493032043E+03  0.26302726581E+03 0.  0.
         25    1    4    4    0    0  0.86615486660E+01  0.37540502092E+02  0.23214143661E+03  0.26649852986E+03  0.12509000000E+03 0.  0.
         25    1    3    3    0    0 -0.50670543541E+02 -0.56269360800E+02  0.30791610118E+02  0.14943017199E+03  0.12509000000E+03 0.  0.
         25    1    4    4    0    0  0.42008994875E+02  0.18728858708E+02  0.11863755724E+03  0.17843179057E+03  0.12509000000E+03 0.  0.
<mgrwt>
<rscale>  2 0.45570634E+03</rscale>
<asrwt>0</asrwt>
<pdfrwt beam="1">  1       21 0.71759639E-01 0.45570634E+03</pdfrwt>
<pdfrwt beam="2">  1       21 0.15646315E-01 0.45570634E+03</pdfrwt>
<totfact> 0.58698406E+04</totfact>
</mgrwt>
</event>
<event>
 7    0  0.4775379E-002  0.4563718E+03  0.7546771E-02  0.1025839E+00
         21   -1    0    0  502  501  0.00000000000E+00  0.00000000000E+00  0.26158159779E+03  0.26158159779E+03  0.00000000000E+00 0.  1.
         21   -1    0    0  501  502 -0.00000000000E+00 -0.00000000000E+00 -0.19905376968E+03  0.19905376968E+03  0.00000000000E+00 0.  1.
      99926    2    1    2    0    0 -0.17763568394E-14  0.00000000000E+00  0.62527828116E+02  0.46063536747E+03  0.45637179194E+03 0.  0.
      99925    2    3    3    0    0 -0.12513055925E+02 -0.94327643400E+02  0.10290574168E+03  0.29836348179E+03  0.26339494057E+03 0.  0.
         25    1    4    4    0    0 -0.44680999009E+02 -0.42377222592E+02  0.36523877035E+02  0.14413092090E+03  0.12509000000E+03 0.  0.
         25    1    4    4    0    0  0.32167943084E+02 -0.51950420807E+02  0.66381864647E+02  0.15423256089E+03  0.12509000000E+03 0.  0.
         25    1    3    3    0    0  0.12513055925E+02  0.94327643400E+02 -0.40377913566E+02  0.16227188568E+03  0.12509000000E+03 0.  0.
<mgrwt>
<rscale>  2 0.45637179E+03</rscale>
<asrwt>0</asrwt>
<pdfrwt beam="1">  1       21 0.38467882E-01 0.45637179E+03</pdfrwt>
<pdfrwt beam="2">  1       21 0.29272613E-01 0.45637179E+03</pdfrwt>
<totfact> 0.67393996E+04</totfact>
</mgrwt>
</event>
<event>
 7    0  0.4775379E-002  0.4562266E+03  0.7546771E-02  0.1025881E+00
         21   -1    0    0  502  501  0.00000000000E+00  0.00000000000E+00  0.24998920093E+03  0.24998920093E+03  0.00000000000E+00 0.  1.
         21   -1    0    0  501  502 -0.00000000000E+00 -0.00000000000E+00 -0.20815167450E+03  0.20815167450E+03  0.00000000000E+00 0.  1.
      99926    2    1    2    0    0  0.00000000000E+00  0.00000000000E+00  0.41837526431E+02  0.45814087542E+03  0.45622656993E+03 0.  0.
      99925    2    3    3    0    0  0.23644226001E+02  0.84616766980E+02 -0.47317440695E+02  0.28117996748E+03  0.26287675295E+03 0.  0.
         25    1    4    4    0    0 -0.26087169547E+02  0.32260401595E+02 -0.34157274004E+02  0.13614514826E+03  0.12509000000E+03 0.  0.
         25    1    3    3    0    0 -0.23644226001E+02 -0.84616766980E+02  0.89154967125E+02  0.17696090794E+03  0.12509000000E+03 0.  0.
         25    1    4    4    0    0  0.49731395548E+02  0.52356365385E+02 -0.13160166691E+02  0.14503481922E+03  0.12509000000E+03 0.  0.
<mgrwt>
<rscale>  2 0.45622657E+03</rscale>
<asrwt>0</asrwt>
<pdfrwt beam="1">  1       21 0.36763118E-01 0.45622657E+03</pdfrwt>
<pdfrwt beam="2">  1       21 0.30610540E-01 0.45622657E+03</pdfrwt>
<totfact> 0.67651827E+04</totfact>
</mgrwt>
</event>
<event>
 7    0  0.4775379E-002  0.4543094E+03  0.7546771E-02  0.1026445E+00
         21   -1    0    0  502  501  0.00000000000E+00  0.00000000000E+00  0.55678427583E+03  0.55678427583E+03  0.00000000000E+00 0. -1.
         21   -1    0    0  501  502 -0.00000000000E+00 -0.00000000000E+00 -0.92673698443E+02  0.92673698443E+02  0.00000000000E+00 0. -1.
      99926    2    1    2    0    0  0.00000000000E+00  0.00000000000E+00  0.46411057739E+03  0.64945797428E+03  0.45430940152E+03 0.  0.
      99925    2    3    3    0    0  0.13680692865E+02 -0.19049064341E+02  0.13493377774E+03  0.29653460903E+03  0.26301258861E+03 0.  0.
         25    1    3    3    0    0 -0.13680692865E+02  0.19049064341E+02  0.32917679965E+03  0.35292336525E+03  0.12509000000E+03 0.  0.
         25    1    4    4    0    0  0.88763242893E+01 -0.46474072200E+02  0.49935740951E+02  0.14275753866E+03  0.12509000000E+03 0.  0.
         25    1    4    4    0    0  0.48043685757E+01  0.27425007859E+02  0.84998036790E+02  0.15377707037E+03  0.12509000000E+03 0.  0.
<mgrwt>
<rscale>  2 0.45430940E+03</rscale>
<asrwt>0</asrwt>
<pdfrwt beam="1">  1       21 0.81880039E-01 0.45430940E+03</pdfrwt>
<pdfrwt beam="2">  1       21 0.13628485E-01 0.45430940E+03</pdfrwt>
<totfact> 0.56037405E+04</totfact>
</mgrwt>
</event>
<event>
 7    0  0.4775379E-002  0.4501817E+03  0.7546771E-02  0.1027668E+00
         21   -1    0    0  502  501  0.00000000000E+00  0.00000000000E+00  0.24282421806E+04  0.24282421806E+04  0.00000000000E+00 0. -1.
         21   -1    0    0  501  502 -0.00000000000E+00 -0.00000000000E+00 -0.20865250376E+02  0.20865250376E+02  0.00000000000E+00 0. -1.
      99926    2    1    2    0    0  0.35527136788E-14 -0.14210854715E-13  0.24073769302E+04  0.24491074310E+04  0.45018165698E+03 0.  0.
      99925    2    3    3    0    0 -0.25990696300E+02 -0.10141099924E+03  0.13645791693E+04  0.13936291577E+04  0.26299470119E+03 0.  0.
         25    1    4    4    0    0 -0.39167217903E+02 -0.75017726422E+02  0.62671381298E+03  0.64465451345E+03  0.12509000000E+03 0.  0.
         25    1    4    4    0    0  0.13176521603E+02 -0.26393272816E+02  0.73786535632E+03  0.74897464425E+03  0.12509000000E+03 0.  0.
         25    1    3    3    0    0  0.25990696300E+02  0.10141099924E+03  0.10427977609E+04  0.10554782733E+04  0.12509000000E+03 0.  0.
<mgrwt>
<rscale>  2 0.45018166E+03</rscale>
<asrwt>0</asrwt>
<pdfrwt beam="1">  1       21 0.35709424E+00 0.45018166E+03</pdfrwt>
<pdfrwt beam="2">  1       21 0.30684208E-02 0.45018166E+03</pdfrwt>
<totfact> 0.79607480E+03</totfact>
</mgrwt>
</event>
<event>
 7    0  0.4775379E-002  0.4566026E+03  0.7546771E-02  0.1025771E+00
         21   -1    0    0  502  501  0.00000000000E+00  0.00000000000E+00  0.18160607577E+03  0.18160607577E+03  0.00000000000E+00 0.  1.
         21   -1    0    0  501  502 -0.00000000000E+00 -0.00000000000E+00 -0.28700300426E+03  0.28700300426E+03  0.00000000000E+00 0.  1.
      99926    2    1    2    0    0  0.00000000000E+00  0.11102230246E-15 -0.10539692849E+03  0.46860908003E+03  0.45660262521E+03 0.  0.
      99925    2    3    3    0    0 -0.11253174090E+03  0.30389278948E+00 -0.47966087585E+02  0.29081905037E+03  0.26383989356E+03 0.  0.
         25    1    3    3    0    0  0.11253174090E+03 -0.30389278948E+00 -0.57430840908E+02  0.17779002967E+03  0.12509000000E+03 0.  0.
         25    1    4    4    0    0 -0.83011199611E+02  0.31949414413E+02 -0.13756362741E+02  0.15410506143E+03  0.12509000000E+03 0.  0.
         25    1    4    4    0    0 -0.29520541292E+02 -0.31645521623E+02 -0.34209724844E+02  0.13671398894E+03  0.12509000000E+03 0.  0.
<mgrwt>
<rscale>  2 0.45660263E+03</rscale>
<asrwt>0</asrwt>
<pdfrwt beam="1">  1       21 0.26706776E-01 0.45660263E+03</pdfrwt>
<pdfrwt beam="2">  1       21 0.42206323E-01 0.45660263E+03</pdfrwt>
<totfact> 0.66687721E+04</totfact>
</mgrwt>
</event>
<event>
 7    0  0.4775379E-002  0.4388499E+03  0.7546771E-02  0.1031100E+00
         21   -1    0    0  502  501  0.00000000000E+00  0.00000000000E+00  0.79197042910E+03  0.79197042910E+03  0.00000000000E+00 0. -1.
         21   -1    0    0  501  502 -0.00000000000E+00 -0.00000000000E+00 -0.60794326549E+02  0.60794326549E+02  0.00000000000E+00 0. -1.
      99926    2    1    2    0    0  0.17763568394E-14  0.00000000000E+00  0.73117610255E+03  0.85276475565E+03  0.43884990092E+03 0.  0.
      99925    2    3    3    0    0  0.12850909537E+02  0.73122985741E+02  0.58898762486E+03  0.64935092080E+03  0.26313129647E+03 0.  0.
         25    1    4    4    0    0 -0.28177130260E+02  0.42492919587E+02  0.24518644567E+03  0.27993481407E+03  0.12509000000E+03 0.  0.
         25    1    3    3    0    0 -0.12850909537E+02 -0.73122985741E+02  0.14218847769E+03  0.20341383484E+03  0.12509000000E+03 0.  0.
         25    1    4    4    0    0  0.41028039798E+02  0.30630066155E+02  0.34380117919E+03  0.36941610673E+03  0.12509000000E+03 0.  0.
<mgrwt>
<rscale>  2 0.43884990E+03</rscale>
<asrwt>0</asrwt>
<pdfrwt beam="1">  1       21 0.11646623E+00 0.43884990E+03</pdfrwt>
<pdfrwt beam="2">  1       21 0.89403426E-02 0.43884990E+03</pdfrwt>
<totfact> 0.51541568E+04</totfact>
</mgrwt>
</event>
<event>
 7    0  0.4775379E-002  0.4462744E+03  0.7546771E-02  0.1028839E+00
         21   -1    0    0  502  501  0.00000000000E+00  0.00000000000E+00  0.53786562650E+03  0.53786562650E+03  0.00000000000E+00 0.  1.
         21   -1    0    0  501  502 -0.00000000000E+00 -0.00000000000E+00 -0.92569989148E+02  0.92569989148E+02  0.00000000000E+00 0.  1.
      99926    2    1    2    0    0 -0.35527136788E-14  0.00000000000E+00  0.44529563736E+03  0.63043561565E+03  0.44627442324E+03 0.  0.
      99925    2    3    3    0    0 -0.22618228494E+02  0.29906526442E+02  0.14414917473E+03  0.30219380747E+03  0.26293749850E+03 0.  0.
         25    1    4    4    0    0 -0.23518614127E+02  0.29336953663E+02  0.32689979352E+02  0.13464740960E+03  0.12509000000E+03 0.  0.
         25    1    4    4    0    0  0.90038563285E+00  0.56957277907E+00  0.11145919537E+03  0.16754639788E+03  0.12509000000E+03 0.  0.
         25    1    3    3    0    0  0.22618228494E+02 -0.29906526442E+02  0.30114646263E+03  0.32824180818E+03  0.12509000000E+03 0.  0.
<mgrwt>
<rscale>  2 0.44627442E+03</rscale>
<asrwt>0</asrwt>
<pdfrwt beam="1">  1       21 0.79097885E-01 0.44627442E+03</pdfrwt>
<pdfrwt beam="2">  1       21 0.13613234E-01 0.44627442E+03</pdfrwt>
<totfact> 0.60932431E+04</totfact>
</mgrwt>
</event>
<event>
 7    0  0.4775379E-002  0.4534643E+03  0.7546771E-02  0.1026694E+00
         21   -1    0    0  502  501  0.00000000000E+00  0.00000000000E+00  0.77022006900E+03  0.77022006900E+03  0.00000000000E+00 0.  1.
         21   -1    0    0  501  502 -0.00000000000E+00 -0.00000000000E+00 -0.66743859080E+02  0.66743859080E+02  0.00000000000E+00 0.  1.
      99926    2    1    2    0    0  0.71054273576E-14  0.14210854715E-13  0.70347620992E+03  0.83696392808E+03  0.45346426428E+03 0.  0.
      99925    2    3    3    0    0  0.62377350396E+02  0.87424772716E+02  0.38643564698E+03  0.47961780543E+03  0.26299563741E+03 0.  0.
         25    1    4    4    0    0  0.32492736462E+02  0.25605095378E+02  0.12416562234E+03  0.18104145576E+03  0.12509000000E+03 0.  0.
         25    1    4    4    0    0  0.29884613935E+02  0.61819677338E+02  0.26227002464E+03  0.29857634967E+03  0.12509000000E+03 0.  0.
         25    1    3    3    0    0 -0.62377350396E+02 -0.87424772716E+02  0.31704056293E+03  0.35734612265E+03  0.12509000000E+03 0.  0.
<mgrwt>
<rscale>  2 0.45346426E+03</rscale>
<asrwt>0</asrwt>
<pdfrwt beam="1">  1       21 0.11326765E+00 0.45346426E+03</pdfrwt>
<pdfrwt beam="2">  1       21 0.98152738E-02 0.45346426E+03</pdfrwt>
<totfact> 0.46587061E+04</totfact>
</mgrwt>
</event>
<event>
 7    0  0.4775379E-002  0.4599202E+03  0.7546771E-02  0.1024804E+00
         21   -1    0    0  502  501  0.00000000000E+00  0.00000000000E+00  0.39545858240E+03  0.39545858240E+03  0.00000000000E+00 0.  1.
         21   -1    0    0  501  502 -0.00000000000E+00 -0.00000000000E+00 -0.13372231813E+03  0.13372231813E+03  0.00000000000E+00 0.  1.
      99926    2    1    2    0    0 -0.14210854715E-13  0.00000000000E+00  0.26173626427E+03  0.52918090053E+03  0.45992015987E+03 0.  0.
      99925    2    3    3    0    0  0.11625075651E+03  0.16080794730E+02  0.17366607573E+03  0.33636830614E+03  0.26307964795E+03 0.  0.
         25    1    3    3    0    0 -0.11625075651E+03 -0.16080794730E+02  0.88070188537E+02  0.19281259440E+03  0.12509000000E+03 0.  0.
         25    1    4    4    0    0  0.29792504962E+02  0.37625316024E+02  0.90904754291E+02  0.16190874038E+03  0.12509000000E+03 0.  0.
         25    1    4    4    0    0  0.86458251551E+02 -0.21544521294E+02  0.82761321440E+02  0.17445956576E+03  0.12509000000E+03 0.  0.
<mgrwt>
<rscale>  2 0.45992016E+03</rscale>
<asrwt>0</asrwt>
<pdfrwt beam="1">  1       21 0.58155674E-01 0.45992016E+03</pdfrwt>
<pdfrwt beam="2">  1       21 0.19665047E-01 0.45992016E+03</pdfrwt>
<totfact> 0.60853754E+04</totfact>
</mgrwt>
</event>
<event>
 7    0  0.4775379E-002  0.4563220E+03  0.7546771E-02  0.1025853E+00
         21   -1    0    0  502  501  0.00000000000E+00  0.00000000000E+00  0.26649686952E+03  0.26649686952E+03  0.00000000000E+00 0. -1.
         21   -1    0    0  501  502 -0.00000000000E+00 -0.00000000000E+00 -0.19533980338E+03  0.19533980338E+03  0.00000000000E+00 0. -1.
      99926    2    1    2    0    0  0.71054273576E-14 -0.71054273576E-14  0.71157066138E+02  0.46183667291E+03  0.45632201829E+03 0.  0.
      99925    2    3    3    0    0 -0.47658513654E+02  0.61418511862E+02  0.12964382138E+03  0.30336971685E+03  0.26302489836E+03 0.  0.
         25    1    3    3    0    0  0.47658513654E+02 -0.61418511862E+02 -0.58486755245E+02  0.15846695606E+03  0.12509000000E+03 0.  0.
         25    1    4    4    0    0 -0.34942435700E+02 -0.88859411646E+01  0.59111207247E+02  0.14297404200E+03  0.12509000000E+03 0.  0.
         25    1    4    4    0    0 -0.12716077954E+02  0.70304453026E+02  0.70532614136E+02  0.16039567485E+03  0.12509000000E+03 0.  0.
<mgrwt>
<rscale>  2 0.45632202E+03</rscale>
<asrwt>0</asrwt>
<pdfrwt beam="1">  1       21 0.39190716E-01 0.45632202E+03</pdfrwt>
<pdfrwt beam="2">  1       21 0.28726442E-01 0.45632202E+03</pdfrwt>
<totfact> 0.67334225E+04</totfact>
</mgrwt>
</event>
<event>
 7    0  0.4775379E-002  0.4515901E+03  0.7546771E-02  0.1027249E+00
         21   -1    0    0  502  501  0.00000000000E+00  0.00000000000E+00  0.40856720406E+03  0.40856720406E+03  0.00000000000E+00 0. -1.
         21   -1    0    0  501  502 -0.00000000000E+00 -0.00000000000E+00 -0.12478586791E+03  0.12478586791E+03  0.00000000000E+00 0. -1.
      99926    2    1    2    0    0 -0.35527136788E-14  0.00000000000E+00  0.28378133614E+03  0.53335307197E+03  0.45159013789E+03 0.  0.
      99925    2    3    3    0    0  0.25617141152E+02  0.59989003606E+02  0.74612154232E+02  0.28105528515E+03  0.26300224576E+03 0.  0.
         25    1    4    4    0    0  0.29531515678E+02  0.27805240853E+02 -0.66787268455E+00  0.13150359687E+03  0.12509000000E+03 0.  0.
         25    1    3    3    0    0 -0.25617141152E+02 -0.59989003606E+02  0.20916918191E+03  0.25229778682E+03  0.12509000000E+03 0.  0.
         25    1    4    4    0    0 -0.39143745261E+01  0.32183762753E+02  0.75280026917E+02  0.14955168827E+03  0.12509000000E+03 0.  0.
<mgrwt>
<rscale>  2 0.45159014E+03</rscale>
<asrwt>0</asrwt>
<pdfrwt beam="1">  1       21 0.60083412E-01 0.45159014E+03</pdfrwt>
<pdfrwt beam="2">  1       21 0.18350863E-01 0.45159014E+03</pdfrwt>
<totfact> 0.64709016E+04</totfact>
</mgrwt>
</event>
<event>
 7    0  0.4775379E-002  0.4566386E+03  0.7546771E-02  0.1025761E+00
         21   -1    0    0  502  501  0.00000000000E+00  0.00000000000E+00  0.11596394027E+03  0.11596394027E+03  0.00000000000E+00 0. -1.
         21   -1    0    0  501  502 -0.00000000000E+00 -0.00000000000E+00 -0.44953371600E+03  0.44953371600E+03  0.00000000000E+00 0. -1.
      99926    2    1    2    0    0 -0.71054273576E-14  0.22204460493E-15 -0.33356977572E+03  0.56549765627E+03  0.45663859229E+03 0.  0.
      99925    2    3    3    0    0  0.35852563646E+02  0.15865461814E+01 -0.74715545878E+02  0.27577202078E+03  0.26302066687E+03 0.  0.
         25    1    4    4    0    0 -0.36880419304E+01 -0.33648151272E+02 -0.34443786784E+02  0.13408833762E+03  0.12509000000E+03 0.  0.
         25    1    3    3    0    0 -0.35852563646E+02 -0.15865461814E+01 -0.25885422985E+03  0.28972563549E+03  0.12509000000E+03 0.  0.
         25    1    4    4    0    0  0.39540605576E+02  0.35234697453E+02 -0.40271759094E+02  0.14168368316E+03  0.12509000000E+03 0.  0.
<mgrwt>
<rscale>  2 0.45663859E+03</rscale>
<asrwt>0</asrwt>
<pdfrwt beam="1">  1       21 0.17053520E-01 0.45663859E+03</pdfrwt>
<pdfrwt beam="2">  1       21 0.66107901E-01 0.45663859E+03</pdfrwt>
<totfact> 0.60071604E+04</totfact>
</mgrwt>
</event>
<event>
 7    0  0.4775379E-002  0.4444243E+03  0.7546771E-02  0.1029398E+00
         21   -1    0    0  502  501  0.00000000000E+00  0.00000000000E+00  0.26817860276E+02  0.26817860276E+02  0.00000000000E+00 0. -1.
         21   -1    0    0  501  502 -0.00000000000E+00 -0.00000000000E+00 -0.18412445062E+04  0.18412445062E+04  0.00000000000E+00 0. -1.
      99926    2    1    2    0    0  0.00000000000E+00  0.00000000000E+00 -0.18144266459E+04  0.18680623664E+04  0.44442429231E+03 0.  0.
      99925    2    3    3    0    0 -0.83945040081E+02  0.37557680343E+02 -0.13477287595E+04  0.13762170916E+04  0.26295118361E+03 0.  0.
         25    1    3    3    0    0  0.83945040081E+02 -0.37557680343E+02 -0.46669788636E+03  0.49184527480E+03  0.12509000000E+03 0.  0.
         25    1    4    4    0    0 -0.11012502536E+01  0.59376780520E+01 -0.60318667450E+03  0.61605043720E+03  0.12509000000E+03 0.  0.
         25    1    4    4    0    0 -0.82843789827E+02  0.31620002291E+02 -0.74454208503E+03  0.76016665445E+03  0.12509000000E+03 0.  0.
<mgrwt>
<rscale>  2 0.44442429E+03</rscale>
<asrwt>0</asrwt>
<pdfrwt beam="1">  1       21 0.39438029E-02 0.44442429E+03</pdfrwt>
<pdfrwt beam="2">  1       21 0.27077126E+00 0.44442429E+03</pdfrwt>
<totfact> 0.17368225E+04</totfact>
</mgrwt>
</event>
<event>
 7    0  0.4775379E-002  0.4549944E+03  0.7546771E-02  0.1026243E+00
         21   -1    0    0  502  501  0.00000000000E+00  0.00000000000E+00  0.59586463356E+03  0.59586463356E+03  0.00000000000E+00 0. -1.
         21   -1    0    0  501  502 -0.00000000000E+00 -0.00000000000E+00 -0.86856932693E+02  0.86856932693E+02  0.00000000000E+00 0. -1.
      99926    2    1    2    0    0 -0.11102230246E-14  0.00000000000E+00  0.50900770086E+03  0.68272156625E+03  0.45499439281E+03 0.  0.
      99925    2    3    3    0    0  0.14073031166E+01  0.10364006304E+03  0.25145190803E+03  0.37821255540E+03  0.26281824868E+03 0.  0.
         25    1    3    3    0    0 -0.14073031166E+01 -0.10364006304E+03  0.25755579283E+03  0.30450901086E+03  0.12509000000E+03 0.  0.
         25    1    4    4    0    0  0.15863550528E+02  0.82989559252E+02  0.16742189734E+03  0.22542519599E+03  0.12509000000E+03 0.  0.
         25    1    4    4    0    0 -0.14456247411E+02  0.20650503792E+02  0.84030010691E+02  0.15278735940E+03  0.12509000000E+03 0.  0.
<mgrwt>
<rscale>  2 0.45499439E+03</rscale>
<asrwt>0</asrwt>
<pdfrwt beam="1">  1       21 0.87627150E-01 0.45499439E+03</pdfrwt>
<pdfrwt beam="2">  1       21 0.12773079E-01 0.45499439E+03</pdfrwt>
<totfact> 0.53853830E+04</totfact>
</mgrwt>
</event>
<event>
 7    0  0.4775379E-002  0.4212972E+03  0.7546771E-02  0.1036645E+00
         21   -1    0    0  502  501  0.00000000000E+00  0.00000000000E+00  0.95297421112E+02  0.95297421112E+02  0.00000000000E+00 0. -1.
         21   -1    0    0  501  502 -0.00000000000E+00 -0.00000000000E+00 -0.46562469864E+03  0.46562469864E+03  0.00000000000E+00 0. -1.
      99926    2    1    2    0    0 -0.44408920985E-15  0.14210854715E-13 -0.37032727753E+03  0.56092211975E+03  0.42129720144E+03 0.  0.
      99925    2    3    3    0    0  0.18588465057E+01 -0.77421221695E+02 -0.24235454884E+03  0.36592973973E+03  0.26300446041E+03 0.  0.
         25    1    3    3    0    0 -0.18588465057E+01  0.77421221695E+02 -0.12797272869E+03  0.19499238002E+03  0.12509000000E+03 0.  0.
         25    1    4    4    0    0  0.28382187393E+02 -0.69892079882E+02 -0.12977026050E+03  0.19539263036E+03  0.12509000000E+03 0.  0.
         25    1    4    4    0    0 -0.26523340888E+02 -0.75291418138E+01 -0.11258428834E+03  0.17053710936E+03  0.12509000000E+03 0.  0.
<mgrwt>
<rscale>  2 0.42129720E+03</rscale>
<asrwt>0</asrwt>
<pdfrwt beam="1">  1       21 0.14014326E-01 0.42129720E+03</pdfrwt>
<pdfrwt beam="2">  1       21 0.68474221E-01 0.42129720E+03</pdfrwt>
<totfact> 0.80575377E+04</totfact>
</mgrwt>
</event>
<event>
 7    0  0.4775379E-002  0.4499312E+03  0.7546771E-02  0.1027743E+00
         21   -1    0    0  502  501  0.00000000000E+00  0.00000000000E+00  0.10313993044E+04  0.10313993044E+04  0.00000000000E+00 0.  1.
         21   -1    0    0  501  502 -0.00000000000E+00 -0.00000000000E+00 -0.49068797211E+02  0.49068797211E+02  0.00000000000E+00 0.  1.
      99926    2    1    2    0    0  0.00000000000E+00  0.00000000000E+00  0.98233050723E+03  0.10804681016E+04  0.44993120947E+03 0.  0.
      99925    2    3    3    0    0 -0.61196707836E+02  0.74021891509E+02  0.74131287015E+03  0.79243809114E+03  0.26303817093E+03 0.  0.
         25    1    4    4    0    0 -0.52698446663E+02  0.50429790088E+02  0.30107026005E+03  0.33408247424E+03  0.12509000000E+03 0.  0.
         25    1    3    3    0    0  0.61196707836E+02 -0.74021891509E+02  0.24101763707E+03  0.28803001050E+03  0.12509000000E+03 0.  0.
         25    1    4    4    0    0 -0.84982611722E+01  0.23592101421E+02  0.44024261011E+03  0.45835561690E+03  0.12509000000E+03 0.  0.
<mgrwt>
<rscale>  2 0.44993121E+03</rscale>
<asrwt>0</asrwt>
<pdfrwt beam="1">  1       21 0.15167635E+00 0.44993121E+03</pdfrwt>
<pdfrwt beam="2">  1       21 0.72160002E-02 0.44993121E+03</pdfrwt>
<totfact> 0.37645900E+04</totfact>
</mgrwt>
</event>
<event>
 7    0  0.4775379E-002  0.4507881E+03  0.7546771E-02  0.1027487E+00
         21   -1    0    0  502  501  0.00000000000E+00  0.00000000000E+00  0.38318985487E+03  0.38318985487E+03  0.00000000000E+00 0. -1.
         21   -1    0    0  501  502 -0.00000000000E+00 -0.00000000000E+00 -0.13257784302E+03  0.13257784302E+03  0.00000000000E+00 0. -1.
      99926    2    1    2    0    0  0.00000000000E+00  0.00000000000E+00  0.25061201185E+03  0.51576769789E+03  0.45078812950E+03 0.  0.
      99925    2    3    3    0    0 -0.58593024410E+02 -0.64449829200E+02  0.23385045408E+03  0.36242044192E+03  0.26282240935E+03 0.  0.
         25    1    4    4    0    0 -0.79144251667E+01 -0.23842687334E+02  0.15557075523E+03  0.20119860797E+03  0.12509000000E+03 0.  0.
         25    1    3    3    0    0  0.58593024410E+02  0.64449829200E+02  0.16761557773E+02  0.15334725597E+03  0.12509000000E+03 0.  0.
         25    1    4    4    0    0 -0.50678599244E+02 -0.40607141866E+02  0.78279698851E+02  0.16122183396E+03  0.12509000000E+03 0.  0.
<mgrwt>
<rscale>  2 0.45078813E+03</rscale>
<asrwt>0</asrwt>
<pdfrwt beam="1">  1       21 0.56351449E-01 0.45078813E+03</pdfrwt>
<pdfrwt beam="2">  1       21 0.19496742E-01 0.45078813E+03</pdfrwt>
<totfact> 0.66366803E+04</totfact>
</mgrwt>
</event>
<event>
 7    0  0.4775379E-002  0.4490756E+03  0.7546771E-02  0.1027998E+00
         21   -1    0    0  502  501  0.00000000000E+00  0.00000000000E+00  0.52721559624E+03  0.52721559624E+03  0.00000000000E+00 0. -1.
         21   -1    0    0  501  502 -0.00000000000E+00 -0.00000000000E+00 -0.95629240395E+02  0.95629240395E+02  0.00000000000E+00 0. -1.
      99926    2    1    2    0    0  0.00000000000E+00  0.00000000000E+00  0.43158635585E+03  0.62284483664E+03  0.44907561498E+03 0.  0.
      99925    2    3    3    0    0 -0.12611798120E+02  0.77130776174E+02  0.37548185887E+03  0.46503660882E+03  0.26299088790E+03 0.  0.
         25    1    4    4    0    0  0.29125646198E+02  0.17537546102E+02  0.18027562526E+03  0.22204206347E+03  0.12509000000E+03 0.  0.
         25    1    3    3    0    0  0.12611798120E+02 -0.77130776174E+02  0.56104496981E+02  0.15780822782E+03  0.12509000000E+03 0.  0.
         25    1    4    4    0    0 -0.41737444317E+02  0.59593230071E+02  0.19520623361E+03  0.24299454535E+03  0.12509000000E+03 0.  0.
<mgrwt>
<rscale>  2 0.44907561E+03</rscale>
<asrwt>0</asrwt>
<pdfrwt beam="1">  1       21 0.77531704E-01 0.44907561E+03</pdfrwt>
<pdfrwt beam="2">  1       21 0.14063124E-01 0.44907561E+03</pdfrwt>
<totfact> 0.60053863E+04</totfact>
</mgrwt>
</event>
<event>
 7    0  0.4775379E-002  0.4393084E+03  0.7546771E-02  0.1030959E+00
         21   -1    0    0  502  501  0.00000000000E+00  0.00000000000E+00  0.10451860403E+04  0.10451860403E+04  0.00000000000E+00 0.  1.
         21   -1    0    0  501  502 -0.00000000000E+00 -0.00000000000E+00 -0.46162092359E+02  0.46162092359E+02  0.00000000000E+00 0.  1.
      99926    2    1    2    0    0  0.00000000000E+00 -0.71054273576E-14  0.99902394796E+03  0.10913481327E+04  0.43930843163E+03 0.  0.
      99925    2    3    3    0    0  0.49201576082E+02  0.47799250062E+02  0.46559400698E+03  0.53917010574E+03  0.26309895514E+03 0.  0.
         25    1    3    3    0    0 -0.49201576082E+02 -0.47799250062E+02  0.53342994098E+03  0.55217802693E+03  0.12509000000E+03 0.  0.
         25    1    4    4    0    0  0.46682693728E+02 -0.39686094082E+01  0.19187225452E+03  0.23378942215E+03  0.12509000000E+03 0.  0.
         25    1    4    4    0    0  0.25188823539E+01  0.51767859470E+02  0.27372175246E+03  0.30538068359E+03  0.12509000000E+03 0.  0.
<mgrwt>
<rscale>  2 0.43930843E+03</rscale>
<asrwt>0</asrwt>
<pdfrwt beam="1">  1       21 0.15370381E+00 0.43930843E+03</pdfrwt>
<pdfrwt beam="2">  1       21 0.67885437E-02 0.43930843E+03</pdfrwt>
<totfact> 0.40535309E+04</totfact>
</mgrwt>
</event>
<event>
 7    0  0.4775379E-002  0.4595406E+03  0.7546771E-02  0.1024915E+00
         21   -1    0    0  502  501  0.00000000000E+00  0.00000000000E+00  0.10899076107E+03  0.10899076107E+03  0.00000000000E+00 0. -1.
         21   -1    0    0  501  502 -0.00000000000E+00 -0.00000000000E+00 -0.48439325663E+03  0.48439325663E+03  0.00000000000E+00 0. -1.
      99926    2    1    2    0    0  0.00000000000E+00  0.00000000000E+00 -0.37540249556E+03  0.59338401770E+03  0.45954059537E+03 0.  0.
      99925    2    3    3    0    0 -0.33503652997E+02 -0.11187439538E+03 -0.22038426176E+03  0.36248028015E+03  0.26302919146E+03 0.  0.
         25    1    4    4    0    0 -0.15170715156E+01 -0.50738019708E+02 -0.60094017919E+02  0.14776822135E+03  0.12509000000E+03 0.  0.
         25    1    4    4    0    0 -0.31986581481E+02 -0.61136375673E+02 -0.16029024384E+03  0.21471205881E+03  0.12509000000E+03 0.  0.
         25    1    3    3    0    0  0.33503652997E+02  0.11187439538E+03 -0.15501823380E+03  0.23090373755E+03  0.12509000000E+03 0.  0.
<mgrwt>
<rscale>  2 0.45954060E+03</rscale>
<asrwt>0</asrwt>
<pdfrwt beam="1">  1       21 0.16028053E-01 0.45954060E+03</pdfrwt>
<pdfrwt beam="2">  1       21 0.71234303E-01 0.45954060E+03</pdfrwt>
<totfact> 0.57013767E+04</totfact>
</mgrwt>
</event>
<event>
 7    0  0.4775379E-002  0.4500868E+03  0.7546771E-02  0.1027696E+00
         21   -1    0    0  502  501  0.00000000000E+00  0.00000000000E+00  0.26282119052E+03  0.26282119052E+03  0.00000000000E+00 0. -1.
         21   -1    0    0  501  502 -0.00000000000E+00 -0.00000000000E+00 -0.19269576124E+03  0.19269576124E+03  0.00000000000E+00 0. -1.
      99926    2    1    2    0    0  0.00000000000E+00  0.00000000000E+00  0.70125429274E+02  0.45551695176E+03  0.45008678887E+03 0.  0.
      99925    2    3    3    0    0  0.17636760701E+02  0.94243462725E+02 -0.63526535613E+01  0.28033335993E+03  0.26335062348E+03 0.  0.
         25    1    4    4    0    0  0.54207536735E+01  0.39688623935E+01  0.29886920866E+01  0.12530593290E+03  0.12509000000E+03 0.  0.
         25    1    4    4    0    0  0.12216007027E+02  0.90274600332E+02 -0.93413456478E+01  0.15502742703E+03  0.12509000000E+03 0.  0.
         25    1    3    3    0    0 -0.17636760701E+02 -0.94243462725E+02  0.76478082835E+02  0.17518359184E+03  0.12509000000E+03 0.  0.
<mgrwt>
<rscale>  2 0.45008679E+03</rscale>
<asrwt>0</asrwt>
<pdfrwt beam="1">  1       21 0.38650175E-01 0.45008679E+03</pdfrwt>
<pdfrwt beam="2">  1       21 0.28337612E-01 0.45008679E+03</pdfrwt>
<totfact> 0.71259860E+04</totfact>
</mgrwt>
</event>
<event>
 7    0  0.4775379E-002  0.4562033E+03  0.7546771E-02  0.1025888E+00
         21   -1    0    0  502  501  0.00000000000E+00  0.00000000000E+00  0.57224957164E+02  0.57224957164E+02  0.00000000000E+00 0. -1.
         21   -1    0    0  501  502 -0.00000000000E+00 -0.00000000000E+00 -0.90922505953E+03  0.90922505953E+03  0.00000000000E+00 0. -1.
      99926    2    1    2    0    0 -0.11102230246E-15  0.71054273576E-14 -0.85200010236E+03  0.96645001669E+03  0.45620331031E+03 0.  0.
      99925    2    3    3    0    0  0.95901827266E+00  0.47305848144E+02 -0.31512347158E+03  0.41316637536E+03  0.26299218316E+03 0.  0.
         25    1    4    4    0    0 -0.31280645842E+02  0.86931364974E+01 -0.18594799739E+03  0.22644693696E+03  0.12509000000E+03 0.  0.
         25    1    3    3    0    0 -0.95901827266E+00 -0.47305848144E+02 -0.53687663078E+03  0.55328364133E+03  0.12509000000E+03 0.  0.
         25    1    4    4    0    0  0.32239664115E+02  0.38612711646E+02 -0.12917547419E+03  0.18671943840E+03  0.12509000000E+03 0.  0.
<mgrwt>
<rscale>  2 0.45620331E+03</rscale>
<asrwt>0</asrwt>
<pdfrwt beam="1">  1       21 0.84154348E-02 0.45620331E+03</pdfrwt>
<pdfrwt beam="2">  1       21 0.13370957E+00 0.45620331E+03</pdfrwt>
<totfact> 0.40103190E+04</totfact>
</mgrwt>
</event>
<event>
 7    0  0.4775379E-002  0.4455150E+03  0.7546771E-02  0.1029068E+00
         21   -1    0    0  502  501  0.00000000000E+00  0.00000000000E+00  0.27706713682E+03  0.27706713682E+03  0.00000000000E+00 0.  1.
         21   -1    0    0  501  502 -0.00000000000E+00 -0.00000000000E+00 -0.17909340074E+03  0.17909340074E+03  0.00000000000E+00 0.  1.
      99926    2    1    2    0    0  0.00000000000E+00  0.00000000000E+00  0.97973736083E+02  0.45616053756E+03  0.44551496390E+03 0.  0.
      99925    2    3    3    0    0  0.72478485537E+02  0.55192968187E+02  0.11671504861E+03  0.30028193255E+03  0.26124211345E+03 0.  0.
         25    1    4    4    0    0  0.24610725629E+02  0.53122412483E+02  0.86500039053E+02  0.16296454639E+03  0.12509000000E+03 0.  0.
         25    1    3    3    0    0 -0.72478485537E+02 -0.55192968187E+02 -0.18741312528E+02  0.15587860501E+03  0.12509000000E+03 0.  0.
         25    1    4    4    0    0  0.47867759909E+02  0.20705557042E+01  0.30215009558E+02  0.13731738616E+03  0.12509000000E+03 0.  0.
<mgrwt>
<rscale>  2 0.44551496E+03</rscale>
<asrwt>0</asrwt>
<pdfrwt beam="1">  1       21 0.40745167E-01 0.44551496E+03</pdfrwt>
<pdfrwt beam="2">  1       21 0.26337265E-01 0.44551496E+03</pdfrwt>
<totfact> 0.73883423E+04</totfact>
</mgrwt>
</event>
<event>
 7    0  0.4775379E-002  0.4539980E+03  0.7546771E-02  0.1026536E+00
         21   -1    0    0  502  501  0.00000000000E+00  0.00000000000E+00  0.48451432617E+03  0.48451432617E+03  0.00000000000E+00 0. -1.
         21   -1    0    0  501  502 -0.00000000000E+00 -0.00000000000E+00 -0.10635090052E+03  0.10635090052E+03  0.00000000000E+00 0. -1.
      99926    2    1    2    0    0  0.00000000000E+00  0.00000000000E+00  0.37816342565E+03  0.59086522668E+03  0.45399795110E+03 0.  0.
      99925    2    3    3    0    0 -0.10291075097E+03  0.32555731184E+02  0.27822276876E+03  0.39776902968E+03  0.26298629929E+03 0.  0.
         25    1    3    3    0    0  0.10291075097E+03 -0.32555731184E+02  0.99940656885E+02  0.19309619700E+03  0.12509000000E+03 0.  0.
         25    1    4    4    0    0 -0.25540874432E+02  0.33863650480E+02  0.94449351395E+02  0.16238002084E+03  0.12509000000E+03 0.  0.
         25    1    4    4    0    0 -0.77369876542E+02 -0.13079192953E+01  0.18377341737E+03  0.23538900884E+03  0.12509000000E+03 0.  0.
<mgrwt>
<rscale>  2 0.45399795E+03</rscale>
<asrwt>0</asrwt>
<pdfrwt beam="1">  1       21 0.71252106E-01 0.45399795E+03</pdfrwt>
<pdfrwt beam="2">  1       21 0.15639839E-01 0.45399795E+03</pdfrwt>
<totfact> 0.59715601E+04</totfact>
</mgrwt>
</event>
<event>
 7    0  0.4775379E-002  0.4630821E+03  0.7546771E-02  0.1023891E+00
         21   -1    0    0  502  501  0.00000000000E+00  0.00000000000E+00  0.61069613599E+03  0.61069613599E+03  0.00000000000E+00 0. -1.
         21   -1    0    0  501  502 -0.00000000000E+00 -0.00000000000E+00 -0.87787112986E+02  0.87787112986E+02  0.00000000000E+00 0. -1.
      99926    2    1    2    0    0  0.00000000000E+00  0.88817841970E-15  0.52290902301E+03  0.69848324898E+03  0.46308206914E+03 0.  0.
      99925    2    3    3    0    0  0.85583438441E+02 -0.56964203221E+01  0.45456330490E+03  0.53212333968E+03  0.26300280668E+03 0.  0.
         25    1    4    4    0    0  0.59759692224E+02  0.33850159482E+02  0.24531008795E+03  0.28379852266E+03  0.12509000000E+03 0.  0.
         25    1    4    4    0    0  0.25823746216E+02 -0.39546579804E+02  0.20925321695E+03  0.24832481702E+03  0.12509000000E+03 0.  0.
         25    1    3    3    0    0 -0.85583438441E+02  0.56964203221E+01  0.68345718101E+02  0.16635990930E+03  0.12509000000E+03 0.  0.
<mgrwt>
<rscale>  2 0.46308207E+03</rscale>
<asrwt>0</asrwt>
<pdfrwt beam="1">  1       21 0.89808253E-01 0.46308207E+03</pdfrwt>
<pdfrwt beam="2">  1       21 0.12909870E-01 0.46308207E+03</pdfrwt>
<totfact> 0.49744853E+04</totfact>
</mgrwt>
</event>
<event>
 7    0  0.4775379E-002  0.4586024E+03  0.7546771E-02  0.1025187E+00
         21   -1    0    0  502  501  0.00000000000E+00  0.00000000000E+00  0.65629489861E+02  0.65629489861E+02  0.00000000000E+00 0.  1.
         21   -1    0    0  501  502 -0.00000000000E+00 -0.00000000000E+00 -0.80114955898E+03  0.80114955898E+03  0.00000000000E+00 0.  1.
      99926    2    1    2    0    0  0.00000000000E+00  0.00000000000E+00 -0.73552006912E+03  0.86677904884E+03  0.45860238490E+03 0.  0.
      99925    2    3    3    0    0 -0.82053933368E+02 -0.24279007535E+02 -0.61047211343E+03  0.67029287246E+03  0.26323756457E+03 0.  0.
         25    1    4    4    0    0 -0.41207173694E+01 -0.27255320910E+02 -0.25173376494E+03  0.28244863133E+03  0.12509000000E+03 0.  0.
         25    1    3    3    0    0  0.82053933368E+02  0.24279007535E+02 -0.12504795569E+03  0.19648617638E+03  0.12509000000E+03 0.  0.
         25    1    4    4    0    0 -0.77933215999E+02  0.29763133745E+01 -0.35873834849E+03  0.38784424113E+03  0.12509000000E+03 0.  0.
<mgrwt>
<rscale>  2 0.45860238E+03</rscale>
<asrwt>0</asrwt>
<pdfrwt beam="1">  1       21 0.96513958E-02 0.45860238E+03</pdfrwt>
<pdfrwt beam="2">  1       21 0.11781611E+00 0.45860238E+03</pdfrwt>
<totfact> 0.43456899E+04</totfact>
</mgrwt>
</event>
<event>
 7    0  0.4775379E-002  0.4528423E+03  0.7546771E-02  0.1026878E+00
         21   -1    0    0  502  501  0.00000000000E+00  0.00000000000E+00  0.31227021010E+03  0.31227021010E+03  0.00000000000E+00 0.  1.
         21   -1    0    0  501  502 -0.00000000000E+00 -0.00000000000E+00 -0.16417360965E+03  0.16417360965E+03  0.00000000000E+00 0.  1.
      99926    2    1    2    0    0  0.00000000000E+00  0.00000000000E+00  0.14809660045E+03  0.47644381975E+03  0.45284225765E+03 0.  0.
      99925    2    3    3    0    0 -0.65857795781E+02 -0.88144160180E+02  0.10964106814E+03  0.30546727661E+03  0.26302557103E+03 0.  0.
         25    1    3    3    0    0  0.65857795781E+02  0.88144160180E+02  0.38455532313E+02  0.17097654314E+03  0.12509000000E+03 0.  0.
         25    1    4    4    0    0 -0.42987451091E+02 -0.25676677449E+02  0.16107159019E+02  0.13569878919E+03  0.12509000000E+03 0.  0.
         25    1    4    4    0    0 -0.22870344690E+02 -0.62467482732E+02  0.93533909117E+02  0.16976848742E+03  0.12509000000E+03 0.  0.
<mgrwt>
<rscale>  2 0.45284226E+03</rscale>
<asrwt>0</asrwt>
<pdfrwt beam="1">  1       21 0.45922090E-01 0.45284226E+03</pdfrwt>
<pdfrwt beam="2">  1       21 0.24143178E-01 0.45284226E+03</pdfrwt>
<totfact> 0.68119004E+04</totfact>
</mgrwt>
</event>
<event>
 7    0  0.4775379E-002  0.4486960E+03  0.7546771E-02  0.1028112E+00
         21   -1    0    0  502  501  0.00000000000E+00  0.00000000000E+00  0.13318768133E+03  0.13318768133E+03  0.00000000000E+00 0.  1.
         21   -1    0    0  501  502 -0.00000000000E+00 -0.00000000000E+00 -0.37790308161E+03  0.37790308161E+03  0.00000000000E+00 0.  1.
      99926    2    1    2    0    0  0.00000000000E+00  0.00000000000E+00 -0.24471540028E+03  0.51109076294E+03  0.44869604504E+03 0.  0.
      99925    2    3    3    0    0 -0.69568740147E+02  0.70657952406E+02 -0.10849816465E+03  0.30124558376E+03  0.26295378712E+03 0.  0.
         25    1    4    4    0    0 -0.11612815110E+02  0.46019959665E+01 -0.68782950219E+02  0.14329912136E+03  0.12509000000E+03 0.  0.
         25    1    3    3    0    0  0.69568740147E+02 -0.70657952406E+02 -0.13621723563E+03  0.20984517918E+03  0.12509000000E+03 0.  0.
         25    1    4    4    0    0 -0.57955925037E+02  0.66055956440E+02 -0.39715214433E+02  0.15794646240E+03  0.12509000000E+03 0.  0.
<mgrwt>
<rscale>  2 0.44869605E+03</rscale>
<asrwt>0</asrwt>
<pdfrwt beam="1">  1       21 0.19586424E-01 0.44869605E+03</pdfrwt>
<pdfrwt beam="2">  1       21 0.55573983E-01 0.44869605E+03</pdfrwt>
<totfact> 0.67828299E+04</totfact>
</mgrwt>
</event>
<event>
 7    0  0.4775379E-002  0.4499079E+03  0.7546771E-02  0.1027750E+00
         21   -1    0    0  502  501  0.00000000000E+00  0.00000000000E+00  0.26095664731E+02  0.26095664731E+02  0.00000000000E+00 0.  1.
         21   -1    0    0  501  502 -0.00000000000E+00 -0.00000000000E+00 -0.19391834286E+04  0.19391834286E+04  0.00000000000E+00 0.  1.
      99926    2    1    2    0    0  0.00000000000E+00  0.00000000000E+00 -0.19130877638E+04  0.19652790933E+04  0.44990790437E+03 0.  0.
      99925    2    3    3    0    0 -0.15148641308E+02  0.81473933902E+02 -0.15153112192E+04  0.15401424437E+04  0.26268454983E+03 0.  0.
         25    1    4    4    0    0 -0.51674186858E+01  0.82460820813E+02 -0.83813968227E+03  0.85144120424E+03  0.12509000000E+03 0.  0.
         25    1    3    3    0    0  0.15148641308E+02 -0.81473933902E+02 -0.39777654463E+03  0.42513664956E+03  0.12509000000E+03 0.  0.
         25    1    4    4    0    0 -0.99812226221E+01 -0.98688691134E+00 -0.67717153694E+03  0.68870123950E+03  0.12509000000E+03 0.  0.
<mgrwt>
<rscale>  2 0.44990790E+03</rscale>
<asrwt>0</asrwt>
<pdfrwt beam="1">  1       21 0.38375970E-02 0.44990790E+03</pdfrwt>
<pdfrwt beam="2">  1       21 0.28517409E+00 0.44990790E+03</pdfrwt>
<totfact> 0.14863959E+04</totfact>
</mgrwt>
</event>
<event>
 7    0  0.4775379E-002  0.4479244E+03  0.7546771E-02  0.1028343E+00
         21   -1    0    0  502  501  0.00000000000E+00  0.00000000000E+00  0.75245795529E+03  0.75245795529E+03  0.00000000000E+00 0. -1.
         21   -1    0    0  501  502 -0.00000000000E+00 -0.00000000000E+00 -0.66660286721E+02  0.66660286721E+02  0.00000000000E+00 0. -1.
      99926    2    1    2    0    0  0.00000000000E+00 -0.35527136788E-14  0.68579766857E+03  0.81911824201E+03  0.44792438221E+03 0.  0.
      99925    2    3    3    0    0  0.86934507327E+02  0.18265954930E+02  0.32737702173E+03  0.42924118209E+03  0.26302285903E+03 0.  0.
         25    1    4    4    0    0  0.16725586346E+02  0.16582270892E+02  0.20177796543E+03  0.23857194382E+03  0.12509000000E+03 0.  0.
         25    1    3    3    0    0 -0.86934507327E+02 -0.18265954930E+02  0.35842064683E+03  0.38987705992E+03  0.12509000000E+03 0.  0.
         25    1    4    4    0    0  0.70208920981E+02  0.16836840382E+01  0.12559905631E+03  0.19066923827E+03  0.12509000000E+03 0.  0.
<mgrwt>
<rscale>  2 0.44792438E+03</rscale>
<asrwt>0</asrwt>
<pdfrwt beam="1">  1       21 0.11065558E+00 0.44792438E+03</pdfrwt>
<pdfrwt beam="2">  1       21 0.98029838E-02 0.44792438E+03</pdfrwt>
<totfact> 0.49548134E+04</totfact>
</mgrwt>
</event>
<event>
 7    0  0.4775379E-002  0.4786701E+03  0.7546771E-02  0.1019501E+00
         21   -1    0    0  502  501  0.00000000000E+00  0.00000000000E+00  0.73258231387E+02  0.73258231387E+02  0.00000000000E+00 0. -1.
         21   -1    0    0  501  502 -0.00000000000E+00 -0.00000000000E+00 -0.78190887911E+03  0.78190887911E+03  0.00000000000E+00 0. -1.
      99926    2    1    2    0    0  0.00000000000E+00  0.00000000000E+00 -0.70865064772E+03  0.85516711049E+03  0.47867008091E+03 0.  0.
      99925    2    3    3    0    0 -0.97646158667E+02 -0.86919128615E+02 -0.49071412395E+03  0.57191184803E+03  0.26304581968E+03 0.  0.
         25    1    4    4    0    0 -0.79625102557E+02 -0.75137831655E+02 -0.29587798042E+03  0.33937757454E+03  0.12509000000E+03 0.  0.
         25    1    4    4    0    0 -0.18021056110E+02 -0.11781296960E+02 -0.19483614353E+03  0.23253427349E+03  0.12509000000E+03 0.  0.
         25    1    3    3    0    0  0.97646158667E+02  0.86919128615E+02 -0.21793652377E+03  0.28325526246E+03  0.12509000000E+03 0.  0.
<mgrwt>
<rscale>  2 0.47867008E+03</rscale>
<asrwt>0</asrwt>
<pdfrwt beam="1">  1       21 0.10773269E-01 0.47867008E+03</pdfrwt>
<pdfrwt beam="2">  1       21 0.11498660E+00 0.47867008E+03</pdfrwt>
<totfact> 0.37704932E+04</totfact>
</mgrwt>
</event>
<event>
 7    0  0.4775379E-002  0.4560660E+03  0.7546771E-02  0.1025928E+00
         21   -1    0    0  502  501  0.00000000000E+00  0.00000000000E+00  0.10160929372E+04  0.10160929372E+04  0.00000000000E+00 0.  1.
         21   -1    0    0  501  502 -0.00000000000E+00 -0.00000000000E+00 -0.51175493560E+02  0.51175493560E+02  0.00000000000E+00 0.  1.
      99926    2    1    2    0    0  0.00000000000E+00  0.00000000000E+00  0.96491744360E+03  0.10672684307E+04  0.45606603716E+03 0.  0.
      99925    2    3    3    0    0  0.10611923219E+03 -0.41276547199E+02  0.58319248531E+03  0.64974418392E+03  0.26284783587E+03 0.  0.
         25    1    4    4    0    0  0.44740165650E+02 -0.19456322829E+02  0.37469871190E+03  0.39802872223E+03  0.12509000000E+03 0.  0.
         25    1    3    3    0    0 -0.10611923219E+03  0.41276547199E+02  0.38172495828E+03  0.41752424680E+03  0.12509000000E+03 0.  0.
         25    1    4    4    0    0  0.61379066538E+02 -0.21820224370E+02  0.20849377341E+03  0.25171546169E+03  0.12509000000E+03 0.  0.
<mgrwt>
<rscale>  2 0.45606604E+03</rscale>
<asrwt>0</asrwt>
<pdfrwt beam="1">  1       21 0.14942542E+00 0.45606604E+03</pdfrwt>
<pdfrwt beam="2">  1       21 0.75258085E-02 0.45606604E+03</pdfrwt>
<totfact> 0.36346760E+04</totfact>
</mgrwt>
</event>
<event>
 7    0  0.4775379E-002  0.4515272E+03  0.7546771E-02  0.1027268E+00
         21   -1    0    0  502  501  0.00000000000E+00  0.00000000000E+00  0.40642010067E+03  0.40642010067E+03  0.00000000000E+00 0.  1.
         21   -1    0    0  501  502 -0.00000000000E+00 -0.00000000000E+00 -0.12541015957E+03  0.12541015957E+03  0.00000000000E+00 0.  1.
      99926    2    1    2    0    0  0.00000000000E+00  0.00000000000E+00  0.28100994111E+03  0.53183026024E+03  0.45152722920E+03 0.  0.
      99925    2    3    3    0    0 -0.55189957398E+02 -0.63863019196E+02  0.26025537941E+03  0.37950601217E+03  0.26299721320E+03 0.  0.
         25    1    3    3    0    0  0.55189957398E+02  0.63863019196E+02  0.20754561700E+02  0.15232424807E+03  0.12509000000E+03 0.  0.
         25    1    4    4    0    0 -0.22463860722E+02 -0.21284640381E+02  0.18035409525E+03  0.22165912733E+03  0.12509000000E+03 0.  0.
         25    1    4    4    0    0 -0.32726096676E+02 -0.42578378815E+02  0.79901284158E+02  0.15784688485E+03  0.12509000000E+03 0.  0.
<mgrwt>
<rscale>  2 0.45152723E+03</rscale>
<asrwt>0</asrwt>
<pdfrwt beam="1">  1       21 0.59767662E-01 0.45152723E+03</pdfrwt>
<pdfrwt beam="2">  1       21 0.18442671E-01 0.45152723E+03</pdfrwt>
<totfact> 0.64847670E+04</totfact>
</mgrwt>
</event>
<event>
 7    0  0.4775379E-002  0.4528835E+03  0.7546771E-02  0.1026866E+00
         21   -1    0    0  502  501  0.00000000000E+00  0.00000000000E+00  0.41380019841E+03  0.41380019841E+03  0.00000000000E+00 0. -1.
         21   -1    0    0  501  502 -0.00000000000E+00 -0.00000000000E+00 -0.12391454876E+03  0.12391454876E+03  0.00000000000E+00 0. -1.
      99926    2    1    2    0    0  0.14210854715E-13  0.00000000000E+00  0.28988564965E+03  0.53771474718E+03  0.45288349435E+03 0.  0.
      99925    2    3    3    0    0  0.71544351355E+02  0.80347100659E+02  0.21935773269E+03  0.35828245921E+03  0.26205773198E+03 0.  0.
         25    1    3    3    0    0 -0.71544351355E+02 -0.80347100659E+02  0.70527916963E+02  0.17943228797E+03  0.12509000000E+03 0.  0.
         25    1    4    4    0    0  0.70978136124E+02  0.24855682102E+02  0.12360095704E+03  0.19126004659E+03  0.12509000000E+03 0.  0.
         25    1    4    4    0    0  0.56621523033E+00  0.55491418557E+02  0.95756775652E+02  0.16702241262E+03  0.12509000000E+03 0.  0.
<mgrwt>
<rscale>  2 0.45288349E+03</rscale>
<asrwt>0</asrwt>
<pdfrwt beam="1">  1       21 0.60852970E-01 0.45288349E+03</pdfrwt>
<pdfrwt beam="2">  1       21 0.18222728E-01 0.45288349E+03</pdfrwt>
<totfact> 0.63746821E+04</totfact>
</mgrwt>
</event>
<event>
 7    0  0.4775379E-002  0.4674880E+03  0.7546771E-02  0.1022632E+00
         21   -1    0    0  502  501  0.00000000000E+00  0.00000000000E+00  0.10566210389E+04  0.10566210389E+04  0.00000000000E+00 0. -1.
         21   -1    0    0  501  502 -0.00000000000E+00 -0.00000000000E+00 -0.51708461836E+02  0.51708461836E+02  0.00000000000E+00 0. -1.
      99926    2    1    2    0    0  0.00000000000E+00  0.00000000000E+00  0.10049125771E+04  0.11083295008E+04  0.46748796205E+03 0.  0.
      99925    2    3    3    0    0  0.79493087576E+02 -0.86679014599E+02  0.72275161903E+03  0.77803460692E+03  0.26293638814E+03 0.  0.
         25    1    3    3    0    0 -0.79493087576E+02  0.86679014599E+02  0.28216095805E+03  0.33029489384E+03  0.12509000000E+03 0.  0.
         25    1    4    4    0    0  0.10456884371E+02 -0.19995052742E+02  0.26542124914E+03  0.29428743800E+03  0.12509000000E+03 0.  0.
         25    1    4    4    0    0  0.69036203204E+02 -0.66683961857E+02  0.45733036989E+03  0.48374716893E+03  0.12509000000E+03 0.  0.
<mgrwt>
<rscale>  2 0.46748796E+03</rscale>
<asrwt>0</asrwt>
<pdfrwt beam="1">  1       21 0.15538543E+00 0.46748796E+03</pdfrwt>
<pdfrwt beam="2">  1       21 0.76041862E-02 0.46748796E+03</pdfrwt>
<totfact> 0.31975521E+04</totfact>
</mgrwt>
</event>
<event>
 7    0  0.4775379E-002  0.4479576E+03  0.7546771E-02  0.1028333E+00
         21   -1    0    0  502  501  0.00000000000E+00  0.00000000000E+00  0.22648404006E+04  0.22648404006E+04  0.00000000000E+00 0. -1.
         21   -1    0    0  501  502 -0.00000000000E+00 -0.00000000000E+00 -0.22150129975E+02  0.22150129975E+02  0.00000000000E+00 0. -1.
      99926    2    1    2    0    0  0.00000000000E+00  0.00000000000E+00  0.22426902706E+04  0.22869905305E+04  0.44795762855E+03 0.  0.
      99925    2    3    3    0    0  0.56548906292E+02 -0.89091374541E+02  0.13530039518E+04  0.13823777372E+04  0.26308451697E+03 0.  0.
         25    1    3    3    0    0 -0.56548906292E+02  0.89091374541E+02  0.88968631883E+03  0.90461279331E+03  0.12509000000E+03 0.  0.
         25    1    4    4    0    0  0.36615970026E+02 -0.43830918896E+01  0.57707475206E+03  0.59162717849E+03  0.12509000000E+03 0.  0.
         25    1    4    4    0    0  0.19932936266E+02 -0.84708282651E+02  0.77592919970E+03  0.79075055874E+03  0.12509000000E+03 0.  0.
<mgrwt>
<rscale>  2 0.44795763E+03</rscale>
<asrwt>0</asrwt>
<pdfrwt beam="1">  1       21 0.33306461E+00 0.44795763E+03</pdfrwt>
<pdfrwt beam="2">  1       21 0.32573736E-02 0.44795763E+03</pdfrwt>
<totfact> 0.10106250E+04</totfact>
</mgrwt>
</event>
<event>
 7    0  0.4775379E-002  0.4509558E+03  0.7546771E-02  0.1027437E+00
         21   -1    0    0  502  501  0.00000000000E+00  0.00000000000E+00  0.13450241385E+03  0.13450241385E+03  0.00000000000E+00 0.  1.
         21   -1    0    0  501  502 -0.00000000000E+00 -0.00000000000E+00 -0.37798792150E+03  0.37798792150E+03  0.00000000000E+00 0.  1.
      99926    2    1    2    0    0  0.71054273576E-14  0.00000000000E+00 -0.24348550765E+03  0.51249033535E+03  0.45095581978E+03 0.  0.
      99925    2    3    3    0    0  0.45866361834E+02  0.39075597545E+02 -0.50081674125E+02  0.27440804623E+03  0.26298474534E+03 0.  0.
         25    1    4    4    0    0  0.12756274931E+02  0.21225214129E+02 -0.64659154664E+02  0.14297393695E+03  0.12509000000E+03 0.  0.
         25    1    3    3    0    0 -0.45866361834E+02 -0.39075597545E+02 -0.19340383353E+03  0.23808228912E+03  0.12509000000E+03 0.  0.
         25    1    4    4    0    0  0.33110086903E+02  0.17850383416E+02  0.14577480539E+02  0.13143410928E+03  0.12509000000E+03 0.  0.
<mgrwt>
<rscale>  2 0.45095582E+03</rscale>
<asrwt>0</asrwt>
<pdfrwt beam="1">  1       21 0.19779767E-01 0.45095582E+03</pdfrwt>
<pdfrwt beam="2">  1       21 0.55586458E-01 0.45095582E+03</pdfrwt>
<totfact> 0.66510696E+04</totfact>
</mgrwt>
</event>
<event>
 6    0  0.5304271E-002  0.4145033E+03  0.7546771E-02  0.1038870E+00
         21   -1    0    0  502  501  0.00000000000E+00  0.00000000000E+00  0.14224681891E+04  0.14224681891E+04  0.00000000000E+00 0. -1.
         21   -1    0    0  501  502 -0.00000000000E+00 -0.00000000000E+00 -0.30196275522E+02  0.30196275522E+02  0.00000000000E+00 0. -1.
      99926    2    1    2    0    0 -0.35527136788E-14  0.71054273576E-14  0.13922719136E+04  0.14526644646E+04  0.41450327554E+03 0.  0.
         25    1    3    3    0    0 -0.22833995961E+02 -0.61633707049E+02  0.46430453626E+03  0.48533114026E+03  0.12509000000E+03 0.  0.
         25    1    3    3    0    0 -0.16008043142E+02  0.28936279933E+02  0.57623760450E+03  0.59058517649E+03  0.12509000000E+03 0.  0.
         25    1    3    3    0    0  0.38842039102E+02  0.32697427116E+02  0.35172977281E+03  0.37674814787E+03  0.12509000000E+03 0.  0.
<mgrwt>
<rscale>  2 0.41450328E+03</rscale>
<asrwt>0</asrwt>
<pdfrwt beam="1">  1       21 0.20918645E+00 0.41450328E+03</pdfrwt>
<pdfrwt beam="2">  1       21 0.44406297E-02 0.41450328E+03</pdfrwt>
<totfact> 0.34648087E+04</totfact>
</mgrwt>
</event>
<event>
 7    0  0.4775379E-002  0.4516737E+03  0.7546771E-02  0.1027224E+00
         21   -1    0    0  502  501  0.00000000000E+00  0.00000000000E+00  0.23686955496E+03  0.23686955496E+03  0.00000000000E+00 0.  1.
         21   -1    0    0  501  502 -0.00000000000E+00 -0.00000000000E+00 -0.21531806436E+03  0.21531806436E+03  0.00000000000E+00 0.  1.
      99926    2    1    2    0    0  0.00000000000E+00  0.00000000000E+00  0.21551490603E+02  0.45218761932E+03  0.45167374987E+03 0.  0.
      99925    2    3    3    0    0  0.59781116348E+02 -0.44063733207E+02  0.94740354895E+02  0.28933949249E+03  0.26310874675E+03 0.  0.
         25    1    4    4    0    0  0.20652836159E+02 -0.33038244028E+02  0.69478873104E+01  0.13120154895E+03  0.12509000000E+03 0.  0.
         25    1    3    3    0    0 -0.59781116348E+02  0.44063733207E+02 -0.73188864292E+02  0.16284812683E+03  0.12509000000E+03 0.  0.
         25    1    4    4    0    0  0.39128280190E+02 -0.11025489179E+02  0.87792467585E+02  0.15813794354E+03  0.12509000000E+03 0.  0.
<mgrwt>
<rscale>  2 0.45167375E+03</rscale>
<asrwt>0</asrwt>
<pdfrwt beam="1">  1       21 0.34833758E-01 0.45167375E+03</pdfrwt>
<pdfrwt beam="2">  1       21 0.31664421E-01 0.45167375E+03</pdfrwt>
<totfact> 0.70607727E+04</totfact>
</mgrwt>
</event>
<event>
 7    0  0.4775379E-002  0.4483545E+03  0.7546771E-02  0.1028214E+00
         21   -1    0    0  502  501  0.00000000000E+00  0.00000000000E+00  0.30882596631E+03  0.30882596631E+03  0.00000000000E+00 0. -1.
         21   -1    0    0  501  502 -0.00000000000E+00 -0.00000000000E+00 -0.16273063133E+03  0.16273063133E+03  0.00000000000E+00 0. -1.
      99926    2    1    2    0    0  0.00000000000E+00  0.00000000000E+00  0.14609533498E+03  0.47155659764E+03  0.44835452253E+03 0.  0.
      99925    2    3    3    0    0 -0.54000859366E+02  0.67050541939E+02  0.15893666539E+03  0.31916146696E+03  0.26304241180E+03 0.  0.
         25    1    4    4    0    0 -0.12121025790E+02  0.82398186698E+01  0.10831796321E+03  0.16611773876E+03  0.12509000000E+03 0.  0.
         25    1    4    4    0    0 -0.41879833575E+02  0.58810723269E+02  0.50618702177E+02  0.15304372820E+03  0.12509000000E+03 0.  0.
         25    1    3    3    0    0  0.54000859366E+02 -0.67050541939E+02 -0.12841330410E+02  0.15239513067E+03  0.12509000000E+03 0.  0.
<mgrwt>
<rscale>  2 0.44835452E+03</rscale>
<asrwt>0</asrwt>
<pdfrwt beam="1">  1       21 0.45415584E-01 0.44835452E+03</pdfrwt>
<pdfrwt beam="2">  1       21 0.23930975E-01 0.44835452E+03</pdfrwt>
<totfact> 0.70990759E+04</totfact>
</mgrwt>
</event>
<event>
 7    0  0.4775379E-002  0.4570822E+03  0.7546771E-02  0.1025631E+00
         21   -1    0    0  502  501  0.00000000000E+00  0.00000000000E+00  0.21063773202E+03  0.21063773202E+03  0.00000000000E+00 0. -1.
         21   -1    0    0  501  502 -0.00000000000E+00 -0.00000000000E+00 -0.24796614464E+03  0.24796614464E+03  0.00000000000E+00 0. -1.
      99926    2    1    2    0    0 -0.35527136788E-14  0.00000000000E+00 -0.37328412628E+02  0.45860387666E+03  0.45708216471E+03 0.  0.
      99925    2    3    3    0    0  0.28605067672E+02 -0.95498509586E+02 -0.81107007870E+02  0.29276573650E+03  0.26304983276E+03 0.  0.
         25    1    4    4    0    0  0.51675173842E+02 -0.31860507446E+02 -0.37845273893E+02  0.14410131291E+03  0.12509000000E+03 0.  0.
         25    1    3    3    0    0 -0.28605067672E+02  0.95498509586E+02  0.43778595242E+02  0.16583814016E+03  0.12509000000E+03 0.  0.
         25    1    4    4    0    0 -0.23070106169E+02 -0.63638002140E+02 -0.43261733977E+02  0.14866442359E+03  0.12509000000E+03 0.  0.
<mgrwt>
<rscale>  2 0.45708216E+03</rscale>
<asrwt>0</asrwt>
<pdfrwt beam="1">  1       21 0.30976137E-01 0.45708216E+03</pdfrwt>
<pdfrwt beam="2">  1       21 0.36465609E-01 0.45708216E+03</pdfrwt>
<totfact> 0.67159930E+04</totfact>
</mgrwt>
</event>
<event>
 7    0  0.4775379E-002  0.4620149E+03  0.7546771E-02  0.1024198E+00
         21   -1    0    0  502  501  0.00000000000E+00  0.00000000000E+00  0.15009834586E+03  0.15009834586E+03  0.00000000000E+00 0.  1.
         21   -1    0    0  501  502 -0.00000000000E+00 -0.00000000000E+00 -0.35552979131E+03  0.35552979131E+03  0.00000000000E+00 0.  1.
      99926    2    1    2    0    0  0.14210854715E-13  0.14210854715E-13 -0.20543144545E+03  0.50562813717E+03  0.46201486374E+03 0.  0.
      99925    2    3    3    0    0  0.96626280219E+02  0.68992586988E+02 -0.11270731076E+03  0.30981728879E+03  0.26303459743E+03 0.  0.
         25    1    3    3    0    0 -0.96626280219E+02 -0.68992586988E+02 -0.92724134688E+02  0.19581084838E+03  0.12509000000E+03 0.  0.
         25    1    4    4    0    0  0.24425687847E+02  0.13525349074E+02 -0.20752008145E+02  0.12983721823E+03  0.12509000000E+03 0.  0.
         25    1    4    4    0    0  0.72200592372E+02  0.55467237914E+02 -0.91955302619E+02  0.17998007056E+03  0.12509000000E+03 0.  0.
<mgrwt>
<rscale>  2 0.46201486E+03</rscale>
<asrwt>0</asrwt>
<pdfrwt beam="1">  1       21 0.22073286E-01 0.46201486E+03</pdfrwt>
<pdfrwt beam="2">  1       21 0.52283793E-01 0.46201486E+03</pdfrwt>
<totfact> 0.61386984E+04</totfact>
</mgrwt>
</event>
<event>
 7    0  0.4775379E-002  0.4502697E+03  0.7546771E-02  0.1027642E+00
         21   -1    0    0  502  501  0.00000000000E+00  0.00000000000E+00  0.22977959697E+03  0.22977959697E+03  0.00000000000E+00 0. -1.
         21   -1    0    0  501  502 -0.00000000000E+00 -0.00000000000E+00 -0.22058400780E+03  0.22058400780E+03  0.00000000000E+00 0. -1.
      99926    2    1    2    0    0  0.00000000000E+00  0.00000000000E+00  0.91955891689E+01  0.45036360478E+03  0.45026971656E+03 0.  0.
      99925    2    3    3    0    0 -0.34763195250E+02 -0.81470497443E+02  0.68936912109E+02  0.28585690137E+03  0.26289912232E+03 0.  0.
         25    1    3    3    0    0  0.34763195250E+02  0.81470497443E+02 -0.59741322940E+02  0.16450670340E+03  0.12509000000E+03 0.  0.
         25    1    4    4    0    0 -0.34808304510E+02 -0.14332521016E+02  0.65783125243E+01  0.13079687121E+03  0.12509000000E+03 0.  0.
         25    1    4    4    0    0  0.45109260518E-01 -0.67137976428E+02  0.62358599585E+02  0.15506003017E+03  0.12509000000E+03 0.  0.
<mgrwt>
<rscale>  2 0.45026972E+03</rscale>
<asrwt>0</asrwt>
<pdfrwt beam="1">  1       21 0.33791117E-01 0.45026972E+03</pdfrwt>
<pdfrwt beam="2">  1       21 0.32438824E-01 0.45026972E+03</pdfrwt>
<totfact> 0.71549369E+04</totfact>
</mgrwt>
</event>
<event>
 7    0  0.4775379E-002  0.4576808E+03  0.7546771E-02  0.1025456E+00
         21   -1    0    0  502  501  0.00000000000E+00  0.00000000000E+00  0.36900313318E+03  0.36900313318E+03  0.00000000000E+00 0.  1.
         21   -1    0    0  501  502 -0.00000000000E+00 -0.00000000000E+00 -0.14191727865E+03  0.14191727865E+03  0.00000000000E+00 0.  1.
      99926    2    1    2    0    0  0.00000000000E+00  0.35527136788E-14  0.22708585453E+03  0.51092041184E+03  0.45768076418E+03 0.  0.
      99925    2    3    3    0    0  0.68326667277E+02 -0.21575392772E+02  0.24392621700E+03  0.36578207458E+03  0.26298763413E+03 0.  0.
         25    1    3    3    0    0 -0.68326667277E+02  0.21575392772E+02 -0.16840362473E+02  0.14513833726E+03  0.12509000000E+03 0.  0.
         25    1    4    4    0    0  0.11747502638E+02 -0.40384386557E+02  0.96760468955E+02  0.16364290070E+03  0.12509000000E+03 0.  0.
         25    1    4    4    0    0  0.56579164639E+02  0.18808993784E+02  0.14716574805E+03  0.20213917388E+03  0.12509000000E+03 0.  0.
<mgrwt>
<rscale>  2 0.45768076E+03</rscale>
<asrwt>0</asrwt>
<pdfrwt beam="1">  1       21 0.54265167E-01 0.45768076E+03</pdfrwt>
<pdfrwt beam="2">  1       21 0.20870188E-01 0.45768076E+03</pdfrwt>
<totfact> 0.63155664E+04</totfact>
</mgrwt>
</event>
<event>
 7    0  0.4775379E-002  0.4549204E+03  0.7546771E-02  0.1026265E+00
         21   -1    0    0  502  501  0.00000000000E+00  0.00000000000E+00  0.47759110917E+03  0.47759110917E+03  0.00000000000E+00 0. -1.
         21   -1    0    0  501  502 -0.00000000000E+00 -0.00000000000E+00 -0.10833144569E+03  0.10833144569E+03  0.00000000000E+00 0. -1.
      99926    2    1    2    0    0  0.00000000000E+00  0.00000000000E+00  0.36925966348E+03  0.58592255486E+03  0.45492036800E+03 0.  0.
      99925    2    3    3    0    0  0.44227380751E+02 -0.10380118630E+03  0.24039814616E+03  0.37382930596E+03  0.26310897710E+03 0.  0.
         25    1    4    4    0    0  0.60117283956E+02 -0.37344927300E+02  0.11832997561E+03  0.18616719006E+03  0.12509000000E+03 0.  0.
         25    1    4    4    0    0 -0.15889903204E+02 -0.66456258996E+02  0.12206817055E+03  0.18766211590E+03  0.12509000000E+03 0.  0.
         25    1    3    3    0    0 -0.44227380751E+02  0.10380118630E+03  0.12886151732E+03  0.21209324890E+03  0.12509000000E+03 0.  0.
<mgrwt>
<rscale>  2 0.45492037E+03</rscale>
<asrwt>0</asrwt>
<pdfrwt beam="1">  1       21 0.70233986E-01 0.45492037E+03</pdfrwt>
<pdfrwt beam="2">  1       21 0.15931095E-01 0.45492037E+03</pdfrwt>
<totfact> 0.59590745E+04</totfact>
</mgrwt>
</event>
<event>
 7    0  0.4775379E-002  0.4490367E+03  0.7546771E-02  0.1028010E+00
         21   -1    0    0  502  501  0.00000000000E+00  0.00000000000E+00  0.74269985918E+03  0.74269985918E+03  0.00000000000E+00 0. -1.
         21   -1    0    0  501  502 -0.00000000000E+00 -0.00000000000E+00 -0.67871943413E+02  0.67871943413E+02  0.00000000000E+00 0. -1.
      99926    2    1    2    0    0  0.00000000000E+00 -0.71054273576E-14  0.67482791576E+03  0.81057180259E+03  0.44903667028E+03 0.  0.
      99925    2    3    3    0    0  0.47541144398E+02  0.41010931371E+02  0.26937501613E+03  0.38164101700E+03  0.26295419685E+03 0.  0.
         25    1    4    4    0    0 -0.96336374373E+01  0.32625715721E+02  0.15862555507E+03  0.20485804626E+03  0.12509000000E+03 0.  0.
         25    1    4    4    0    0  0.57174781836E+02  0.83852156507E+01  0.11074946106E+03  0.17678297074E+03  0.12509000000E+03 0.  0.
         25    1    3    3    0    0 -0.47541144398E+02 -0.41010931371E+02  0.40545289963E+03  0.42893078558E+03  0.12509000000E+03 0.  0.
<mgrwt>
<rscale>  2 0.44903667E+03</rscale>
<asrwt>0</asrwt>
<pdfrwt beam="1">  1       21 0.10922056E+00 0.44903667E+03</pdfrwt>
<pdfrwt beam="2">  1       21 0.99811685E-02 0.44903667E+03</pdfrwt>
<totfact> 0.49535386E+04</totfact>
</mgrwt>
</event>
<event>
 7    0  0.4775379E-002  0.4610082E+03  0.7546771E-02  0.1024489E+00
         21   -1    0    0  502  501  0.00000000000E+00  0.00000000000E+00  0.56194603523E+03  0.56194603523E+03  0.00000000000E+00 0. -1.
         21   -1    0    0  501  502 -0.00000000000E+00 -0.00000000000E+00 -0.94550258518E+02  0.94550258518E+02  0.00000000000E+00 0. -1.
      99926    2    1    2    0    0  0.00000000000E+00 -0.14210854715E-13  0.46739577672E+03  0.65649629375E+03  0.46100821209E+03 0.  0.
      99925    2    3    3    0    0  0.40524933854E+01  0.90394286403E+02  0.18303492795E+03  0.33292844905E+03  0.26296771212E+03 0.  0.
         25    1    4    4    0    0  0.63418134218E+01  0.10917858102E+02  0.11279595018E+03  0.16890782309E+03  0.12509000000E+03 0.  0.
         25    1    4    4    0    0 -0.22893200364E+01  0.79476428301E+02  0.70238977768E+02  0.16402062596E+03  0.12509000000E+03 0.  0.
         25    1    3    3    0    0 -0.40524933854E+01 -0.90394286403E+02  0.28436084877E+03  0.32356784471E+03  0.12509000000E+03 0.  0.
<mgrwt>
<rscale>  2 0.46100821E+03</rscale>
<asrwt>0</asrwt>
<pdfrwt beam="1">  1       21 0.82639121E-01 0.46100821E+03</pdfrwt>
<pdfrwt beam="2">  1       21 0.13904450E-01 0.46100821E+03</pdfrwt>
<totfact> 0.52782547E+04</totfact>
</mgrwt>
</event>
<event>
 7    0  0.4775379E-002  0.4528406E+03  0.7546771E-02  0.1026878E+00
         21   -1    0    0  502  501  0.00000000000E+00  0.00000000000E+00  0.24720563914E+02  0.24720563914E+02  0.00000000000E+00 0. -1.
         21   -1    0    0  501  502 -0.00000000000E+00 -0.00000000000E+00 -0.20738265841E+04  0.20738265841E+04  0.00000000000E+00 0. -1.
      99926    2    1    2    0    0  0.00000000000E+00  0.00000000000E+00 -0.20491060202E+04  0.20985471480E+04  0.45284064578E+03 0.  0.
      99925    2    3    3    0    0  0.69574974970E+02 -0.85138305748E+02 -0.12478169817E+04  0.12801335365E+04  0.26382843507E+03 0.  0.
         25    1    4    4    0    0  0.77529714013E+01 -0.46161612769E+02 -0.45538354678E+03  0.47456578663E+03  0.12509000000E+03 0.  0.
         25    1    4    4    0    0  0.61822003569E+02 -0.38976692979E+02 -0.79243343495E+03  0.80556774988E+03  0.12509000000E+03 0.  0.
         25    1    3    3    0    0 -0.69574974970E+02  0.85138305748E+02 -0.80128903843E+03  0.81841361148E+03  0.12509000000E+03 0.  0.
<mgrwt>
<rscale>  2 0.45284065E+03</rscale>
<asrwt>0</asrwt>
<pdfrwt beam="1">  1       21 0.36353768E-02 0.45284065E+03</pdfrwt>
<pdfrwt beam="2">  1       21 0.30497452E+00 0.45284065E+03</pdfrwt>
<totfact> 0.12372875E+04</totfact>
</mgrwt>
</event>
<event>
 7    0  0.4775379E-002  0.4574187E+03  0.7546771E-02  0.1025533E+00
         21   -1    0    0  502  501  0.00000000000E+00  0.00000000000E+00  0.67360296545E+02  0.67360296545E+02  0.00000000000E+00 0.  1.
         21   -1    0    0  501  502 -0.00000000000E+00 -0.00000000000E+00 -0.77653997326E+03  0.77653997326E+03  0.00000000000E+00 0.  1.
      99926    2    1    2    0    0  0.00000000000E+00  0.00000000000E+00 -0.70917967671E+03  0.84390026980E+03  0.45741868295E+03 0.  0.
      99925    2    3    3    0    0  0.10999360710E+03 -0.34194806371E+02 -0.43165258516E+03  0.51842112603E+03  0.26299929896E+03 0.  0.
         25    1    4    4    0    0  0.77812024151E+02 -0.51613912178E+02 -0.25301047574E+03  0.29728860720E+03  0.12509000000E+03 0.  0.
         25    1    3    3    0    0 -0.10999360710E+03  0.34194806371E+02 -0.27752709155E+03  0.32547914377E+03  0.12509000000E+03 0.  0.
         25    1    4    4    0    0  0.32181582950E+02  0.17419105807E+02 -0.17864210942E+03  0.22113251883E+03  0.12509000000E+03 0.  0.
<mgrwt>
<rscale>  2 0.45741868E+03</rscale>
<asrwt>0</asrwt>
<pdfrwt beam="1">  1       21 0.99059267E-02 0.45741868E+03</pdfrwt>
<pdfrwt beam="2">  1       21 0.11419705E+00 0.45741868E+03</pdfrwt>
<totfact> 0.44856270E+04</totfact>
</mgrwt>
</event>
<event>
 7    0  0.4775379E-002  0.4585303E+03  0.7546771E-02  0.1025208E+00
         21   -1    0    0  502  501  0.00000000000E+00  0.00000000000E+00  0.13386810654E+03  0.13386810654E+03  0.00000000000E+00 0. -1.
         21   -1    0    0  501  502 -0.00000000000E+00 -0.00000000000E+00 -0.39264403767E+03  0.39264403767E+03  0.00000000000E+00 0. -1.
      99926    2    1    2    0    0  0.71054273576E-14 -0.14210854715E-13 -0.25877593112E+03  0.52651214421E+03  0.45853032122E+03 0.  0.
      99925    2    3    3    0    0  0.37297962440E+02 -0.89185129082E+02 -0.23682331442E+03  0.36690465463E+03  0.26303729409E+03 0.  0.
         25    1    4    4    0    0  0.93529756811E+01 -0.17103012512E+02 -0.14940900136E+03  0.19583296193E+03  0.12509000000E+03 0.  0.
         25    1    4    4    0    0  0.27944986758E+02 -0.72082116570E+02 -0.87414313066E+02  0.17107169270E+03  0.12509000000E+03 0.  0.
         25    1    3    3    0    0 -0.37297962440E+02  0.89185129082E+02 -0.21952616701E+02  0.15960748958E+03  0.12509000000E+03 0.  0.
<mgrwt>
<rscale>  2 0.45853032E+03</rscale>
<asrwt>0</asrwt>
<pdfrwt beam="1">  1       21 0.19686486E-01 0.45853032E+03</pdfrwt>
<pdfrwt beam="2">  1       21 0.57741770E-01 0.45853032E+03</pdfrwt>
<totfact> 0.61698369E+04</totfact>
</mgrwt>
</event>
<event>
 7    0  0.4775379E-002  0.4626104E+03  0.7546771E-02  0.1024027E+00
         21   -1    0    0  502  501  0.00000000000E+00  0.00000000000E+00  0.14944970988E+03  0.14944970988E+03  0.00000000000E+00 0. -1.
         21   -1    0    0  501  502 -0.00000000000E+00 -0.00000000000E+00 -0.35799401184E+03  0.35799401184E+03  0.00000000000E+00 0. -1.
      99926    2    1    2    0    0 -0.26645352591E-14  0.17763568394E-14 -0.20854430196E+03  0.50744372172E+03  0.46261042447E+03 0.  0.
      99925    2    3    3    0    0 -0.40060591464E+01  0.13376511786E+02 -0.26149190276E+03  0.37089359866E+03  0.26265769880E+03 0.  0.
         25    1    4    4    0    0 -0.38983759986E+02  0.21760559486E+02 -0.12839680734E+03  0.18473360205E+03  0.12509000000E+03 0.  0.
         25    1    4    4    0    0  0.34977700839E+02 -0.83840477005E+01 -0.13309509541E+03  0.18615999660E+03  0.12509000000E+03 0.  0.
         25    1    3    3    0    0  0.40060591464E+01 -0.13376511786E+02  0.52947600797E+02  0.13655012306E+03  0.12509000000E+03 0.  0.
<mgrwt>
<rscale>  2 0.46261042E+03</rscale>
<asrwt>0</asrwt>
<pdfrwt beam="1">  1       21 0.21977899E-01 0.46261042E+03</pdfrwt>
<pdfrwt beam="2">  1       21 0.52646177E-01 0.46261042E+03</pdfrwt>
<totfact> 0.60982840E+04</totfact>
</mgrwt>
</event>
<event>
 7    0  0.4775379E-002  0.4555189E+03  0.7546771E-02  0.1026089E+00
         21   -1    0    0  502  501  0.00000000000E+00  0.00000000000E+00  0.57000196920E+02  0.57000196920E+02  0.00000000000E+00 0.  1.
         21   -1    0    0  501  502 -0.00000000000E+00 -0.00000000000E+00 -0.91007364970E+03  0.91007364970E+03  0.00000000000E+00 0.  1.
      99926    2    1    2    0    0  0.00000000000E+00  0.00000000000E+00 -0.85307345278E+03  0.96707384662E+03  0.45551894470E+03 0.  0.
      99925    2    3    3    0    0  0.85041817206E+02  0.65694387517E+02 -0.45930320638E+03  0.54016591945E+03  0.26319559633E+03 0.  0.
         25    1    3    3    0    0 -0.85041817206E+02 -0.65694387517E+02 -0.39377024640E+03  0.42690792716E+03  0.12509000000E+03 0.  0.
         25    1    4    4    0    0  0.49294753729E+02  0.38416299081E+02 -0.31111515075E+03  0.34109519186E+03  0.12509000000E+03 0.  0.
         25    1    4    4    0    0  0.35747063477E+02  0.27278088437E+02 -0.14818805563E+03  0.19907072760E+03  0.12509000000E+03 0.  0.
<mgrwt>
<rscale>  2 0.45551894E+03</rscale>
<asrwt>0</asrwt>
<pdfrwt beam="1">  1       21 0.83823825E-02 0.45551894E+03</pdfrwt>
<pdfrwt beam="2">  1       21 0.13383435E+00 0.45551894E+03</pdfrwt>
<totfact> 0.40293361E+04</totfact>
</mgrwt>
</event>
<event>
 7    0  0.4775379E-002  0.3989926E+03  0.7546771E-02  0.1044129E+00
         21   -1    0    0  502  501  0.00000000000E+00  0.00000000000E+00  0.15812637910E+03  0.15812637910E+03  0.00000000000E+00 0.  1.
         21   -1    0    0  501  502 -0.00000000000E+00 -0.00000000000E+00 -0.25168964723E+03  0.25168964723E+03  0.00000000000E+00 0.  1.
      99926    2    1    2    0    0  0.00000000000E+00  0.00000000000E+00 -0.93563268129E+02  0.40981602633E+03  0.39899259428E+03 0.  0.
      99925    2    3    3    0    0 -0.39997273049E+02 -0.15636128549E+02 -0.56656314082E+02  0.27250651564E+03  0.26306955882E+03 0.  0.
         25    1    4    4    0    0 -0.30234826429E+02  0.13977778754E+02 -0.61888771720E+02  0.14348258150E+03  0.12509000000E+03 0.  0.
         25    1    4    4    0    0 -0.97624466194E+01 -0.29613907303E+02  0.52324576374E+01  0.12902393415E+03  0.12509000000E+03 0.  0.
         25    1    3    3    0    0  0.39997273049E+02  0.15636128549E+02 -0.36906954047E+02  0.13730951068E+03  0.12509000000E+03 0.  0.
<mgrwt>
<rscale>  2 0.39899259E+03</rscale>
<asrwt>0</asrwt>
<pdfrwt beam="1">  1       21 0.23253879E-01 0.39899259E+03</pdfrwt>
<pdfrwt beam="2">  1       21 0.37013183E-01 0.39899259E+03</pdfrwt>
<totfact> 0.11561715E+05</totfact>
</mgrwt>
</event>
<event>
 7    0  0.4775379E-002  0.4589871E+03  0.7546771E-02  0.1025075E+00
         21   -1    0    0  502  501  0.00000000000E+00  0.00000000000E+00  0.50568099764E+03  0.50568099764E+03  0.00000000000E+00 0.  1.
         21   -1    0    0  501  502 -0.00000000000E+00 -0.00000000000E+00 -0.10415119272E+03  0.10415119272E+03  0.00000000000E+00 0.  1.
      99926    2    1    2    0    0  0.00000000000E+00  0.00000000000E+00  0.40152980492E+03  0.60983219037E+03  0.45898705447E+03 0.  0.
      99925    2    3    3    0    0  0.40251769245E+02 -0.86579134579E+02  0.16237280022E+03  0.32354608790E+03  0.26306081667E+03 0.  0.
         25    1    4    4    0    0  0.65678904173E+01 -0.50319394124E+02  0.37757249096E+02  0.14017238162E+03  0.12509000000E+03 0.  0.
         25    1    4    4    0    0  0.33683878828E+02 -0.36259740455E+02  0.12461555113E+03  0.18337370628E+03  0.12509000000E+03 0.  0.
         25    1    3    3    0    0 -0.40251769245E+02  0.86579134579E+02  0.23915700470E+03  0.28628610247E+03  0.12509000000E+03 0.  0.
<mgrwt>
<rscale>  2 0.45898705E+03</rscale>
<asrwt>0</asrwt>
<pdfrwt beam="1">  1       21 0.74364852E-01 0.45898705E+03</pdfrwt>
<pdfrwt beam="2">  1       21 0.15316352E-01 0.45898705E+03</pdfrwt>
<totfact> 0.56283453E+04</totfact>
</mgrwt>
</event>
<event>
 7    0  0.4775379E-002  0.4560015E+03  0.7546771E-02  0.1025947E+00
         21   -1    0    0  502  501  0.00000000000E+00  0.00000000000E+00  0.20004707220E+03  0.20004707220E+03  0.00000000000E+00 0.  1.
         21   -1    0    0  501  502 -0.00000000000E+00 -0.00000000000E+00 -0.25986059215E+03  0.25986059215E+03  0.00000000000E+00 0.  1.
      99926    2    1    2    0    0 -0.88817841970E-15  0.00000000000E+00 -0.59813519950E+02  0.45990766434E+03  0.45600153788E+03 0.  0.
      99925    2    3    3    0    0  0.69750200765E+01  0.11238138789E+03 -0.19185392402E+02  0.28677078180E+03  0.26304215396E+03 0.  0.
         25    1    4    4    0    0 -0.11867635272E+02  0.89553735496E+02 -0.32022551551E+02  0.15758700523E+03  0.12509000000E+03 0.  0.
         25    1    3    3    0    0 -0.69750200765E+01 -0.11238138789E+03 -0.40628127548E+02  0.17313688254E+03  0.12509000000E+03 0.  0.
         25    1    4    4    0    0  0.18842655349E+02  0.22827652392E+02  0.12837159148E+02  0.12918377657E+03  0.12509000000E+03 0.  0.
<mgrwt>
<rscale>  2 0.45600154E+03</rscale>
<asrwt>0</asrwt>
<pdfrwt beam="1">  1       21 0.29418687E-01 0.45600154E+03</pdfrwt>
<pdfrwt beam="2">  1       21 0.38214793E-01 0.45600154E+03</pdfrwt>
<totfact> 0.67645380E+04</totfact>
</mgrwt>
</event>
<event>
 7    0  0.4775379E-002  0.4535678E+03  0.7546771E-02  0.1026663E+00
         21   -1    0    0  502  501  0.00000000000E+00  0.00000000000E+00  0.70644505211E+03  0.70644505211E+03  0.00000000000E+00 0. -1.
         21   -1    0    0  501  502 -0.00000000000E+00 -0.00000000000E+00 -0.72802457526E+02  0.72802457526E+02  0.00000000000E+00 0. -1.
      99926    2    1    2    0    0  0.00000000000E+00 -0.14210854715E-13  0.63364259458E+03  0.77924750963E+03  0.45356779383E+03 0.  0.
      99925    2    3    3    0    0 -0.22182807120E+02  0.10488951594E+03  0.34567456058E+03  0.44748406350E+03  0.26316762294E+03 0.  0.
         25    1    4    4    0    0  0.24272289971E+02  0.30525218714E+02  0.14812064090E+03  0.19775784535E+03  0.12509000000E+03 0.  0.
         25    1    4    4    0    0 -0.46455097091E+02  0.74364297225E+02  0.19755391968E+03  0.24972621814E+03  0.12509000000E+03 0.  0.
         25    1    3    3    0    0  0.22182807120E+02 -0.10488951594E+03  0.28796803400E+03  0.33176344614E+03  0.12509000000E+03 0.  0.
<mgrwt>
<rscale>  2 0.45356779E+03</rscale>
<asrwt>0</asrwt>
<pdfrwt beam="1">  1       21 0.10388897E+00 0.45356779E+03</pdfrwt>
<pdfrwt beam="2">  1       21 0.10706244E-01 0.45356779E+03</pdfrwt>
<totfact> 0.49337307E+04</totfact>
</mgrwt>
</event>
<event>
 7    0  0.4775379E-002  0.4467969E+03  0.7546771E-02  0.1028682E+00
         21   -1    0    0  502  501  0.00000000000E+00  0.00000000000E+00  0.25089629355E+03  0.25089629355E+03  0.00000000000E+00 0.  1.
         21   -1    0    0  501  502 -0.00000000000E+00 -0.00000000000E+00 -0.19891429925E+03  0.19891429925E+03  0.00000000000E+00 0.  1.
      99926    2    1    2    0    0  0.00000000000E+00  0.00000000000E+00  0.51981994303E+02  0.44981059280E+03  0.44679686846E+03 0.  0.
      99925    2    3    3    0    0  0.58524541488E+02  0.95346138385E+01 -0.54650379006E+02  0.27507078064E+03  0.26298524601E+03 0.  0.
         25    1    4    4    0    0 -0.62479609148E+01  0.22434113373E+02 -0.14716820465E+02  0.12808754570E+03  0.12509000000E+03 0.  0.
         25    1    3    3    0    0 -0.58524541488E+02 -0.95346138385E+01  0.10663237331E+03  0.17473981216E+03  0.12509000000E+03 0.  0.
         25    1    4    4    0    0  0.64772502403E+02 -0.12899499534E+02 -0.39933558541E+02  0.14698323494E+03  0.12509000000E+03 0.  0.
<mgrwt>
<rscale>  2 0.44679687E+03</rscale>
<asrwt>0</asrwt>
<pdfrwt beam="1">  1       21 0.36896514E-01 0.44679687E+03</pdfrwt>
<pdfrwt beam="2">  1       21 0.29252103E-01 0.44679687E+03</pdfrwt>
<totfact> 0.73629755E+04</totfact>
</mgrwt>
</event>
<event>
 7    0  0.4775379E-002  0.4420780E+03  0.7546771E-02  0.1030111E+00
         21   -1    0    0  502  501  0.00000000000E+00  0.00000000000E+00  0.41155514528E+03  0.41155514528E+03  0.00000000000E+00 0.  1.
         21   -1    0    0  501  502 -0.00000000000E+00 -0.00000000000E+00 -0.11871612266E+03  0.11871612266E+03  0.00000000000E+00 0.  1.
      99926    2    1    2    0    0 -0.71054273576E-14  0.00000000000E+00  0.29283902262E+03  0.53027126794E+03  0.44207796195E+03 0.  0.
      99925    2    3    3    0    0 -0.48415428422E+02 -0.42912264838E+02  0.94052576176E+02  0.28665461094E+03  0.26294383945E+03 0.  0.
         25    1    4    4    0    0 -0.41194453280E+02  0.11471241579E+02  0.63642533705E+02  0.14671895774E+03  0.12509000000E+03 0.  0.
         25    1    3    3    0    0  0.48415428422E+02  0.42912264838E+02  0.19878644644E+03  0.24361665701E+03  0.12509000000E+03 0.  0.
         25    1    4    4    0    0 -0.72209751420E+01 -0.54383506417E+02  0.30410042471E+02  0.13993565320E+03  0.12509000000E+03 0.  0.
<mgrwt>
<rscale>  2 0.44207796E+03</rscale>
<asrwt>0</asrwt>
<pdfrwt beam="1">  1       21 0.60522815E-01 0.44207796E+03</pdfrwt>
<pdfrwt beam="2">  1       21 0.17458253E-01 0.44207796E+03</pdfrwt>
<totfact> 0.70088030E+04</totfact>
</mgrwt>
</event>
<event>
 7    0  0.4775379E-002  0.4590877E+03  0.7546771E-02  0.1025046E+00
         21   -1    0    0  502  501  0.00000000000E+00  0.00000000000E+00  0.15018653271E+03  0.15018653271E+03  0.00000000000E+00 0. -1.
         21   -1    0    0  501  502 -0.00000000000E+00 -0.00000000000E+00 -0.35083283941E+03  0.35083283941E+03  0.00000000000E+00 0. -1.
      99926    2    1    2    0    0  0.00000000000E+00  0.00000000000E+00 -0.20064630670E+03  0.50101937212E+03  0.45908765051E+03 0.  0.
      99925    2    3    3    0    0 -0.89982811346E+02  0.11627817861E+02 -0.45333125523E+02  0.28192623021E+03  0.26304979477E+03 0.  0.
         25    1    3    3    0    0  0.89982811346E+02 -0.11627817861E+02 -0.15531318117E+03  0.21909314191E+03  0.12509000000E+03 0.  0.
         25    1    4    4    0    0 -0.70908183765E+02 -0.18459213372E+02 -0.45232510523E+02  0.15186244167E+03  0.12509000000E+03 0.  0.
         25    1    4    4    0    0 -0.19074627581E+02  0.30087031234E+02 -0.10061499948E+00  0.13006378854E+03  0.12509000000E+03 0.  0.
<mgrwt>
<rscale>  2 0.45908765E+03</rscale>
<asrwt>0</asrwt>
<pdfrwt beam="1">  1       21 0.22086255E-01 0.45908765E+03</pdfrwt>
<pdfrwt beam="2">  1       21 0.51593064E-01 0.45908765E+03</pdfrwt>
<totfact> 0.63125764E+04</totfact>
</mgrwt>
</event>
<event>
 7    0  0.4775379E-002  0.4565508E+03  0.7546771E-02  0.1025786E+00
         21   -1    0    0  502  501  0.00000000000E+00  0.00000000000E+00  0.28513471378E+03  0.28513471378E+03  0.00000000000E+00 0. -1.
         21   -1    0    0  501  502 -0.00000000000E+00 -0.00000000000E+00 -0.18275450518E+03  0.18275450518E+03  0.00000000000E+00 0. -1.
      99926    2    1    2    0    0  0.71054273576E-14  0.00000000000E+00  0.10238020860E+03  0.46788921896E+03  0.45655077933E+03 0.  0.
      99925    2    3    3    0    0 -0.43178237503E+02 -0.56206013443E+02  0.15641731341E+03  0.31429562229E+03  0.26323352013E+03 0.  0.
         25    1    3    3    0    0  0.43178237503E+02  0.56206013443E+02 -0.54037104809E+02  0.15359359667E+03  0.12509000000E+03 0.  0.
         25    1    4    4    0    0  0.50116120463E+00 -0.62755138822E+02  0.80231582612E+02  0.16131668717E+03  0.12509000000E+03 0.  0.
         25    1    4    4    0    0 -0.43679398708E+02  0.65491253788E+01  0.76185730797E+02  0.15297893512E+03  0.12509000000E+03 0.  0.
<mgrwt>
<rscale>  2 0.45655078E+03</rscale>
<asrwt>0</asrwt>
<pdfrwt beam="1">  1       21 0.41931576E-01 0.45655078E+03</pdfrwt>
<pdfrwt beam="2">  1       21 0.26875663E-01 0.45655078E+03</pdfrwt>
<totfact> 0.66768267E+04</totfact>
</mgrwt>
</event>
<event>
 7    0  0.4775379E-002  0.4535827E+03  0.7546771E-02  0.1026659E+00
         21   -1    0    0  502  501  0.00000000000E+00  0.00000000000E+00  0.20599153359E+03  0.20599153359E+03  0.00000000000E+00 0.  1.
         21   -1    0    0  501  502 -0.00000000000E+00 -0.00000000000E+00 -0.24969143887E+03  0.24969143887E+03  0.00000000000E+00 0.  1.
      99926    2    1    2    0    0  0.00000000000E+00  0.00000000000E+00 -0.43699905284E+02  0.45568297246E+03  0.45358272637E+03 0.  0.
      99925    2    3    3    0    0  0.10210624595E+03 -0.41399839711E+02 -0.87905474528E+01  0.28537206983E+03  0.26309753386E+03 0.  0.
         25    1    3    3    0    0 -0.10210624595E+03  0.41399839711E+02 -0.34909357832E+02  0.17031090263E+03  0.12509000000E+03 0.  0.
         25    1    4    4    0    0  0.68082481463E+02 -0.16346411009E+02  0.32581771836E+02  0.14700853510E+03  0.12509000000E+03 0.  0.
         25    1    4    4    0    0  0.34023764490E+02 -0.25053428702E+02 -0.41372319289E+02  0.13836353473E+03  0.12509000000E+03 0.  0.
<mgrwt>
<rscale>  2 0.45358273E+03</rscale>
<asrwt>0</asrwt>
<pdfrwt beam="1">  1       21 0.30292873E-01 0.45358273E+03</pdfrwt>
<pdfrwt beam="2">  1       21 0.36719329E-01 0.45358273E+03</pdfrwt>
<totfact> 0.69275842E+04</totfact>
</mgrwt>
</event>
<event>
 7    0  0.4775379E-002  0.4532122E+03  0.7546771E-02  0.1026768E+00
         21   -1    0    0  502  501  0.00000000000E+00  0.00000000000E+00  0.70539203979E+03  0.70539203979E+03  0.00000000000E+00 0. -1.
         21   -1    0    0  501  502 -0.00000000000E+00 -0.00000000000E+00 -0.72796856718E+02  0.72796856718E+02  0.00000000000E+00 0. -1.
      99926    2    1    2    0    0  0.00000000000E+00  0.00000000000E+00  0.63259518307E+03  0.77818889651E+03  0.45321219423E+03 0.  0.
      99925    2    3    3    0    0 -0.99724662942E+02 -0.92704958523E+01  0.48201890560E+03  0.55829875592E+03  0.26329512910E+03 0.  0.
         25    1    4    4    0    0 -0.67045841576E+02 -0.16080913853E+02  0.32349396494E+03  0.35362352031E+03  0.12509000000E+03 0.  0.
         25    1    4    4    0    0 -0.32678821367E+02  0.68104180009E+01  0.15852494066E+03  0.20467523561E+03  0.12509000000E+03 0.  0.
         25    1    3    3    0    0  0.99724662942E+02  0.92704958523E+01  0.15057627747E+03  0.21989014059E+03  0.12509000000E+03 0.  0.
<mgrwt>
<rscale>  2 0.45321219E+03</rscale>
<asrwt>0</asrwt>
<pdfrwt beam="1">  1       21 0.10373412E+00 0.45321219E+03</pdfrwt>
<pdfrwt beam="2">  1       21 0.10705420E-01 0.45321219E+03</pdfrwt>
<totfact> 0.49529320E+04</totfact>
</mgrwt>
</event>
<event>
 7    0  0.4775379E-002  0.4576848E+03  0.7546771E-02  0.1025455E+00
         21   -1    0    0  502  501  0.00000000000E+00  0.00000000000E+00  0.33699120606E+03  0.33699120606E+03  0.00000000000E+00 0.  1.
         21   -1    0    0  501  502 -0.00000000000E+00 -0.00000000000E+00 -0.15540118746E+03  0.15540118746E+03  0.00000000000E+00 0.  1.
      99926    2    1    2    0    0  0.00000000000E+00  0.00000000000E+00  0.18159001860E+03  0.49239239352E+03  0.45768475432E+03 0.  0.
      99925    2    3    3    0    0 -0.42519914128E+02 -0.48145111724E+02  0.10651433241E+02  0.27104785903E+03  0.26311137181E+03 0.  0.
         25    1    4    4    0    0  0.87967588409E+01 -0.16406218946E+02 -0.22030455744E+02  0.12837210003E+03  0.12509000000E+03 0.  0.
         25    1    3    3    0    0  0.42519914128E+02  0.48145111724E+02  0.17093858536E+03  0.22134453448E+03  0.12509000000E+03 0.  0.
         25    1    4    4    0    0 -0.51316672968E+02 -0.31738892778E+02  0.32681888986E+02  0.14267575900E+03  0.12509000000E+03 0.  0.
<mgrwt>
<rscale>  2 0.45768475E+03</rscale>
<asrwt>0</asrwt>
<pdfrwt beam="1">  1       21 0.49557530E-01 0.45768475E+03</pdfrwt>
<pdfrwt beam="2">  1       21 0.22853116E-01 0.45768475E+03</pdfrwt>
<totfact> 0.64424398E+04</totfact>
</mgrwt>
</event>
<event>
 7    0  0.4775379E-002  0.4583270E+03  0.7546771E-02  0.1025268E+00
         21   -1    0    0  502  501  0.00000000000E+00  0.00000000000E+00  0.15781194564E+04  0.15781194564E+04  0.00000000000E+00 0.  1.
         21   -1    0    0  501  502 -0.00000000000E+00 -0.00000000000E+00 -0.33277518123E+02  0.33277518123E+02  0.00000000000E+00 0.  1.
      99926    2    1    2    0    0 -0.14210854715E-13  0.00000000000E+00  0.15448419382E+04  0.16113969745E+04  0.45832695233E+03 0.  0.
      99925    2    3    3    0    0 -0.70592923876E+02  0.24116429507E+02  0.12826315680E+04  0.13114523972E+04  0.26305643471E+03 0.  0.
         25    1    3    3    0    0  0.70592923876E+02 -0.24116429507E+02  0.26221037020E+03  0.29994457724E+03  0.12509000000E+03 0.  0.
         25    1    4    4    0    0 -0.34095876454E+01 -0.15211353178E+02  0.60205483442E+03  0.61511018712E+03  0.12509000000E+03 0.  0.
         25    1    4    4    0    0 -0.67183336230E+02  0.39327782686E+02  0.68057673362E+03  0.69634221012E+03  0.12509000000E+03 0.  0.
<mgrwt>
<rscale>  2 0.45832695E+03</rscale>
<asrwt>0</asrwt>
<pdfrwt beam="1">  1       21 0.23207634E+00 0.45832695E+03</pdfrwt>
<pdfrwt beam="2">  1       21 0.48937537E-02 0.45832695E+03</pdfrwt>
<totfact> 0.20635235E+04</totfact>
</mgrwt>
</event>
<event>
 7    0  0.4775379E-002  0.4531967E+03  0.7546771E-02  0.1026773E+00
         21   -1    0    0  502  501  0.00000000000E+00  0.00000000000E+00  0.98249575145E+03  0.98249575145E+03  0.00000000000E+00 0.  1.
         21   -1    0    0  501  502 -0.00000000000E+00 -0.00000000000E+00 -0.52261608434E+02  0.52261608434E+02  0.00000000000E+00 0.  1.
      99926    2    1    2    0    0  0.00000000000E+00  0.00000000000E+00  0.93023414302E+03  0.10347573599E+04  0.45319668247E+03 0.  0.
      99925    2    3    3    0    0 -0.57776852266E+02  0.92131937004E+02  0.63312444616E+03  0.69453957884E+03  0.26403068718E+03 0.  0.
         25    1    4    4    0    0 -0.28738595885E+02  0.40796946442E+02  0.41464269857E+03  0.43596602312E+03  0.12509000000E+03 0.  0.
         25    1    3    3    0    0  0.57776852266E+02 -0.92131937004E+02  0.29710969685E+03  0.34021778104E+03  0.12509000000E+03 0.  0.
         25    1    4    4    0    0 -0.29038256381E+02  0.51334990562E+02  0.21848174759E+03  0.25857355573E+03  0.12509000000E+03 0.  0.
<mgrwt>
<rscale>  2 0.45319668E+03</rscale>
<asrwt>0</asrwt>
<pdfrwt beam="1">  1       21 0.14448466E+00 0.45319668E+03</pdfrwt>
<pdfrwt beam="2">  1       21 0.76855313E-02 0.45319668E+03</pdfrwt>
<totfact> 0.38379162E+04</totfact>
</mgrwt>
</event>
<event>
 7    0  0.4775379E-002  0.4159977E+03  0.7546771E-02  0.1038377E+00
         21   -1    0    0  502  501  0.00000000000E+00  0.00000000000E+00  0.43493762269E+03  0.43493762269E+03  0.00000000000E+00 0.  1.
         21   -1    0    0  501  502 -0.00000000000E+00 -0.00000000000E+00 -0.99470634747E+02  0.99470634747E+02  0.00000000000E+00 0.  1.
      99926    2    1    2    0    0 -0.88817841970E-15 -0.88817841970E-15  0.33546698794E+03  0.53440825743E+03  0.41599769905E+03 0.  0.
      99925    2    3    3    0    0  0.55576656966E+01 -0.70183607666E+01  0.30961845560E+03  0.40636217292E+03  0.26303323458E+03 0.  0.
         25    1    3    3    0    0 -0.55576656966E+01  0.70183607666E+01  0.25848532337E+02  0.12804608452E+03  0.12509000000E+03 0.  0.
         25    1    4    4    0    0 -0.31932077810E+02 -0.22126295102E+02  0.13926753806E+03  0.19118625941E+03  0.12509000000E+03 0.  0.
         25    1    4    4    0    0  0.37489743506E+02  0.15107934335E+02  0.17035091754E+03  0.21517591351E+03  0.12509000000E+03 0.  0.
<mgrwt>
<rscale>  2 0.41599770E+03</rscale>
<asrwt>0</asrwt>
<pdfrwt beam="1">  1       21 0.63961415E-01 0.41599770E+03</pdfrwt>
<pdfrwt beam="2">  1       21 0.14628035E-01 0.41599770E+03</pdfrwt>
<totfact> 0.86742663E+04</totfact>
</mgrwt>
</event>
<event>
 7    0  0.4775379E-002  0.4632539E+03  0.7546771E-02  0.1023842E+00
         21   -1    0    0  502  501  0.00000000000E+00  0.00000000000E+00  0.31589973841E+02  0.31589973841E+02  0.00000000000E+00 0.  1.
         21   -1    0    0  501  502 -0.00000000000E+00 -0.00000000000E+00 -0.16983570170E+04  0.16983570170E+04  0.00000000000E+00 0.  1.
      99926    2    1    2    0    0  0.00000000000E+00  0.00000000000E+00 -0.16667670432E+04  0.17299469908E+04  0.46325394219E+03 0.  0.
      99925    2    3    3    0    0 -0.90648391994E+02  0.20045491721E+02 -0.13295427702E+04  0.13584814190E+04  0.26299968668E+03 0.  0.
         25    1    4    4    0    0 -0.72512459863E+01  0.24467520123E+02 -0.55849693107E+03  0.57290275808E+03  0.12509000000E+03 0.  0.
         25    1    3    3    0    0  0.90648391994E+02 -0.20045491721E+02 -0.33722427293E+03  0.37146557184E+03  0.12509000000E+03 0.  0.
         25    1    4    4    0    0 -0.83397146008E+02 -0.44220284026E+01 -0.77104583915E+03  0.78557866090E+03  0.12509000000E+03 0.  0.
<mgrwt>
<rscale>  2 0.46325394E+03</rscale>
<asrwt>0</asrwt>
<pdfrwt beam="1">  1       21 0.46455830E-02 0.46325394E+03</pdfrwt>
<pdfrwt beam="2">  1       21 0.24975846E+00 0.46325394E+03</pdfrwt>
<totfact> 0.17496851E+04</totfact>
</mgrwt>
</event>
<event>
 7    0  0.4775379E-002  0.4389800E+03  0.7546771E-02  0.1031060E+00
         21   -1    0    0  502  501  0.00000000000E+00  0.00000000000E+00  0.19750701097E+02  0.19750701097E+02  0.00000000000E+00 0. -1.
         21   -1    0    0  501  502 -0.00000000000E+00 -0.00000000000E+00 -0.24391970210E+04  0.24391970210E+04  0.00000000000E+00 0. -1.
      99926    2    1    2    0    0  0.17763568394E-14  0.00000000000E+00 -0.24194463199E+04  0.24589477221E+04  0.43897995981E+03 0.  0.
      99925    2    3    3    0    0 -0.15227852180E+02 -0.88222171579E+02 -0.17600547559E+04  0.17818511398E+04  0.26303174988E+03 0.  0.
         25    1    4    4    0    0 -0.77796260121E+01 -0.33585561729E+02 -0.60649911403E+03  0.62022350484E+03  0.12509000000E+03 0.  0.
         25    1    3    3    0    0  0.15227852180E+02  0.88222171579E+02 -0.65939156403E+03  0.67709658237E+03  0.12509000000E+03 0.  0.
         25    1    4    4    0    0 -0.74482261677E+01 -0.54636609850E+02 -0.11535556419E+04  0.11616276349E+04  0.12509000000E+03 0.  0.
<mgrwt>
<rscale>  2 0.43897996E+03</rscale>
<asrwt>0</asrwt>
<pdfrwt beam="1">  1       21 0.29045160E-02 0.43897996E+03</pdfrwt>
<pdfrwt beam="2">  1       21 0.35870531E+00 0.43897996E+03</pdfrwt>
<totfact> 0.85809572E+03</totfact>
</mgrwt>
</event>
<event>
 7    0  0.4775379E-002  0.4641522E+03  0.7546771E-02  0.1023584E+00
         21   -1    0    0  502  501  0.00000000000E+00  0.00000000000E+00  0.59469348184E+03  0.59469348184E+03  0.00000000000E+00 0.  1.
         21   -1    0    0  501  502 -0.00000000000E+00 -0.00000000000E+00 -0.90566511038E+02  0.90566511038E+02  0.00000000000E+00 0.  1.
      99926    2    1    2    0    0  0.00000000000E+00  0.00000000000E+00  0.50412697080E+03  0.68525999288E+03  0.46415218964E+03 0.  0.
      99925    2    3    3    0    0  0.70149703695E+02 -0.57808954649E+02  0.19549399614E+03  0.34005762134E+03  0.26297989874E+03 0.  0.
         25    1    4    4    0    0  0.55010701708E+02 -0.44212391736E+02  0.14363329575E+03  0.20312297909E+03  0.12509000000E+03 0.  0.
         25    1    3    3    0    0 -0.70149703695E+02  0.57808954649E+02  0.30863297466E+03  0.34520237154E+03  0.12509000000E+03 0.  0.
         25    1    4    4    0    0  0.15139001987E+02 -0.13596562913E+02  0.51860700391E+02  0.13693464225E+03  0.12509000000E+03 0.  0.
<mgrwt>
<rscale>  2 0.46415219E+03</rscale>
<asrwt>0</asrwt>
<pdfrwt beam="1">  1       21 0.87454922E-01 0.46415219E+03</pdfrwt>
<pdfrwt beam="2">  1       21 0.13318605E-01 0.46415219E+03</pdfrwt>
<totfact> 0.50006701E+04</totfact>
</mgrwt>
</event>
<event>
 7    0  0.4775379E-002  0.4507382E+03  0.7546771E-02  0.1027502E+00
         21   -1    0    0  502  501  0.00000000000E+00  0.00000000000E+00  0.10558949077E+03  0.10558949077E+03  0.00000000000E+00 0.  1.
         21   -1    0    0  501  502 -0.00000000000E+00 -0.00000000000E+00 -0.48102537501E+03  0.48102537501E+03  0.00000000000E+00 0.  1.
      99926    2    1    2    0    0  0.71054273576E-14  0.00000000000E+00 -0.37543588423E+03  0.58661486578E+03  0.45073816966E+03 0.  0.
      99925    2    3    3    0    0  0.38680197908E+02  0.84015110405E+02 -0.16179690604E+03  0.32233505651E+03  0.26299610903E+03 0.  0.
         25    1    4    4    0    0 -0.15724263739E+02  0.24495470786E+02 -0.91803765190E+02  0.15786931292E+03  0.12509000000E+03 0.  0.
         25    1    4    4    0    0  0.54404461647E+02  0.59519639619E+02 -0.69993140851E+02  0.16446574359E+03  0.12509000000E+03 0.  0.
         25    1    3    3    0    0 -0.38680197908E+02 -0.84015110405E+02 -0.21363897819E+03  0.26427980927E+03  0.12509000000E+03 0.  0.
<mgrwt>
<rscale>  2 0.45073817E+03</rscale>
<asrwt>0</asrwt>
<pdfrwt beam="1">  1       21 0.15527866E-01 0.45073817E+03</pdfrwt>
<pdfrwt beam="2">  1       21 0.70739027E-01 0.45073817E+03</pdfrwt>
<totfact> 0.61557382E+04</totfact>
</mgrwt>
</event>
<event>
 7    0  0.4775379E-002  0.4714301E+03  0.7546771E-02  0.1021517E+00
         21   -1    0    0  502  501  0.00000000000E+00  0.00000000000E+00  0.12098920726E+03  0.12098920726E+03  0.00000000000E+00 0.  1.
         21   -1    0    0  501  502 -0.00000000000E+00 -0.00000000000E+00 -0.45922767378E+03  0.45922767378E+03  0.00000000000E+00 0.  1.
      99926    2    1    2    0    0 -0.71054273576E-14  0.71054273576E-14 -0.33823846652E+03  0.58021688104E+03  0.47143013142E+03 0.  0.
      99925    2    3    3    0    0 -0.58736814355E+02  0.57750491820E+02 -0.33037225424E+03  0.43023515528E+03  0.26300442924E+03 0.  0.
         25    1    4    4    0    0 -0.10530130287E+02  0.25030352748E+02 -0.21566909254E+03  0.25079487191E+03  0.12509000000E+03 0.  0.
         25    1    3    3    0    0  0.58736814355E+02 -0.57750491820E+02 -0.78662122776E+01  0.14998172576E+03  0.12509000000E+03 0.  0.
         25    1    4    4    0    0 -0.48206684068E+02  0.32720139072E+02 -0.11470316170E+03  0.17944028337E+03  0.12509000000E+03 0.  0.
<mgrwt>
<rscale>  2 0.47143013E+03</rscale>
<asrwt>0</asrwt>
<pdfrwt beam="1">  1       21 0.17792530E-01 0.47143013E+03</pdfrwt>
<pdfrwt beam="2">  1       21 0.67533483E-01 0.47143013E+03</pdfrwt>
<totfact> 0.52723015E+04</totfact>
</mgrwt>
</event>
<event>
 7    0  0.4775379E-002  0.4624717E+03  0.7546771E-02  0.1024067E+00
         21   -1    0    0  502  501  0.00000000000E+00  0.00000000000E+00  0.14080622280E+03  0.14080622280E+03  0.00000000000E+00 0.  1.
         21   -1    0    0  501  502 -0.00000000000E+00 -0.00000000000E+00 -0.37974189027E+03  0.37974189027E+03  0.00000000000E+00 0.  1.
      99926    2    1    2    0    0  0.00000000000E+00  0.00000000000E+00 -0.23893566747E+03  0.52054811307E+03  0.46247171247E+03 0.  0.
      99925    2    3    3    0    0 -0.93572190130E+01 -0.60380518819E+02 -0.26570685660E+03  0.37878221707E+03  0.26294955737E+03 0.  0.
         25    1    3    3    0    0  0.93572190130E+01  0.60380518819E+02  0.26771189135E+02  0.14176589600E+03  0.12509000000E+03 0.  0.
         25    1    4    4    0    0 -0.15108944292E+02 -0.24546836530E+01 -0.87561331068E+02  0.15345618420E+03  0.12509000000E+03 0.  0.
         25    1    4    4    0    0  0.57517252788E+01 -0.57925835166E+02 -0.17814552553E+03  0.22532603287E+03  0.12509000000E+03 0.  0.
<mgrwt>
<rscale>  2 0.46247171E+03</rscale>
<asrwt>0</asrwt>
<pdfrwt beam="1">  1       21 0.20706797E-01 0.46247171E+03</pdfrwt>
<pdfrwt beam="2">  1       21 0.55844396E-01 0.46247171E+03</pdfrwt>
<totfact> 0.60200888E+04</totfact>
</mgrwt>
</event>
<event>
 7    0  0.4775379E-002  0.4584863E+03  0.7546771E-02  0.1025221E+00
         21   -1    0    0  502  501  0.00000000000E+00  0.00000000000E+00  0.65842645357E+03  0.65842645357E+03  0.00000000000E+00 0.  1.
         21   -1    0    0  501  502 -0.00000000000E+00 -0.00000000000E+00 -0.79815181800E+02  0.79815181800E+02  0.00000000000E+00 0.  1.
      99926    2    1    2    0    0  0.00000000000E+00  0.00000000000E+00  0.57861127177E+03  0.73824163537E+03  0.45848632300E+03 0.  0.
      99925    2    3    3    0    0 -0.33346995592E+02 -0.32879619612E+02  0.53465810752E+03  0.59762698376E+03  0.26287949383E+03 0.  0.
         25    1    4    4    0    0 -0.43431986719E+02  0.76588434671E+01  0.22728056896E+03  0.26315197221E+03  0.12509000000E+03 0.  0.
         25    1    4    4    0    0  0.10084991127E+02 -0.40538463079E+02  0.30737753857E+03  0.33447501155E+03  0.12509000000E+03 0.  0.
         25    1    3    3    0    0  0.33346995592E+02  0.32879619612E+02  0.43953164249E+02  0.14061465161E+03  0.12509000000E+03 0.  0.
<mgrwt>
<rscale>  2 0.45848632E+03</rscale>
<asrwt>0</asrwt>
<pdfrwt beam="1">  1       21 0.96827417E-01 0.45848632E+03</pdfrwt>
<pdfrwt beam="2">  1       21 0.11737527E-01 0.45848632E+03</pdfrwt>
<totfact> 0.49504496E+04</totfact>
</mgrwt>
</event>
<event>
 7    0  0.4775379E-002  0.4549145E+03  0.7546771E-02  0.1026267E+00
         21   -1    0    0  502  501  0.00000000000E+00  0.00000000000E+00  0.81112330987E+02  0.81112330987E+02  0.00000000000E+00 0.  1.
         21   -1    0    0  501  502 -0.00000000000E+00 -0.00000000000E+00 -0.63784133709E+03  0.63784133709E+03  0.00000000000E+00 0.  1.
      99926    2    1    2    0    0  0.17763568394E-14  0.00000000000E+00 -0.55672900610E+03  0.71895366807E+03  0.45491448713E+03 0.  0.
      99925    2    3    3    0    0  0.13430487322E+02  0.85995198343E+02 -0.23590529710E+03  0.36377637082E+03  0.26288093624E+03 0.  0.
         25    1    4    4    0    0  0.10551240215E+02  0.65244394040E+02 -0.79066135545E+02  0.16207134699E+03  0.12509000000E+03 0.  0.
         25    1    3    3    0    0 -0.13430487322E+02 -0.85995198343E+02 -0.32082370900E+03  0.35517729725E+03  0.12509000000E+03 0.  0.
         25    1    4    4    0    0  0.28792471069E+01  0.20750804304E+02 -0.15683916155E+03  0.20170502383E+03  0.12509000000E+03 0.  0.
<mgrwt>
<rscale>  2 0.45491449E+03</rscale>
<asrwt>0</asrwt>
<pdfrwt beam="1">  1       21 0.11928284E-01 0.45491449E+03</pdfrwt>
<pdfrwt beam="2">  1       21 0.93800196E-01 0.45491449E+03</pdfrwt>
<totfact> 0.51920901E+04</totfact>
</mgrwt>
</event>
<event>
 7    0  0.4775379E-002  0.4209306E+03  0.7546771E-02  0.1036764E+00
         21   -1    0    0  502  501  0.00000000000E+00  0.00000000000E+00  0.57846433883E+03  0.57846433883E+03  0.00000000000E+00 0. -1.
         21   -1    0    0  501  502 -0.00000000000E+00 -0.00000000000E+00 -0.76574552878E+02  0.76574552878E+02  0.00000000000E+00 0. -1.
      99926    2    1    2    0    0  0.88817841970E-15  0.14210854715E-13  0.50188978595E+03  0.65503889170E+03  0.42093062660E+03 0.  0.
      99925    2    3    3    0    0  0.70686723063E+01  0.67021851885E+02  0.26848043056E+03  0.38178199785E+03  0.26293318073E+03 0.  0.
         25    1    4    4    0    0 -0.12447395227E+02  0.53615081179E+01  0.16260380714E+03  0.20559958564E+03  0.12509000000E+03 0.  0.
         25    1    4    4    0    0  0.19516067533E+02  0.61660343767E+02  0.10587662342E+03  0.17618241221E+03  0.12509000000E+03 0.  0.
         25    1    3    3    0    0 -0.70686723063E+01 -0.67021851885E+02  0.23340935539E+03  0.27325689386E+03  0.12509000000E+03 0.  0.
<mgrwt>
<rscale>  2 0.42093063E+03</rscale>
<asrwt>0</asrwt>
<pdfrwt beam="1">  1       21 0.85068283E-01 0.42093063E+03</pdfrwt>
<pdfrwt beam="2">  1       21 0.11260964E-01 0.42093063E+03</pdfrwt>
<totfact> 0.73165774E+04</totfact>
</mgrwt>
</event>
<event>
 7    0  0.4775379E-002  0.4554426E+03  0.7546771E-02  0.1026111E+00
         21   -1    0    0  502  501  0.00000000000E+00  0.00000000000E+00  0.25061636805E+03  0.25061636805E+03  0.00000000000E+00 0. -1.
         21   -1    0    0  501  502 -0.00000000000E+00 -0.00000000000E+00 -0.20691782600E+03  0.20691782600E+03  0.00000000000E+00 0. -1.
      99926    2    1    2    0    0  0.00000000000E+00  0.00000000000E+00  0.43698542055E+02  0.45753419405E+03  0.45544261564E+03 0.  0.
      99925    2    3    3    0    0 -0.92598970188E+02  0.65738033516E+02  0.22800250804E+02  0.28729816670E+03  0.26291505628E+03 0.  0.
         25    1    4    4    0    0 -0.82760056913E+02  0.57443182612E+02  0.14818491623E+02  0.16129489156E+03  0.12509000000E+03 0.  0.
         25    1    4    4    0    0 -0.98389132757E+01  0.82948509046E+01  0.79817591809E+01  0.12600327514E+03  0.12509000000E+03 0.  0.
         25    1    3    3    0    0  0.92598970188E+02 -0.65738033516E+02  0.20898291251E+02  0.17023602735E+03  0.12509000000E+03 0.  0.
<mgrwt>
<rscale>  2 0.45544262E+03</rscale>
<asrwt>0</asrwt>
<pdfrwt beam="1">  1       21 0.36855348E-01 0.45544262E+03</pdfrwt>
<pdfrwt beam="2">  1       21 0.30429092E-01 0.45544262E+03</pdfrwt>
<totfact> 0.68119662E+04</totfact>
</mgrwt>
</event>
<event>
 7    0  0.4775379E-002  0.4316909E+03  0.7546771E-02  0.1033327E+00
         21   -1    0    0  502  501  0.00000000000E+00  0.00000000000E+00  0.19251973141E+03  0.19251973141E+03  0.00000000000E+00 0. -1.
         21   -1    0    0  501  502 -0.00000000000E+00 -0.00000000000E+00 -0.24199732175E+03  0.24199732175E+03  0.00000000000E+00 0. -1.
      99926    2    1    2    0    0  0.71054273576E-14  0.71054273576E-14 -0.49477590343E+02  0.43451705316E+03  0.43169090510E+03 0.  0.
      99925    2    3    3    0    0 -0.55566200137E+02 -0.61879498426E+02  0.14931523191E+01  0.27589107915E+03  0.26305319449E+03 0.  0.
         25    1    3    3    0    0  0.55566200137E+02  0.61879498426E+02 -0.50970742663E+02  0.15862597401E+03  0.12509000000E+03 0.  0.
         25    1    4    4    0    0 -0.44556685208E+02  0.61074901968E+01 -0.39920907289E+01  0.13298888871E+03  0.12509000000E+03 0.  0.
         25    1    4    4    0    0 -0.11009514929E+02 -0.67986988623E+02  0.54852430480E+01  0.14290219044E+03  0.12509000000E+03 0.  0.
<mgrwt>
<rscale>  2 0.43169091E+03</rscale>
<asrwt>0</asrwt>
<pdfrwt beam="1">  1       21 0.28311725E-01 0.43169091E+03</pdfrwt>
<pdfrwt beam="2">  1       21 0.35587841E-01 0.43169091E+03</pdfrwt>
<totfact> 0.84775404E+04</totfact>
</mgrwt>
</event>
<event>
 7    0  0.4775379E-002  0.4445511E+03  0.7546771E-02  0.1029360E+00
         21   -1    0    0  502  501  0.00000000000E+00  0.00000000000E+00  0.62991482313E+02  0.62991482313E+02  0.00000000000E+00 0. -1.
         21   -1    0    0  501  502 -0.00000000000E+00 -0.00000000000E+00 -0.78433508746E+03  0.78433508746E+03  0.00000000000E+00 0. -1.
      99926    2    1    2    0    0  0.71054273576E-14  0.00000000000E+00 -0.72134360515E+03  0.84732656978E+03  0.44455114347E+03 0.  0.
      99925    2    3    3    0    0 -0.40561657058E+02  0.21167523472E+02 -0.28239981914E+03  0.38861918217E+03  0.26302452133E+03 0.  0.
         25    1    3    3    0    0  0.40561657058E+02 -0.21167523472E+02 -0.43894378601E+03  0.45870738761E+03  0.12509000000E+03 0.  0.
         25    1    4    4    0    0 -0.33955102582E+02 -0.20774933969E+01 -0.89814803482E+02  0.15770691803E+03  0.12509000000E+03 0.  0.
         25    1    4    4    0    0 -0.66065544760E+01  0.23245016869E+02 -0.19258501566E+03  0.23091226414E+03  0.12509000000E+03 0.  0.
<mgrwt>
<rscale>  2 0.44455114E+03</rscale>
<asrwt>0</asrwt>
<pdfrwt beam="1">  1       21 0.92634541E-02 0.44455114E+03</pdfrwt>
<pdfrwt beam="2">  1       21 0.11534339E+00 0.44455114E+03</pdfrwt>
<totfact> 0.49492991E+04</totfact>
</mgrwt>
</event>
<event>
 7    0  0.4775379E-002  0.4555196E+03  0.7546771E-02  0.1026089E+00
         21   -1    0    0  502  501  0.00000000000E+00  0.00000000000E+00  0.36564372588E+02  0.36564372588E+02  0.00000000000E+00 0.  1.
         21   -1    0    0  501  502 -0.00000000000E+00 -0.00000000000E+00 -0.14187180604E+04  0.14187180604E+04  0.00000000000E+00 0.  1.
      99926    2    1    2    0    0 -0.14210854715E-13  0.00000000000E+00 -0.13821536878E+04  0.14552824330E+04  0.45551964066E+03 0.  0.
      99925    2    3    3    0    0  0.90628855543E+02  0.67750415352E+02 -0.83608765471E+03  0.88375874245E+03  0.26302707134E+03 0.  0.
         25    1    4    4    0    0  0.14173080858E+02  0.87189754562E+01 -0.42494819215E+03  0.44328926320E+03  0.12509000000E+03 0.  0.
         25    1    4    4    0    0  0.76455774686E+02  0.59031439896E+02 -0.41113946256E+03  0.44046947925E+03  0.12509000000E+03 0.  0.
         25    1    3    3    0    0 -0.90628855543E+02 -0.67750415352E+02 -0.54606603307E+03  0.57152369050E+03  0.12509000000E+03 0.  0.
<mgrwt>
<rscale>  2 0.45551964E+03</rscale>
<asrwt>0</asrwt>
<pdfrwt beam="1">  1       21 0.53771139E-02 0.45551964E+03</pdfrwt>
<pdfrwt beam="2">  1       21 0.20863500E+00 0.45551964E+03</pdfrwt>
<totfact> 0.24795023E+04</totfact>
</mgrwt>
</event>
<event>
 7    0  0.4775379E-002  0.4544943E+03  0.7546771E-02  0.1026390E+00
         21   -1    0    0  502  501  0.00000000000E+00  0.00000000000E+00  0.67735759446E+03  0.67735759446E+03  0.00000000000E+00 0.  1.
         21   -1    0    0  501  502 -0.00000000000E+00 -0.00000000000E+00 -0.76239305104E+02  0.76239305104E+02  0.00000000000E+00 0.  1.
      99926    2    1    2    0    0 -0.88817841970E-15 -0.14210854715E-13  0.60111828935E+03  0.75359689956E+03  0.45449432255E+03 0.  0.
      99925    2    3    3    0    0  0.45767149784E+01  0.11198633352E+03  0.36089349943E+03  0.46048029647E+03  0.26312753616E+03 0.  0.
         25    1    4    4    0    0  0.29805288214E+02  0.79777151288E+02  0.22628686786E+03  0.27222417919E+03  0.12509000000E+03 0.  0.
         25    1    4    4    0    0 -0.25228573235E+02  0.32209182235E+02  0.13460663158E+03  0.18825611728E+03  0.12509000000E+03 0.  0.
         25    1    3    3    0    0 -0.45767149784E+01 -0.11198633352E+03  0.24022478992E+03  0.29311660309E+03  0.12509000000E+03 0.  0.
<mgrwt>
<rscale>  2 0.45449432E+03</rscale>
<asrwt>0</asrwt>
<pdfrwt beam="1">  1       21 0.99611408E-01 0.45449432E+03</pdfrwt>
<pdfrwt beam="2">  1       21 0.11211663E-01 0.45449432E+03</pdfrwt>
<totfact> 0.50287286E+04</totfact>
</mgrwt>
</event>
<event>
 7    0  0.4775379E-002  0.4529960E+03  0.7546771E-02  0.1026832E+00
         21   -1    0    0  502  501  0.00000000000E+00  0.00000000000E+00  0.81897732369E+02  0.81897732369E+02  0.00000000000E+00 0. -1.
         21   -1    0    0  501  502 -0.00000000000E+00 -0.00000000000E+00 -0.62640734744E+03  0.62640734744E+03  0.00000000000E+00 0. -1.
      99926    2    1    2    0    0  0.00000000000E+00  0.00000000000E+00 -0.54450961507E+03  0.70830507981E+03  0.45299598804E+03 0.  0.
      99925    2    3    3    0    0  0.94991091472E+02 -0.47499725398E+02 -0.29069627563E+03  0.40606634842E+03  0.26288024514E+03 0.  0.
         25    1    4    4    0    0  0.36557925011E+02  0.63783837742E+01 -0.99135371449E+02  0.16386731106E+03  0.12509000000E+03 0.  0.
         25    1    3    3    0    0 -0.94991091472E+02  0.47499725398E+02 -0.25381333944E+03  0.30223873139E+03  0.12509000000E+03 0.  0.
         25    1    4    4    0    0  0.58433166461E+02 -0.53878109172E+02 -0.19156090418E+03  0.24219903737E+03  0.12509000000E+03 0.  0.
<mgrwt>
<rscale>  2 0.45299599E+03</rscale>
<asrwt>0</asrwt>
<pdfrwt beam="1">  1       21 0.12043784E-01 0.45299599E+03</pdfrwt>
<pdfrwt beam="2">  1       21 0.92118730E-01 0.45299599E+03</pdfrwt>
<totfact> 0.53289657E+04</totfact>
</mgrwt>
</event>
<event>
 7    0  0.4775379E-002  0.4480870E+03  0.7546771E-02  0.1028294E+00
         21   -1    0    0  502  501  0.00000000000E+00  0.00000000000E+00  0.30718151254E+03  0.30718151254E+03  0.00000000000E+00 0. -1.
         21   -1    0    0  501  502 -0.00000000000E+00 -0.00000000000E+00 -0.16340662131E+03  0.16340662131E+03  0.00000000000E+00 0. -1.
      99926    2    1    2    0    0  0.14210854715E-13  0.00000000000E+00  0.14377489123E+03  0.47058813385E+03  0.44808701428E+03 0.  0.
      99925    2    3    3    0    0  0.80474003821E+02  0.45613667272E+02  0.35712617033E+02  0.28116364985E+03  0.26309871731E+03 0.  0.
         25    1    3    3    0    0 -0.80474003821E+02 -0.45613667272E+02  0.10806227420E+03  0.18942448400E+03  0.12509000000E+03 0.  0.
         25    1    4    4    0    0  0.63594339908E+02 -0.83316063691E+01  0.59159706029E+01  0.14069883632E+03  0.12509000000E+03 0.  0.
         25    1    4    4    0    0  0.16879663913E+02  0.53945273641E+02  0.29796646430E+02  0.14046481353E+03  0.12509000000E+03 0.  0.
<mgrwt>
<rscale>  2 0.44808701E+03</rscale>
<asrwt>0</asrwt>
<pdfrwt beam="1">  1       21 0.45173752E-01 0.44808701E+03</pdfrwt>
<pdfrwt beam="2">  1       21 0.24030386E-01 0.44808701E+03</pdfrwt>
<totfact> 0.71219447E+04</totfact>
</mgrwt>
</event>
<event>
 7    0  0.4775379E-002  0.4566719E+03  0.7546771E-02  0.1025751E+00
         21   -1    0    0  502  501  0.00000000000E+00  0.00000000000E+00  0.26441231044E+03  0.26441231044E+03  0.00000000000E+00 0. -1.
         21   -1    0    0  501  502 -0.00000000000E+00 -0.00000000000E+00 -0.19718180466E+03  0.19718180466E+03  0.00000000000E+00 0. -1.
      99926    2    1    2    0    0  0.00000000000E+00  0.00000000000E+00  0.67230505785E+02  0.46159411510E+03  0.45667185833E+03 0.  0.
      99925    2    3    3    0    0 -0.59126082609E+01  0.11087288774E+03  0.13089418525E+02  0.28579160772E+03  0.26301664204E+03 0.  0.
         25    1    3    3    0    0  0.59126082609E+01 -0.11087288774E+03  0.54141087260E+02  0.17580250738E+03  0.12509000000E+03 0.  0.
         25    1    4    4    0    0 -0.27800487505E+01  0.96442360574E+02  0.22085569746E+02  0.15951218786E+03  0.12509000000E+03 0.  0.
         25    1    4    4    0    0 -0.31325595104E+01  0.14430527166E+02 -0.89961512214E+01  0.12627941986E+03  0.12509000000E+03 0.  0.
<mgrwt>
<rscale>  2 0.45667186E+03</rscale>
<asrwt>0</asrwt>
<pdfrwt beam="1">  1       21 0.38884163E-01 0.45667186E+03</pdfrwt>
<pdfrwt beam="2">  1       21 0.28997324E-01 0.45667186E+03</pdfrwt>
<totfact> 0.67164602E+04</totfact>
</mgrwt>
</event>
<event>
 7    0  0.4775379E-002  0.4485523E+03  0.7546771E-02  0.1028155E+00
         21   -1    0    0  502  501  0.00000000000E+00  0.00000000000E+00  0.65278689063E+03  0.65278689063E+03  0.00000000000E+00 0. -1.
         21   -1    0    0  501  502 -0.00000000000E+00 -0.00000000000E+00 -0.77053940709E+02  0.77053940709E+02  0.00000000000E+00 0. -1.
      99926    2    1    2    0    0  0.00000000000E+00  0.00000000000E+00  0.57573294992E+03  0.72984083134E+03  0.44855234864E+03 0.  0.
      99925    2    3    3    0    0 -0.91482248990E+02 -0.55110236888E+01  0.27181813865E+03  0.38865013119E+03  0.26222976701E+03 0.  0.
         25    1    3    3    0    0  0.91482248990E+02  0.55110236888E+01  0.30391481127E+03  0.34119070016E+03  0.12509000000E+03 0.  0.
         25    1    4    4    0    0 -0.64027328184E+02 -0.34047652067E+01  0.92443175974E+02  0.16823893742E+03  0.12509000000E+03 0.  0.
         25    1    4    4    0    0 -0.27454920806E+02 -0.21062584820E+01  0.17937496268E+03  0.22041119376E+03  0.12509000000E+03 0.  0.
<mgrwt>
<rscale>  2 0.44855235E+03</rscale>
<asrwt>0</asrwt>
<pdfrwt beam="1">  1       21 0.95998069E-01 0.44855235E+03</pdfrwt>
<pdfrwt beam="2">  1       21 0.11331462E-01 0.44855235E+03</pdfrwt>
<totfact> 0.53998749E+04</totfact>
</mgrwt>
</event>
<event>
 7    0  0.4775379E-002  0.4578251E+03  0.7546771E-02  0.1025414E+00
         21   -1    0    0  502  501  0.00000000000E+00  0.00000000000E+00  0.30731355759E+03  0.30731355759E+03  0.00000000000E+00 0. -1.
         21   -1    0    0  501  502 -0.00000000000E+00 -0.00000000000E+00 -0.17051297032E+03  0.17051297032E+03  0.00000000000E+00 0. -1.
      99926    2    1    2    0    0  0.00000000000E+00  0.00000000000E+00  0.13680058726E+03  0.47782652791E+03  0.45782506495E+03 0.  0.
      99925    2    3    3    0    0 -0.65736658978E+02 -0.31395562758E+02 -0.80876908699E+01  0.27301658935E+03  0.26299364559E+03 0.  0.
         25    1    4    4    0    0 -0.81246392644E+01  0.70592918116E+01  0.20456583177E+02  0.12720779559E+03  0.12509000000E+03 0.  0.
         25    1    3    3    0    0  0.65736658978E+02  0.31395562758E+02  0.14488827813E+03  0.20480993856E+03  0.12509000000E+03 0.  0.
         25    1    4    4    0    0 -0.57612019714E+02 -0.38454854570E+02 -0.28544274047E+02  0.14580879376E+03  0.12509000000E+03 0.  0.
<mgrwt>
<rscale>  2 0.45782506E+03</rscale>
<asrwt>0</asrwt>
<pdfrwt beam="1">  1       21 0.45193171E-01 0.45782506E+03</pdfrwt>
<pdfrwt beam="2">  1       21 0.25075437E-01 0.45782506E+03</pdfrwt>
<totfact> 0.65380452E+04</totfact>
</mgrwt>
</event>
<event>
 7    0  0.4775379E-002  0.4555875E+03  0.7546771E-02  0.1026069E+00
         21   -1    0    0  502  501  0.00000000000E+00  0.00000000000E+00  0.47962259975E+02  0.47962259975E+02  0.00000000000E+00 0. -1.
         21   -1    0    0  501  502 -0.00000000000E+00 -0.00000000000E+00 -0.10818922063E+04  0.10818922063E+04  0.00000000000E+00 0. -1.
      99926    2    1    2    0    0  0.00000000000E+00  0.00000000000E+00 -0.10339299463E+04  0.11298544663E+04  0.45558751196E+03 0.  0.
      99925    2    3    3    0    0  0.35182586465E+02 -0.61426221570E+02 -0.87101039549E+03  0.91259590320E+03  0.26298512962E+03 0.  0.
         25    1    4    4    0    0  0.29364445487E+02  0.87360305339E+01 -0.40676586606E+03  0.42666681003E+03  0.12509000000E+03 0.  0.
         25    1    4    4    0    0  0.58181409780E+01 -0.70162252104E+02 -0.46424452943E+03  0.48592909317E+03  0.12509000000E+03 0.  0.
         25    1    3    3    0    0 -0.35182586465E+02  0.61426221570E+02 -0.16291955085E+03  0.21725856309E+03  0.12509000000E+03 0.  0.
<mgrwt>
<rscale>  2 0.45558751E+03</rscale>
<asrwt>0</asrwt>
<pdfrwt beam="1">  1       21 0.70532738E-02 0.45558751E+03</pdfrwt>
<pdfrwt beam="2">  1       21 0.15910179E+00 0.45558751E+03</pdfrwt>
<totfact> 0.34304769E+04</totfact>
</mgrwt>
</event>
<event>
 7    0  0.4775379E-002  0.4500090E+03  0.7546771E-02  0.1027719E+00
         21   -1    0    0  502  501  0.00000000000E+00  0.00000000000E+00  0.14590354249E+03  0.14590354249E+03  0.00000000000E+00 0. -1.
         21   -1    0    0  501  502 -0.00000000000E+00 -0.00000000000E+00 -0.34698962136E+03  0.34698962136E+03  0.00000000000E+00 0. -1.
      99926    2    1    2    0    0  0.00000000000E+00 -0.71054273576E-14 -0.20108607887E+03  0.49289316385E+03  0.45000895530E+03 0.  0.
      99925    2    3    3    0    0  0.70011676728E+02  0.41763277827E+02 -0.48703858095E+02  0.27955386704E+03  0.26293058500E+03 0.  0.
         25    1    3    3    0    0 -0.70011676728E+02 -0.41763277827E+02 -0.15238222078E+03  0.21333929681E+03  0.12509000000E+03 0.  0.
         25    1    4    4    0    0  0.21015618664E+02  0.58692016744E+02 -0.20803046058E+02  0.14130351688E+03  0.12509000000E+03 0.  0.
         25    1    4    4    0    0  0.48996058064E+02 -0.16928738917E+02 -0.27900812036E+02  0.13825035016E+03  0.12509000000E+03 0.  0.
<mgrwt>
<rscale>  2 0.45000896E+03</rscale>
<asrwt>0</asrwt>
<pdfrwt beam="1">  1       21 0.21456403E-01 0.45000896E+03</pdfrwt>
<pdfrwt beam="2">  1       21 0.51027885E-01 0.45000896E+03</pdfrwt>
<totfact> 0.68444811E+04</totfact>
</mgrwt>
</event>
<event>
 7    0  0.4775379E-002  0.4291708E+03  0.7546771E-02  0.1034122E+00
         21   -1    0    0  502  501  0.00000000000E+00  0.00000000000E+00  0.48954051054E+02  0.48954051054E+02  0.00000000000E+00 0.  1.
         21   -1    0    0  501  502 -0.00000000000E+00 -0.00000000000E+00 -0.94061464007E+03  0.94061464007E+03  0.00000000000E+00 0.  1.
      99926    2    1    2    0    0 -0.35527136788E-14  0.00000000000E+00 -0.89166058902E+03  0.98956869112E+03  0.42917081500E+03 0.  0.
      99925    2    3    3    0    0  0.22331315793E+02 -0.80082531185E+02 -0.62891746163E+03  0.68692474429E+03  0.26347017157E+03 0.  0.
         25    1    3    3    0    0 -0.22331315793E+02  0.80082531185E+02 -0.26274312738E+03  0.30264394683E+03  0.12509000000E+03 0.  0.
         25    1    4    4    0    0  0.31578844561E+02 -0.42476923711E+02 -0.23053578328E+03  0.26757385512E+03  0.12509000000E+03 0.  0.
         25    1    4    4    0    0 -0.92475287679E+01 -0.37605607473E+02 -0.39838167836E+03  0.41935088917E+03  0.12509000000E+03 0.  0.
<mgrwt>
<rscale>  2 0.42917081E+03</rscale>
<asrwt>0</asrwt>
<pdfrwt beam="1">  1       21 0.71991248E-02 0.42917081E+03</pdfrwt>
<pdfrwt beam="2">  1       21 0.13832569E+00 0.42917081E+03</pdfrwt>
<totfact> 0.48678879E+04</totfact>
</mgrwt>
</event>
<event>
 7    0  0.4775379E-002  0.4379187E+03  0.7546771E-02  0.1031387E+00
         21   -1    0    0  502  501  0.00000000000E+00  0.00000000000E+00  0.39904539187E+03  0.39904539187E+03  0.00000000000E+00 0. -1.
         21   -1    0    0  501  502 -0.00000000000E+00 -0.00000000000E+00 -0.12014473777E+03  0.12014473777E+03  0.00000000000E+00 0. -1.
      99926    2    1    2    0    0  0.00000000000E+00  0.00000000000E+00  0.27890065410E+03  0.51919012964E+03  0.43791873202E+03 0.  0.
      99925    2    3    3    0    0  0.48042173064E+02  0.71770335046E+02  0.22944331620E+03  0.35933842412E+03  0.26271816898E+03 0.  0.
         25    1    4    4    0    0  0.63878364504E+02  0.36101859329E+02  0.10981582562E+03  0.18190880505E+03  0.12509000000E+03 0.  0.
         25    1    3    3    0    0 -0.48042173064E+02 -0.71770335046E+02  0.49457337900E+02  0.15985170552E+03  0.12509000000E+03 0.  0.
         25    1    4    4    0    0 -0.15836191441E+02  0.35668475717E+02  0.11962749058E+03  0.17742961906E+03  0.12509000000E+03 0.  0.
<mgrwt>
<rscale>  2 0.43791873E+03</rscale>
<asrwt>0</asrwt>
<pdfrwt beam="1">  1       21 0.58683145E-01 0.43791873E+03</pdfrwt>
<pdfrwt beam="2">  1       21 0.17668344E-01 0.43791873E+03</pdfrwt>
<totfact> 0.73382086E+04</totfact>
</mgrwt>
</event>
<event>
 7    0  0.4775379E-002  0.4593716E+03  0.7546771E-02  0.1024964E+00
         21   -1    0    0  502  501  0.00000000000E+00  0.00000000000E+00  0.15527090547E+03  0.15527090547E+03  0.00000000000E+00 0. -1.
         21   -1    0    0  501  502 -0.00000000000E+00 -0.00000000000E+00 -0.33976466366E+03  0.33976466366E+03  0.00000000000E+00 0. -1.
      99926    2    1    2    0    0  0.35527136788E-14  0.00000000000E+00 -0.18449375819E+03  0.49503556913E+03  0.45937160109E+03 0.  0.
      99925    2    3    3    0    0  0.30325379948E+02 -0.78606424740E+02 -0.27815351718E+02  0.27756320345E+03  0.26300007498E+03 0.  0.
         25    1    4    4    0    0  0.37699416689E+02 -0.75335890068E+02 -0.15948106497E+02  0.15165286859E+03  0.12509000000E+03 0.  0.
         25    1    4    4    0    0 -0.73740367413E+01 -0.32705346722E+01 -0.11867245221E+02  0.12591033486E+03  0.12509000000E+03 0.  0.
         25    1    3    3    0    0 -0.30325379948E+02  0.78606424740E+02 -0.15667840647E+03  0.21747236568E+03  0.12509000000E+03 0.  0.
<mgrwt>
<rscale>  2 0.45937160E+03</rscale>
<asrwt>0</asrwt>
<pdfrwt beam="1">  1       21 0.22833957E-01 0.45937160E+03</pdfrwt>
<pdfrwt beam="2">  1       21 0.49965390E-01 0.45937160E+03</pdfrwt>
<totfact> 0.63392124E+04</totfact>
</mgrwt>
</event>
<event>
 7    0  0.4775379E-002  0.4922306E+03  0.7546771E-02  0.1015827E+00
         21   -1    0    0  502  501  0.00000000000E+00  0.00000000000E+00  0.18067562829E+03  0.18067562829E+03  0.00000000000E+00 0. -1.
         21   -1    0    0  501  502 -0.00000000000E+00 -0.00000000000E+00 -0.33525686730E+03  0.33525686730E+03  0.00000000000E+00 0. -1.
      99926    2    1    2    0    0  0.71054273576E-14  0.00000000000E+00 -0.15458123901E+03  0.51593249559E+03  0.49223061725E+03 0.  0.
      99925    2    3    3    0    0  0.57180411911E+02 -0.13250292038E+03 -0.11233697201E+03  0.32033415815E+03  0.26299763152E+03 0.  0.
         25    1    4    4    0    0  0.11248633994E+02 -0.28605298858E+02 -0.29489171884E+02  0.13214353653E+03  0.12509000000E+03 0.  0.
         25    1    3    3    0    0 -0.57180411911E+02  0.13250292038E+03 -0.42244267000E+02  0.19559833744E+03  0.12509000000E+03 0.  0.
         25    1    4    4    0    0  0.45931777917E+02 -0.10389762152E+03 -0.82847800122E+02  0.18819062162E+03  0.12509000000E+03 0.  0.
<mgrwt>
<rscale>  2 0.49223062E+03</rscale>
<asrwt>0</asrwt>
<pdfrwt beam="1">  1       21 0.26569946E-01 0.49223062E+03</pdfrwt>
<pdfrwt beam="2">  1       21 0.49302480E-01 0.49223062E+03</pdfrwt>
<totfact> 0.48249925E+04</totfact>
</mgrwt>
</event>
<event>
 7    0  0.4775379E-002  0.4659119E+03  0.7546771E-02  0.1023080E+00
         21   -1    0    0  502  501  0.00000000000E+00  0.00000000000E+00  0.19235370366E+03  0.19235370366E+03  0.00000000000E+00 0. -1.
         21   -1    0    0  501  502 -0.00000000000E+00 -0.00000000000E+00 -0.28212857357E+03  0.28212857357E+03  0.00000000000E+00 0. -1.
      99926    2    1    2    0    0  0.14210854715E-13  0.00000000000E+00 -0.89774869909E+02  0.47448227723E+03  0.46591190598E+03 0.  0.
      99925    2    3    3    0    0 -0.11822399617E+03  0.26518438156E+02 -0.33616735701E+02  0.29150308451E+03  0.26299015671E+03 0.  0.
         25    1    4    4    0    0 -0.23514224063E+02  0.85346720235E+01 -0.39272480597E+02  0.13347507330E+03  0.12509000000E+03 0.  0.
         25    1    4    4    0    0 -0.94709772103E+02  0.17983766133E+02  0.56557448963E+01  0.15802801121E+03  0.12509000000E+03 0.  0.
         25    1    3    3    0    0  0.11822399617E+03 -0.26518438156E+02 -0.56158134209E+02  0.18297919272E+03  0.12509000000E+03 0.  0.
<mgrwt>
<rscale>  2 0.46591191E+03</rscale>
<asrwt>0</asrwt>
<pdfrwt beam="1">  1       21 0.28287310E-01 0.46591191E+03</pdfrwt>
<pdfrwt beam="2">  1       21 0.41489496E-01 0.46591191E+03</pdfrwt>
<totfact> 0.61593467E+04</totfact>
</mgrwt>
</event>
<event>
 7    0  0.4775379E-002  0.4595995E+03  0.7546771E-02  0.1024897E+00
         21   -1    0    0  502  501  0.00000000000E+00  0.00000000000E+00  0.69022543323E+03  0.69022543323E+03  0.00000000000E+00 0.  1.
         21   -1    0    0  501  502 -0.00000000000E+00 -0.00000000000E+00 -0.76508243156E+02  0.76508243156E+02  0.00000000000E+00 0.  1.
      99926    2    1    2    0    0  0.00000000000E+00  0.00000000000E+00  0.61371719007E+03  0.76673367638E+03  0.45959954429E+03 0.  0.
      99925    2    3    3    0    0  0.10759467996E+03  0.30758361368E+02  0.32511952498E+03  0.43287919858E+03  0.26298099379E+03 0.  0.
         25    1    3    3    0    0 -0.10759467996E+03 -0.30758361368E+02  0.28859766510E+03  0.33385447780E+03  0.12509000000E+03 0.  0.
         25    1    4    4    0    0  0.11318469248E+02  0.22206660256E+02  0.15261667367E+03  0.19889846829E+03  0.12509000000E+03 0.  0.
         25    1    4    4    0    0  0.96276210707E+02  0.85517011120E+01  0.17250285131E+03  0.23398073030E+03  0.12509000000E+03 0.  0.
<mgrwt>
<rscale>  2 0.45959954E+03</rscale>
<asrwt>0</asrwt>
<pdfrwt beam="1">  1       21 0.10150374E+00 0.45959954E+03</pdfrwt>
<pdfrwt beam="2">  1       21 0.11251213E-01 0.45959954E+03</pdfrwt>
<totfact> 0.47671036E+04</totfact>
</mgrwt>
</event>
<event>
 7    0  0.4775379E-002  0.4567382E+03  0.7546771E-02  0.1025731E+00
         21   -1    0    0  502  501  0.00000000000E+00  0.00000000000E+00  0.46449850769E+03  0.46449850769E+03  0.00000000000E+00 0.  1.
         21   -1    0    0  501  502 -0.00000000000E+00 -0.00000000000E+00 -0.11227689945E+03  0.11227689945E+03  0.00000000000E+00 0.  1.
      99926    2    1    2    0    0  0.00000000000E+00  0.00000000000E+00  0.35222160824E+03  0.57677540715E+03  0.45673822807E+03 0.  0.
      99925    2    3    3    0    0  0.94499637272E+02  0.71651153399E+01  0.13953887639E+03  0.31245935987E+03  0.26301755307E+03 0.  0.
         25    1    4    4    0    0  0.56634987003E+02 -0.23483750532E+01  0.27518587522E+02  0.14006361904E+03  0.12509000000E+03 0.  0.
         25    1    4    4    0    0  0.37864650269E+02  0.95134903930E+01  0.11202028887E+03  0.17239574084E+03  0.12509000000E+03 0.  0.
         25    1    3    3    0    0 -0.94499637272E+02 -0.71651153399E+01  0.21268273184E+03  0.26431604728E+03  0.12509000000E+03 0.  0.
<mgrwt>
<rscale>  2 0.45673823E+03</rscale>
<asrwt>0</asrwt>
<pdfrwt beam="1">  1       21 0.68308603E-01 0.45673823E+03</pdfrwt>
<pdfrwt beam="2">  1       21 0.16511309E-01 0.45673823E+03</pdfrwt>
<totfact> 0.59311725E+04</totfact>
</mgrwt>
</event>
<event>
 7    0  0.4775379E-002  0.4562810E+03  0.7546771E-02  0.1025865E+00
         21   -1    0    0  502  501  0.00000000000E+00  0.00000000000E+00  0.32320702236E+03  0.32320702236E+03  0.00000000000E+00 0. -1.
         21   -1    0    0  501  502 -0.00000000000E+00 -0.00000000000E+00 -0.16103641158E+03  0.16103641158E+03  0.00000000000E+00 0. -1.
      99926    2    1    2    0    0  0.00000000000E+00  0.00000000000E+00  0.16217061078E+03  0.48424343393E+03  0.45628104969E+03 0.  0.
      99925    2    3    3    0    0 -0.27667698437E+02  0.10963216676E+03  0.85265111286E+02  0.29891486766E+03  0.26323990081E+03 0.  0.
         25    1    3    3    0    0  0.27667698437E+02 -0.10963216676E+03  0.76905499495E+02  0.18532856628E+03  0.12509000000E+03 0.  0.
         25    1    4    4    0    0  0.16774826990E+02  0.74649672384E+02  0.24010004628E+02  0.14858652977E+03  0.12509000000E+03 0.  0.
         25    1    4    4    0    0 -0.44442525427E+02  0.34982494380E+02  0.61255106658E+02  0.15032833788E+03  0.12509000000E+03 0.  0.
<mgrwt>
<rscale>  2 0.45628105E+03</rscale>
<asrwt>0</asrwt>
<pdfrwt beam="1">  1       21 0.47530445E-01 0.45628105E+03</pdfrwt>
<pdfrwt beam="2">  1       21 0.23681825E-01 0.45628105E+03</pdfrwt>
<totfact> 0.65721605E+04</totfact>
</mgrwt>
</event>
<event>
 7    0  0.4775379E-002  0.4495518E+03  0.7546771E-02  0.1027856E+00
         21   -1    0    0  502  501  0.00000000000E+00  0.00000000000E+00  0.35209440195E+03  0.35209440195E+03  0.00000000000E+00 0. -1.
         21   -1    0    0  501  502 -0.00000000000E+00 -0.00000000000E+00 -0.14349618171E+03  0.14349618171E+03  0.00000000000E+00 0. -1.
      99926    2    1    2    0    0  0.00000000000E+00  0.00000000000E+00  0.20859822024E+03  0.49559058366E+03  0.44955178692E+03 0.  0.
      99925    2    3    3    0    0  0.76273406705E+02 -0.52861872665E+02  0.72431959693E+02  0.28870711703E+03  0.26361600954E+03 0.  0.
         25    1    3    3    0    0 -0.76273406705E+02  0.52861872665E+02  0.13616626055E+03  0.20688346663E+03  0.12509000000E+03 0.  0.
         25    1    4    4    0    0  0.66114362683E+01 -0.43568213690E+02  0.57152003477E+02  0.14441523443E+03  0.12509000000E+03 0.  0.
         25    1    4    4    0    0  0.69661970437E+02 -0.92936589756E+01  0.15279956216E+02  0.14429188260E+03  0.12509000000E+03 0.  0.
<mgrwt>
<rscale>  2 0.44955179E+03</rscale>
<asrwt>0</asrwt>
<pdfrwt beam="1">  1       21 0.51778588E-01 0.44955179E+03</pdfrwt>
<pdfrwt beam="2">  1       21 0.21102380E-01 0.44955179E+03</pdfrwt>
<totfact> 0.68496365E+04</totfact>
</mgrwt>
</event>
<event>
 7    0  0.4775379E-002  0.4386577E+03  0.7546771E-02  0.1031159E+00
         21   -1    0    0  502  501  0.00000000000E+00  0.00000000000E+00  0.18724418657E+04  0.18724418657E+04  0.00000000000E+00 0.  1.
         21   -1    0    0  501  502 -0.00000000000E+00 -0.00000000000E+00 -0.25691124935E+02  0.25691124935E+02  0.00000000000E+00 0.  1.
      99926    2    1    2    0    0  0.00000000000E+00  0.00000000000E+00  0.18467507407E+04  0.18981329906E+04  0.43865767019E+03 0.  0.
      99925    2    3    3    0    0 -0.65244522289E+02  0.50698874277E+02  0.96017557098E+03  0.99897212443E+03  0.26302272665E+03 0.  0.
         25    1    3    3    0    0  0.65244522289E+02 -0.50698874277E+02  0.88657516973E+03  0.89916086616E+03  0.12509000000E+03 0.  0.
         25    1    4    4    0    0 -0.48489633462E+02  0.10917590599E+01  0.37463046188E+03  0.39792955100E+03  0.12509000000E+03 0.  0.
         25    1    4    4    0    0 -0.16754888826E+02  0.49607115217E+02  0.58554510910E+03  0.60104257343E+03  0.12509000000E+03 0.  0.
<mgrwt>
<rscale>  2 0.43865767E+03</rscale>
<asrwt>0</asrwt>
<pdfrwt beam="1">  1       21 0.27535901E+00 0.43865767E+03</pdfrwt>
<pdfrwt beam="2">  1       21 0.37781079E-02 0.43865767E+03</pdfrwt>
<totfact> 0.17570079E+04</totfact>
</mgrwt>
</event>
<event>
 7    0  0.4775379E-002  0.4590713E+03  0.7546771E-02  0.1025051E+00
         21   -1    0    0  502  501  0.00000000000E+00  0.00000000000E+00  0.14918382100E+03  0.14918382100E+03  0.00000000000E+00 0.  1.
         21   -1    0    0  501  502 -0.00000000000E+00 -0.00000000000E+00 -0.35316578649E+03  0.35316578649E+03  0.00000000000E+00 0.  1.
      99926    2    1    2    0    0  0.00000000000E+00  0.00000000000E+00 -0.20398196549E+03  0.50234960750E+03  0.45907132987E+03 0.  0.
      99925    2    3    3    0    0 -0.96054849740E+02 -0.10443567000E+02 -0.55237215844E+02  0.28530557764E+03  0.26270234176E+03 0.  0.
         25    1    3    3    0    0  0.96054849740E+02  0.10443567000E+02 -0.14874474965E+03  0.21704402986E+03  0.12509000000E+03 0.  0.
         25    1    4    4    0    0 -0.22203711514E+02 -0.29423460365E+01 -0.58304248019E+02  0.13981614943E+03  0.12509000000E+03 0.  0.
         25    1    4    4    0    0 -0.73851138226E+02 -0.75012209634E+01  0.30670321754E+01  0.14548942821E+03  0.12509000000E+03 0.  0.
<mgrwt>
<rscale>  2 0.45907133E+03</rscale>
<asrwt>0</asrwt>
<pdfrwt beam="1">  1       21 0.21938797E-01 0.45907133E+03</pdfrwt>
<pdfrwt beam="2">  1       21 0.51936145E-01 0.45907133E+03</pdfrwt>
<totfact> 0.63043670E+04</totfact>
</mgrwt>
</event>
<event>
 7    0  0.4775379E-002  0.4570163E+03  0.7546771E-02  0.1025650E+00
         21   -1    0    0  502  501  0.00000000000E+00  0.00000000000E+00  0.96463905060E+03  0.96463905060E+03  0.00000000000E+00 0. -1.
         21   -1    0    0  501  502 -0.00000000000E+00 -0.00000000000E+00 -0.54130058890E+02  0.54130058890E+02  0.00000000000E+00 0. -1.
      99926    2    1    2    0    0  0.00000000000E+00  0.00000000000E+00  0.91050899171E+03  0.10187691095E+04  0.45701627374E+03 0.  0.
      99925    2    3    3    0    0 -0.19842842128E+02 -0.52983095486E+02  0.79531359260E+03  0.83955294151E+03  0.26291535563E+03 0.  0.
         25    1    3    3    0    0  0.19842842128E+02  0.52983095486E+02  0.11519539911E+03  0.17921616798E+03  0.12509000000E+03 0.  0.
         25    1    4    4    0    0 -0.66313119726E+01 -0.19357061168E+02  0.26890589654E+03  0.29728195272E+03  0.12509000000E+03 0.  0.
         25    1    4    4    0    0 -0.13211530156E+02 -0.33626034318E+02  0.52640769606E+03  0.54227098879E+03  0.12509000000E+03 0.  0.
<mgrwt>
<rscale>  2 0.45701627E+03</rscale>
<asrwt>0</asrwt>
<pdfrwt beam="1">  1       21 0.14185867E+00 0.45701627E+03</pdfrwt>
<pdfrwt beam="2">  1       21 0.79603034E-02 0.45701627E+03</pdfrwt>
<totfact> 0.37845279E+04</totfact>
</mgrwt>
</event>
<event>
 7    0  0.4775379E-002  0.4454878E+03  0.7546771E-02  0.1029076E+00
         21   -1    0    0  502  501  0.00000000000E+00  0.00000000000E+00  0.23219908578E+03  0.23219908578E+03  0.00000000000E+00 0. -1.
         21   -1    0    0  501  502 -0.00000000000E+00 -0.00000000000E+00 -0.21367370786E+03  0.21367370786E+03  0.00000000000E+00 0. -1.
      99926    2    1    2    0    0  0.00000000000E+00  0.00000000000E+00  0.18525377922E+02  0.44587279364E+03  0.44548777591E+03 0.  0.
      99925    2    3    3    0    0  0.62112738939E+02 -0.79592558867E+02  0.36603169379E+02  0.28410974963E+03  0.26303153815E+03 0.  0.
         25    1    4    4    0    0  0.25618493369E+02 -0.28549743184E+02  0.56944082225E+02  0.14269383883E+03  0.12509000000E+03 0.  0.
         25    1    4    4    0    0  0.36494245570E+02 -0.51042815684E+02 -0.20340912846E+02  0.14141591080E+03  0.12509000000E+03 0.  0.
         25    1    3    3    0    0 -0.62112738939E+02  0.79592558867E+02 -0.18077791457E+02  0.16176304402E+03  0.12509000000E+03 0.  0.
<mgrwt>
<rscale>  2 0.44548778E+03</rscale>
<asrwt>0</asrwt>
<pdfrwt beam="1">  1       21 0.34146924E-01 0.44548778E+03</pdfrwt>
<pdfrwt beam="2">  1       21 0.31422604E-01 0.44548778E+03</pdfrwt>
<totfact> 0.74732658E+04</totfact>
</mgrwt>
</event>
<event>
 7    0  0.4775379E-002  0.4617610E+03  0.7546771E-02  0.1024272E+00
         21   -1    0    0  502  501  0.00000000000E+00  0.00000000000E+00  0.10240190983E+03  0.10240190983E+03  0.00000000000E+00 0.  1.
         21   -1    0    0  501  502 -0.00000000000E+00 -0.00000000000E+00 -0.52055482869E+03  0.52055482869E+03  0.00000000000E+00 0.  1.
      99926    2    1    2    0    0  0.00000000000E+00  0.35527136788E-14 -0.41815291886E+03  0.62295673852E+03  0.46176101451E+03 0.  0.
      99925    2    3    3    0    0 -0.86709543655E+01 -0.26475598860E+02 -0.41820279315E+03  0.49480193614E+03  0.26298143856E+03 0.  0.
         25    1    4    4    0    0  0.32892414093E+02  0.40754073589E+00 -0.18860513505E+03  0.22869517280E+03  0.12509000000E+03 0.  0.
         25    1    3    3    0    0  0.86709543655E+01  0.26475598860E+02  0.49874293740E-01  0.12815480238E+03  0.12509000000E+03 0.  0.
         25    1    4    4    0    0 -0.41563368458E+02 -0.26883139596E+02 -0.22959765810E+03  0.26610676335E+03  0.12509000000E+03 0.  0.
<mgrwt>
<rscale>  2 0.46176101E+03</rscale>
<asrwt>0</asrwt>
<pdfrwt beam="1">  1       21 0.15059104E-01 0.46176101E+03</pdfrwt>
<pdfrwt beam="2">  1       21 0.76552182E-01 0.46176101E+03</pdfrwt>
<totfact> 0.54328038E+04</totfact>
</mgrwt>
</event>
<event>
 7    0  0.4775379E-002  0.4534153E+03  0.7546771E-02  0.1026708E+00
         21   -1    0    0  502  501  0.00000000000E+00  0.00000000000E+00  0.74077491204E+02  0.74077491204E+02  0.00000000000E+00 0. -1.
         21   -1    0    0  501  502 -0.00000000000E+00 -0.00000000000E+00 -0.69381882415E+03  0.69381882415E+03  0.00000000000E+00 0. -1.
      99926    2    1    2    0    0  0.00000000000E+00  0.00000000000E+00 -0.61974133294E+03  0.76789631535E+03  0.45341529680E+03 0.  0.
      99925    2    3    3    0    0 -0.23366016888E+02 -0.10886411009E+03 -0.40623195244E+03  0.49654575081E+03  0.26293709944E+03 0.  0.
         25    1    4    4    0    0 -0.17119647211E+02 -0.63206652315E+02 -0.14017130901E+03  0.19895644545E+03  0.12509000000E+03 0.  0.
         25    1    3    3    0    0  0.23366016888E+02  0.10886411009E+03 -0.21350938051E+03  0.27135056454E+03  0.12509000000E+03 0.  0.
         25    1    4    4    0    0 -0.62463696766E+01 -0.45657457773E+02 -0.26606064343E+03  0.29758930536E+03  0.12509000000E+03 0.  0.
<mgrwt>
<rscale>  2 0.45341530E+03</rscale>
<asrwt>0</asrwt>
<pdfrwt beam="1">  1       21 0.10893750E-01 0.45341530E+03</pdfrwt>
<pdfrwt beam="2">  1       21 0.10203217E+00 0.45341530E+03</pdfrwt>
<totfact> 0.49975552E+04</totfact>
</mgrwt>
</event>
<event>
 7    0  0.4775379E-002  0.4564620E+03  0.7546771E-02  0.1025812E+00
         21   -1    0    0  502  501  0.00000000000E+00  0.00000000000E+00  0.65470558389E+03  0.65470558389E+03  0.00000000000E+00 0.  1.
         21   -1    0    0  501  502 -0.00000000000E+00 -0.00000000000E+00 -0.79561549504E+02  0.79561549504E+02  0.00000000000E+00 0.  1.
      99926    2    1    2    0    0 -0.35527136788E-14 -0.14210854715E-13  0.57514403439E+03  0.73426713339E+03  0.45646200597E+03 0.  0.
      99925    2    3    3    0    0 -0.27911038858E+02 -0.10905986948E+03  0.32673330603E+03  0.43421967167E+03  0.26290490444E+03 0.  0.
         25    1    3    3    0    0  0.27911038858E+02  0.10905986948E+03  0.24841072836E+03  0.30004746172E+03  0.12509000000E+03 0.  0.
         25    1    4    4    0    0 -0.27900780883E+02 -0.16630089653E+02  0.16836627804E+03  0.21224920526E+03  0.12509000000E+03 0.  0.
         25    1    4    4    0    0 -0.10257974886E-01 -0.92429779823E+02  0.15836702799E+03  0.22197046641E+03  0.12509000000E+03 0.  0.
<mgrwt>
<rscale>  2 0.45646201E+03</rscale>
<asrwt>0</asrwt>
<pdfrwt beam="1">  1       21 0.96280230E-01 0.45646201E+03</pdfrwt>
<pdfrwt beam="2">  1       21 0.11700228E-01 0.45646201E+03</pdfrwt>
<totfact> 0.50498669E+04</totfact>
</mgrwt>
</event>
<event>
 7    0  0.4775379E-002  0.4673691E+03  0.7546771E-02  0.1022665E+00
         21   -1    0    0  502  501  0.00000000000E+00  0.00000000000E+00  0.23567158813E+04  0.23567158813E+04  0.00000000000E+00 0. -1.
         21   -1    0    0  501  502 -0.00000000000E+00 -0.00000000000E+00 -0.23171423879E+02  0.23171423879E+02  0.00000000000E+00 0. -1.
      99926    2    1    2    0    0 -0.14210854715E-13  0.00000000000E+00  0.23335444574E+04  0.23798873051E+04  0.46736907321E+03 0.  0.
      99925    2    3    3    0    0 -0.10276990989E+03  0.11621137768E+02  0.18050195205E+04  0.18270014017E+04  0.26294856379E+03 0.  0.
         25    1    4    4    0    0 -0.68994593405E+02 -0.26202600392E+02  0.81774549000E+03  0.83054321061E+03  0.12509000000E+03 0.  0.
         25    1    4    4    0    0 -0.33775316482E+02  0.37823738160E+02  0.98727403047E+03  0.99645819105E+03  0.12509000000E+03 0.  0.
         25    1    3    3    0    0  0.10276990989E+03 -0.11621137768E+02  0.52852493691E+03  0.55288590347E+03  0.12509000000E+03 0.  0.
<mgrwt>
<rscale>  2 0.46736907E+03</rscale>
<asrwt>0</asrwt>
<pdfrwt beam="1">  1       21 0.34657570E+00 0.46736907E+03</pdfrwt>
<pdfrwt beam="2">  1       21 0.34075639E-02 0.46736907E+03</pdfrwt>
<totfact> 0.76753604E+03</totfact>
</mgrwt>
</event>
<event>
 7    0  0.4775379E-002  0.4551144E+03  0.7546771E-02  0.1026208E+00
         21   -1    0    0  502  501  0.00000000000E+00  0.00000000000E+00  0.71718890861E+02  0.71718890861E+02  0.00000000000E+00 0. -1.
         21   -1    0    0  501  502 -0.00000000000E+00 -0.00000000000E+00 -0.72201732585E+03  0.72201732585E+03  0.00000000000E+00 0. -1.
      99926    2    1    2    0    0  0.00000000000E+00 -0.14210854715E-13 -0.65029843499E+03  0.79373621671E+03  0.45511441108E+03 0.  0.
      99925    2    3    3    0    0 -0.56364355223E+02  0.67542899279E+02 -0.28540030842E+03  0.39808847609E+03  0.26321495962E+03 0.  0.
         25    1    4    4    0    0 -0.48500281042E+02  0.69450918779E+02 -0.17351547849E+03  0.23006702666E+03  0.12509000000E+03 0.  0.
         25    1    3    3    0    0  0.56364355223E+02 -0.67542899279E+02 -0.36489812657E+03  0.39564774062E+03  0.12509000000E+03 0.  0.
         25    1    4    4    0    0 -0.78640741808E+01 -0.19080195002E+01 -0.11188482993E+03  0.16802144943E+03  0.12509000000E+03 0.  0.
<mgrwt>
<rscale>  2 0.45511441E+03</rscale>
<asrwt>0</asrwt>
<pdfrwt beam="1">  1       21 0.10546896E-01 0.45511441E+03</pdfrwt>
<pdfrwt beam="2">  1       21 0.10617902E+00 0.45511441E+03</pdfrwt>
<totfact> 0.48026144E+04</totfact>
</mgrwt>
</event>
<event>
 7    0  0.4775379E-002  0.4531084E+03  0.7546771E-02  0.1026799E+00
         21   -1    0    0  502  501  0.00000000000E+00  0.00000000000E+00  0.74016657545E+03  0.74016657545E+03  0.00000000000E+00 0. -1.
         21   -1    0    0  501  502 -0.00000000000E+00 -0.00000000000E+00 -0.69344943479E+02  0.69344943479E+02  0.00000000000E+00 0. -1.
      99926    2    1    2    0    0 -0.14210854715E-13  0.00000000000E+00  0.67082163197E+03  0.80951151892E+03  0.45310841678E+03 0.  0.
      99925    2    3    3    0    0  0.11038771952E+03 -0.80113424968E+01  0.40023394321E+03  0.49152592863E+03  0.26298459839E+03 0.  0.
         25    1    4    4    0    0  0.37299083493E+02  0.21815353698E+02  0.23542862294E+03  0.27007642600E+03  0.12509000000E+03 0.  0.
         25    1    3    3    0    0 -0.11038771952E+03  0.80113424968E+01  0.27058768876E+03  0.31798559030E+03  0.12509000000E+03 0.  0.
         25    1    4    4    0    0  0.73088636022E+02 -0.29826696195E+02  0.16480532027E+03  0.22144950262E+03  0.12509000000E+03 0.  0.
<mgrwt>
<rscale>  2 0.45310842E+03</rscale>
<asrwt>0</asrwt>
<pdfrwt beam="1">  1       21 0.10884802E+00 0.45310842E+03</pdfrwt>
<pdfrwt beam="2">  1       21 0.10197786E-01 0.45310842E+03</pdfrwt>
<totfact> 0.48016982E+04</totfact>
</mgrwt>
</event>
<event>
 7    0  0.4775379E-002  0.4538558E+03  0.7546771E-02  0.1026578E+00
         21   -1    0    0  502  501  0.00000000000E+00  0.00000000000E+00  0.54047039142E+03  0.54047039142E+03  0.00000000000E+00 0.  1.
         21   -1    0    0  501  502 -0.00000000000E+00 -0.00000000000E+00 -0.95280470694E+02  0.95280470694E+02  0.00000000000E+00 0.  1.
      99926    2    1    2    0    0  0.00000000000E+00  0.14210854715E-13  0.44518992073E+03  0.63575086211E+03  0.45385580658E+03 0.  0.
      99925    2    3    3    0    0 -0.27356096780E+02  0.79745523237E+02  0.38379551678E+03  0.47288746708E+03  0.26308905965E+03 0.  0.
         25    1    4    4    0    0  0.37817668574E+01  0.75224549030E+02  0.18111295304E+03  0.23264230999E+03  0.12509000000E+03 0.  0.
         25    1    3    3    0    0  0.27356096780E+02 -0.79745523237E+02  0.61394403943E+02  0.16286339504E+03  0.12509000000E+03 0.  0.
         25    1    4    4    0    0 -0.31137863638E+02  0.45209742073E+01  0.20268256374E+03  0.24024515709E+03  0.12509000000E+03 0.  0.
<mgrwt>
<rscale>  2 0.45385581E+03</rscale>
<asrwt>0</asrwt>
<pdfrwt beam="1">  1       21 0.79480939E-01 0.45385581E+03</pdfrwt>
<pdfrwt beam="2">  1       21 0.14011834E-01 0.45385581E+03</pdfrwt>
<totfact> 0.57043333E+04</totfact>
</mgrwt>
</event>
<event>
 7    0  0.4775379E-002  0.4593259E+03  0.7546771E-02  0.1024977E+00
         21   -1    0    0  502  501  0.00000000000E+00  0.00000000000E+00  0.78394248500E+02  0.78394248500E+02  0.00000000000E+00 0.  1.
         21   -1    0    0  501  502 -0.00000000000E+00 -0.00000000000E+00 -0.67281815420E+03  0.67281815420E+03  0.00000000000E+00 0.  1.
      99926    2    1    2    0    0  0.00000000000E+00  0.00000000000E+00 -0.59442390570E+03  0.75121240270E+03  0.45932591294E+03 0.  0.
      99925    2    3    3    0    0 -0.76674052394E+02 -0.88498747762E+02 -0.36856934247E+03  0.46771861001E+03  0.26307109166E+03 0.  0.
         25    1    3    3    0    0  0.76674052394E+02  0.88498747762E+02 -0.22585456322E+03  0.28349379269E+03  0.12509000000E+03 0.  0.
         25    1    4    4    0    0 -0.57056842647E+01 -0.55739836428E+02 -0.21341233077E+03  0.25363717240E+03  0.12509000000E+03 0.  0.
         25    1    4    4    0    0 -0.70968368129E+02 -0.32758911334E+02 -0.15515701171E+03  0.21408143761E+03  0.12509000000E+03 0.  0.
<mgrwt>
<rscale>  2 0.45932591E+03</rscale>
<asrwt>0</asrwt>
<pdfrwt beam="1">  1       21 0.11528565E-01 0.45932591E+03</pdfrwt>
<pdfrwt beam="2">  1       21 0.98943851E-01 0.45932591E+03</pdfrwt>
<totfact> 0.48537708E+04</totfact>
</mgrwt>
</event>
<event>
 7    0  0.4775379E-002  0.4733960E+03  0.7546771E-02  0.1020966E+00
         21   -1    0    0  502  501  0.00000000000E+00  0.00000000000E+00  0.67140658353E+02  0.67140658353E+02  0.00000000000E+00 0. -1.
         21   -1    0    0  501  502 -0.00000000000E+00 -0.00000000000E+00 -0.83445643894E+03  0.83445643894E+03  0.00000000000E+00 0. -1.
      99926    2    1    2    0    0 -0.71054273576E-14  0.00000000000E+00 -0.76731578058E+03  0.90159709729E+03  0.47339604847E+03 0.  0.
      99925    2    3    3    0    0 -0.33150487269E+02  0.94832774999E+02 -0.32040087529E+03  0.42675749206E+03  0.26338759675E+03 0.  0.
         25    1    4    4    0    0  0.15767819933E+02  0.25547341673E+02 -0.12147074406E+03  0.17692919650E+03  0.12509000000E+03 0.  0.
         25    1    4    4    0    0 -0.48918307201E+02  0.69285433326E+02 -0.19893013123E+03  0.24982829556E+03  0.12509000000E+03 0.  0.
         25    1    3    3    0    0  0.33150487269E+02 -0.94832774999E+02 -0.44691490530E+03  0.47483960523E+03  0.12509000000E+03 0.  0.
<mgrwt>
<rscale>  2 0.47339605E+03</rscale>
<asrwt>0</asrwt>
<pdfrwt beam="1">  1       21 0.98736272E-02 0.47339605E+03</pdfrwt>
<pdfrwt beam="2">  1       21 0.12271417E+00 0.47339605E+03</pdfrwt>
<totfact> 0.37469284E+04</totfact>
</mgrwt>
</event>
<event>
 7    0  0.4775379E-002  0.4576609E+03  0.7546771E-02  0.1025462E+00
         21   -1    0    0  502  501  0.00000000000E+00  0.00000000000E+00  0.43210042584E+03  0.43210042584E+03  0.00000000000E+00 0. -1.
         21   -1    0    0  501  502 -0.00000000000E+00 -0.00000000000E+00 -0.12118335507E+03  0.12118335507E+03  0.00000000000E+00 0. -1.
      99926    2    1    2    0    0  0.00000000000E+00 -0.14210854715E-13  0.31091707077E+03  0.55328378091E+03  0.45766091959E+03 0.  0.
      99925    2    3    3    0    0 -0.30841073411E+01 -0.10859485471E+03  0.24321514642E+03  0.37430497533E+03  0.26296055392E+03 0.  0.
         25    1    4    4    0    0 -0.34264573074E+01 -0.88885638091E+02  0.10029873600E+03  0.18335687010E+03  0.12509000000E+03 0.  0.
         25    1    4    4    0    0  0.34234996628E+00 -0.19709216617E+02  0.14291641042E+03  0.19094810523E+03  0.12509000000E+03 0.  0.
         25    1    3    3    0    0  0.30841073411E+01  0.10859485471E+03  0.67701924349E+02  0.17897880558E+03  0.12509000000E+03 0.  0.
<mgrwt>
<rscale>  2 0.45766092E+03</rscale>
<asrwt>0</asrwt>
<pdfrwt beam="1">  1       21 0.63544180E-01 0.45766092E+03</pdfrwt>
<pdfrwt beam="2">  1       21 0.17821082E-01 0.45766092E+03</pdfrwt>
<totfact> 0.60369116E+04</totfact>
</mgrwt>
</event>
<event>
 7    0  0.4775379E-002  0.4603807E+03  0.7546771E-02  0.1024671E+00
         21   -1    0    0  502  501  0.00000000000E+00  0.00000000000E+00  0.10590221509E+04  0.10590221509E+04  0.00000000000E+00 0. -1.
         21   -1    0    0  501  502 -0.00000000000E+00 -0.00000000000E+00 -0.50034454297E+02  0.50034454297E+02  0.00000000000E+00 0. -1.
      99926    2    1    2    0    0 -0.14210854715E-13 -0.14210854715E-13  0.10089876966E+04  0.11090566052E+04  0.46038069208E+03 0.  0.
      99925    2    3    3    0    0 -0.91218777012E+02 -0.66123480260E+02  0.71672168250E+03  0.77177317688E+03  0.26315525163E+03 0.  0.
         25    1    3    3    0    0  0.91218777012E+02  0.66123480260E+02  0.29226601413E+03  0.33728342835E+03  0.12509000000E+03 0.  0.
         25    1    4    4    0    0 -0.30228570765E+02 -0.58268598947E+02  0.28469503387E+03  0.31781719041E+03  0.12509000000E+03 0.  0.
         25    1    4    4    0    0 -0.60990206247E+02 -0.78548813131E+01  0.43202664864E+03  0.45395598647E+03  0.12509000000E+03 0.  0.
<mgrwt>
<rscale>  2 0.46038069E+03</rscale>
<asrwt>0</asrwt>
<pdfrwt beam="1">  1       21 0.15573854E+00 0.46038069E+03</pdfrwt>
<pdfrwt beam="2">  1       21 0.73580087E-02 0.46038069E+03</pdfrwt>
<totfact> 0.33741083E+04</totfact>
</mgrwt>
</event>
<event>
 7    0  0.4775379E-002  0.4599004E+03  0.7546771E-02  0.1024810E+00
         21   -1    0    0  502  501  0.00000000000E+00  0.00000000000E+00  0.87563774422E+02  0.87563774422E+02  0.00000000000E+00 0.  1.
         21   -1    0    0  501  502 -0.00000000000E+00 -0.00000000000E+00 -0.60386943529E+03  0.60386943529E+03  0.00000000000E+00 0.  1.
      99926    2    1    2    0    0  0.00000000000E+00  0.53290705182E-14 -0.51630566087E+03  0.69143320971E+03  0.45990036752E+03 0.  0.
      99925    2    3    3    0    0 -0.44596780852E+02  0.11466060100E+02 -0.48635395379E+03  0.55481345912E+03  0.26297806496E+03 0.  0.
         25    1    4    4    0    0 -0.11807239369E+02  0.44363253701E+02 -0.22994477945E+03  0.26576233532E+03  0.12509000000E+03 0.  0.
         25    1    3    3    0    0  0.44596780852E+02 -0.11466060100E+02 -0.29951707074E+02  0.13661975060E+03  0.12509000000E+03 0.  0.
         25    1    4    4    0    0 -0.32789541483E+02 -0.32897193601E+02 -0.25640917435E+03  0.28905112380E+03  0.12509000000E+03 0.  0.
<mgrwt>
<rscale>  2 0.45990037E+03</rscale>
<asrwt>0</asrwt>
<pdfrwt beam="1">  1       21 0.12877026E-01 0.45990037E+03</pdfrwt>
<pdfrwt beam="2">  1       21 0.88804329E-01 0.45990037E+03</pdfrwt>
<totfact> 0.51360549E+04</totfact>
</mgrwt>
</event>
<event>
 6    0  0.4775379E-002  0.4478156E+03  0.7546771E-02  0.1028375E+00
         21   -1    0    0  502  501  0.00000000000E+00  0.00000000000E+00  0.57989398150E+02  0.57989398150E+02  0.00000000000E+00 0. -1.
         21   -1    0    0  501  502 -0.00000000000E+00 -0.00000000000E+00 -0.86454939868E+03  0.86454939868E+03  0.00000000000E+00 0. -1.
      99926    2    1    2    0    0  0.53290705182E-14  0.00000000000E+00 -0.80656000053E+03  0.92253879683E+03  0.44781558392E+03 0.  0.
         25    1    3    3    0    0  0.15310591872E+02  0.54745843968E+02 -0.46349905177E+03  0.48343603584E+03  0.12509000000E+03 0.  0.
         25    1    3    3    0    0 -0.54816997750E+02 -0.17576284646E+02 -0.16880512104E+03  0.21784514228E+03  0.12509000000E+03 0.  0.
         25    1    3    3    0    0  0.39506405878E+02 -0.37169559322E+02 -0.17425582772E+03  0.22125761871E+03  0.12509000000E+03 0.  0.
<mgrwt>
<rscale>  2 0.44781558E+03</rscale>
<asrwt>0</asrwt>
<pdfrwt beam="1">  1       21 0.85278526E-02 0.44781558E+03</pdfrwt>
<pdfrwt beam="2">  1       21 0.12713962E+00 0.44781558E+03</pdfrwt>
<totfact> 0.44734874E+04</totfact>
</mgrwt>
</event>
<event>
 7    0  0.4775379E-002  0.4650408E+03  0.7546771E-02  0.1023329E+00
         21   -1    0    0  502  501  0.00000000000E+00  0.00000000000E+00  0.18561622180E+03  0.18561622180E+03  0.00000000000E+00 0. -1.
         21   -1    0    0  501  502 -0.00000000000E+00 -0.00000000000E+00 -0.29127695299E+03  0.29127695299E+03  0.00000000000E+00 0. -1.
      99926    2    1    2    0    0  0.00000000000E+00  0.00000000000E+00 -0.10566073119E+03  0.47689317479E+03  0.46504076170E+03 0.  0.
      99925    2    3    3    0    0 -0.48186276011E+02 -0.23306294753E+01 -0.18126015191E+03  0.32297719270E+03  0.26292903092E+03 0.  0.
         25    1    4    4    0    0 -0.36938923010E+01  0.28493081785E+01 -0.45964832360E+02  0.13334930563E+03  0.12509000000E+03 0.  0.
         25    1    3    3    0    0  0.48186276011E+02  0.23306294753E+01  0.75599420723E+02  0.15391598209E+03  0.12509000000E+03 0.  0.
         25    1    4    4    0    0 -0.44492383710E+02 -0.51799376538E+01 -0.13529531955E+03  0.18962788707E+03  0.12509000000E+03 0.  0.
<mgrwt>
<rscale>  2 0.46504076E+03</rscale>
<asrwt>0</asrwt>
<pdfrwt beam="1">  1       21 0.27296503E-01 0.46504076E+03</pdfrwt>
<pdfrwt beam="2">  1       21 0.42834846E-01 0.46504076E+03</pdfrwt>
<totfact> 0.61850736E+04</totfact>
</mgrwt>
</event>
<event>
 7    0  0.4775379E-002  0.4649271E+03  0.7546771E-02  0.1023362E+00
         21   -1    0    0  502  501  0.00000000000E+00  0.00000000000E+00  0.28450967282E+03  0.28450967282E+03  0.00000000000E+00 0.  1.
         21   -1    0    0  501  502 -0.00000000000E+00 -0.00000000000E+00 -0.18993834736E+03  0.18993834736E+03  0.00000000000E+00 0.  1.
      99926    2    1    2    0    0  0.00000000000E+00  0.00000000000E+00  0.94571325463E+02  0.47444802018E+03  0.46492707842E+03 0.  0.
      99925    2    3    3    0    0  0.55829592703E+02 -0.80682088684E+02 -0.15473286257E+02  0.28109893814E+03  0.26296510716E+03 0.  0.
         25    1    3    3    0    0 -0.55829592703E+02  0.80682088684E+02  0.11004461172E+03  0.19334908204E+03  0.12509000000E+03 0.  0.
         25    1    4    4    0    0  0.96209265313E+01 -0.47778898776E+02 -0.43097172872E+02  0.14099737517E+03  0.12509000000E+03 0.  0.
         25    1    4    4    0    0  0.46208666172E+02 -0.32903189908E+02  0.27623886615E+02  0.14010156297E+03  0.12509000000E+03 0.  0.
<mgrwt>
<rscale>  2 0.46492708E+03</rscale>
<asrwt>0</asrwt>
<pdfrwt beam="1">  1       21 0.41839658E-01 0.46492708E+03</pdfrwt>
<pdfrwt beam="2">  1       21 0.27932110E-01 0.46492708E+03</pdfrwt>
<totfact> 0.62070049E+04</totfact>
</mgrwt>
</event>
<event>
 7    0  0.4775379E-002  0.4568384E+03  0.7546771E-02  0.1025702E+00
         21   -1    0    0  502  501  0.00000000000E+00  0.00000000000E+00  0.62774839971E+03  0.62774839971E+03  0.00000000000E+00 0.  1.
         21   -1    0    0  501  502 -0.00000000000E+00 -0.00000000000E+00 -0.83115037980E+02  0.83115037980E+02  0.00000000000E+00 0.  1.
      99926    2    1    2    0    0  0.00000000000E+00  0.00000000000E+00  0.54463336173E+03  0.71086343769E+03  0.45683840506E+03 0.  0.
      99925    2    3    3    0    0  0.63774409000E+02 -0.24688524442E+02  0.48630184326E+03  0.55682846559E+03  0.26247239637E+03 0.  0.
         25    1    4    4    0    0  0.63552120132E+02 -0.38204793392E+02  0.26042420147E+03  0.29827294718E+03  0.12509000000E+03 0.  0.
         25    1    4    4    0    0  0.22228886827E+00  0.13516268950E+02  0.22587764179E+03  0.25855551841E+03  0.12509000000E+03 0.  0.
         25    1    3    3    0    0 -0.63774409000E+02  0.24688524442E+02  0.58331518475E+02  0.15403497210E+03  0.12509000000E+03 0.  0.
<mgrwt>
<rscale>  2 0.45683841E+03</rscale>
<asrwt>0</asrwt>
<pdfrwt beam="1">  1       21 0.92315939E-01 0.45683841E+03</pdfrwt>
<pdfrwt beam="2">  1       21 0.12222800E-01 0.45683841E+03</pdfrwt>
<totfact> 0.51567213E+04</totfact>
</mgrwt>
</event>
<event>
 7    0  0.4775379E-002  0.4560888E+03  0.7546771E-02  0.1025922E+00
         21   -1    0    0  502  501  0.00000000000E+00  0.00000000000E+00  0.19786477802E+03  0.19786477802E+03  0.00000000000E+00 0.  1.
         21   -1    0    0  501  502 -0.00000000000E+00 -0.00000000000E+00 -0.26282716780E+03  0.26282716780E+03  0.00000000000E+00 0.  1.
      99926    2    1    2    0    0 -0.14210854715E-13  0.00000000000E+00 -0.64962389775E+02  0.46069194582E+03  0.45608875985E+03 0.  0.
      99925    2    3    3    0    0 -0.10575184441E+03  0.42934728798E+02 -0.45150612533E+02  0.29020189289E+03  0.26296714108E+03 0.  0.
         25    1    4    4    0    0 -0.65516496576E+02  0.23895927998E+02 -0.62574418577E+02  0.15628977145E+03  0.12509000000E+03 0.  0.
         25    1    3    3    0    0  0.10575184441E+03 -0.42934728798E+02 -0.19811777242E+02  0.17049005294E+03  0.12509000000E+03 0.  0.
         25    1    4    4    0    0 -0.40235347833E+02  0.19038800800E+02  0.17423806044E+02  0.13391212144E+03  0.12509000000E+03 0.  0.
<mgrwt>
<rscale>  2 0.45608876E+03</rscale>
<asrwt>0</asrwt>
<pdfrwt beam="1">  1       21 0.29097761E-01 0.45608876E+03</pdfrwt>
<pdfrwt beam="2">  1       21 0.38651054E-01 0.45608876E+03</pdfrwt>
<totfact> 0.67541834E+04</totfact>
</mgrwt>
</event>
<event>
 7    0  0.4775379E-002  0.4273519E+03  0.7546771E-02  0.1034700E+00
         21   -1    0    0  502  501  0.00000000000E+00  0.00000000000E+00  0.14303608796E+03  0.14303608796E+03  0.00000000000E+00 0. -1.
         21   -1    0    0  501  502 -0.00000000000E+00 -0.00000000000E+00 -0.31920210437E+03  0.31920210437E+03  0.00000000000E+00 0. -1.
      99926    2    1    2    0    0  0.71054273576E-14  0.71054273576E-14 -0.17616601641E+03  0.46223819233E+03  0.42735194057E+03 0.  0.
      99925    2    3    3    0    0 -0.61438327416E+02 -0.45150632289E+02 -0.15456884209E+03  0.31415985593E+03  0.26266259814E+03 0.  0.
         25    1    3    3    0    0  0.61438327416E+02  0.45150632289E+02 -0.21597174324E+02  0.14807833640E+03  0.12509000000E+03 0.  0.
         25    1    4    4    0    0 -0.42558679254E+02  0.76570749297E+01 -0.10294578239E+03  0.16767592012E+03  0.12509000000E+03 0.  0.
         25    1    4    4    0    0 -0.18879648162E+02 -0.52807707219E+02 -0.51623059697E+02  0.14648393580E+03  0.12509000000E+03 0.  0.
<mgrwt>
<rscale>  2 0.42735194E+03</rscale>
<asrwt>0</asrwt>
<pdfrwt beam="1">  1       21 0.21034719E-01 0.42735194E+03</pdfrwt>
<pdfrwt beam="2">  1       21 0.46941486E-01 0.42735194E+03</pdfrwt>
<totfact> 0.85241600E+04</totfact>
</mgrwt>
</event>
<event>
 7    0  0.4775379E-002  0.4583012E+03  0.7546771E-02  0.1025275E+00
         21   -1    0    0  502  501  0.00000000000E+00  0.00000000000E+00  0.15063330560E+04  0.15063330560E+04  0.00000000000E+00 0.  1.
         21   -1    0    0  501  502 -0.00000000000E+00 -0.00000000000E+00 -0.34859492942E+02  0.34859492942E+02  0.00000000000E+00 0.  1.
      99926    2    1    2    0    0 -0.35527136788E-14  0.00000000000E+00  0.14714735631E+04  0.15411925490E+04  0.45830123951E+03 0.  0.
      99925    2    3    3    0    0 -0.24058401181E+02  0.10573739065E+03  0.78358963336E+03  0.83366798309E+03  0.26311668528E+03 0.  0.
         25    1    3    3    0    0  0.24058401181E+02 -0.10573739065E+03  0.68788392974E+03  0.70752456589E+03  0.12509000000E+03 0.  0.
         25    1    4    4    0    0  0.77874553753E+01  0.28166440331E+02  0.44346107107E+03  0.46169169635E+03  0.12509000000E+03 0.  0.
         25    1    4    4    0    0 -0.31845856557E+02  0.77570950314E+02  0.34012856229E+03  0.37197628674E+03  0.12509000000E+03 0.  0.
<mgrwt>
<rscale>  2 0.45830124E+03</rscale>
<asrwt>0</asrwt>
<pdfrwt beam="1">  1       21 0.22151952E+00 0.45830124E+03</pdfrwt>
<pdfrwt beam="2">  1       21 0.51263970E-02 0.45830124E+03</pdfrwt>
<totfact> 0.22212415E+04</totfact>
</mgrwt>
</event>
<event>
 7    0  0.4775379E-002  0.4555526E+03  0.7546771E-02  0.1026079E+00
         21   -1    0    0  502  501  0.00000000000E+00  0.00000000000E+00  0.23442298605E+03  0.23442298605E+03  0.00000000000E+00 0. -1.
         21   -1    0    0  501  502 -0.00000000000E+00 -0.00000000000E+00 -0.22131807388E+03  0.22131807388E+03  0.00000000000E+00 0. -1.
      99926    2    1    2    0    0  0.17763568394E-14  0.00000000000E+00  0.13104912170E+02  0.45574105993E+03  0.45555260397E+03 0.  0.
      99925    2    3    3    0    0  0.76781077715E+01 -0.10260727457E+03 -0.40080893760E+02  0.28526101950E+03  0.26302122551E+03 0.  0.
         25    1    3    3    0    0 -0.76781077715E+01  0.10260727457E+03  0.53185805930E+02  0.17048004043E+03  0.12509000000E+03 0.  0.
         25    1    4    4    0    0 -0.28171256577E+02 -0.73994668354E+02 -0.82172011797E+01  0.14826955567E+03  0.12509000000E+03 0.  0.
         25    1    4    4    0    0  0.35849364348E+02 -0.28612606214E+02 -0.31863692580E+02  0.13699146383E+03  0.12509000000E+03 0.  0.
<mgrwt>
<rscale>  2 0.45555260E+03</rscale>
<asrwt>0</asrwt>
<pdfrwt beam="1">  1       21 0.34473969E-01 0.45555260E+03</pdfrwt>
<pdfrwt beam="2">  1       21 0.32546775E-01 0.45555260E+03</pdfrwt>
<totfact> 0.68190386E+04</totfact>
</mgrwt>
</event>
<event>
 7    0  0.4775379E-002  0.4562336E+03  0.7546771E-02  0.1025879E+00
         21   -1    0    0  502  501  0.00000000000E+00  0.00000000000E+00  0.57128180744E+03  0.57128180744E+03  0.00000000000E+00 0.  1.
         21   -1    0    0  501  502 -0.00000000000E+00 -0.00000000000E+00 -0.91088642770E+02  0.91088642770E+02  0.00000000000E+00 0.  1.
      99926    2    1    2    0    0  0.00000000000E+00  0.00000000000E+00  0.48019316467E+03  0.66237045021E+03  0.45623364400E+03 0.  0.
      99925    2    3    3    0    0 -0.17903162461E+02  0.28452109914E+02  0.14352520028E+03  0.30164496992E+03  0.26317324898E+03 0.  0.
         25    1    4    4    0    0 -0.27306336146E+02 -0.22300572443E+02  0.68151963541E+02  0.14674859372E+03  0.12509000000E+03 0.  0.
         25    1    4    4    0    0  0.94031736846E+01  0.50752682357E+02  0.75373236737E+02  0.15489637619E+03  0.12509000000E+03 0.  0.
         25    1    3    3    0    0  0.17903162461E+02 -0.28452109914E+02  0.33666796439E+03  0.36072548029E+03  0.12509000000E+03 0.  0.
<mgrwt>
<rscale>  2 0.45623364E+03</rscale>
<asrwt>0</asrwt>
<pdfrwt beam="1">  1       21 0.84012029E-01 0.45623364E+03</pdfrwt>
<pdfrwt beam="2">  1       21 0.13395389E-01 0.45623364E+03</pdfrwt>
<totfact> 0.54462013E+04</totfact>
</mgrwt>
</event>
<event>
 7    0  0.4775379E-002  0.4556039E+03  0.7546771E-02  0.1026064E+00
         21   -1    0    0  502  501  0.00000000000E+00  0.00000000000E+00  0.97913602774E+02  0.97913602774E+02  0.00000000000E+00 0.  1.
         21   -1    0    0  501  502 -0.00000000000E+00 -0.00000000000E+00 -0.52999507984E+03  0.52999507984E+03  0.00000000000E+00 0.  1.
      99926    2    1    2    0    0  0.00000000000E+00  0.00000000000E+00 -0.43208147707E+03  0.62790868262E+03  0.45560389691E+03 0.  0.
      99925    2    3    3    0    0  0.90577754351E+02 -0.64211494077E+02 -0.30537521120E+03  0.41807677020E+03  0.26307170242E+03 0.  0.
         25    1    3    3    0    0 -0.90577754351E+02  0.64211494077E+02 -0.12670626587E+03  0.20983191241E+03  0.12509000000E+03 0.  0.
         25    1    4    4    0    0  0.74534875840E+02 -0.44415031055E+02 -0.20678520896E+03  0.25677962038E+03  0.12509000000E+03 0.  0.
         25    1    4    4    0    0  0.16042878511E+02 -0.19796463022E+02 -0.98590002237E+02  0.16129714982E+03  0.12509000000E+03 0.  0.
<mgrwt>
<rscale>  2 0.45560390E+03</rscale>
<asrwt>0</asrwt>
<pdfrwt beam="1">  1       21 0.14399059E-01 0.45560390E+03</pdfrwt>
<pdfrwt beam="2">  1       21 0.77940454E-01 0.45560390E+03</pdfrwt>
<totfact> 0.56721568E+04</totfact>
</mgrwt>
</event>
<event>
 7    0  0.4775379E-002  0.3906844E+03  0.7546771E-02  0.1047054E+00
         21   -1    0    0  502  501  0.00000000000E+00  0.00000000000E+00  0.11696954897E+03  0.11696954897E+03  0.00000000000E+00 0. -1.
         21   -1    0    0  501  502 -0.00000000000E+00 -0.00000000000E+00 -0.32622661457E+03  0.32622661457E+03  0.00000000000E+00 0. -1.
      99926    2    1    2    0    0 -0.88817841970E-15  0.17763568394E-14 -0.20925706559E+03  0.44319616354E+03  0.39068442492E+03 0.  0.
      99925    2    3    3    0    0 -0.50834313125E+01 -0.14441282083E+02 -0.12221819637E+03  0.29003721095E+03  0.26258313790E+03 0.  0.
         25    1    4    4    0    0  0.15786675780E+02 -0.41414002206E+02 -0.51521539331E+02  0.14235981113E+03  0.12509000000E+03 0.  0.
         25    1    4    4    0    0 -0.20870107093E+02  0.26972720123E+02 -0.70696657041E+02  0.14767739982E+03  0.12509000000E+03 0.  0.
         25    1    3    3    0    0  0.50834313125E+01  0.14441282083E+02 -0.87038869221E+02  0.15315895259E+03  0.12509000000E+03 0.  0.
<mgrwt>
<rscale>  2 0.39068442E+03</rscale>
<asrwt>0</asrwt>
<pdfrwt beam="1">  1       21 0.17201404E-01 0.39068442E+03</pdfrwt>
<pdfrwt beam="2">  1       21 0.47974502E-01 0.39068442E+03</pdfrwt>
<totfact> 0.11998959E+05</totfact>
</mgrwt>
</event>
<event>
 7    0  0.4775379E-002  0.4598676E+03  0.7546771E-02  0.1024820E+00
         21   -1    0    0  502  501  0.00000000000E+00  0.00000000000E+00  0.12963856996E+03  0.12963856996E+03  0.00000000000E+00 0. -1.
         21   -1    0    0  501  502 -0.00000000000E+00 -0.00000000000E+00 -0.40782273229E+03  0.40782273229E+03  0.00000000000E+00 0. -1.
      99926    2    1    2    0    0  0.71054273576E-14 -0.14210854715E-13 -0.27818416232E+03  0.53746130225E+03  0.45986761492E+03 0.  0.
      99925    2    3    3    0    0 -0.43452948737E+02  0.10717812368E+03 -0.19935486541E+03  0.34974642511E+03  0.26306822417E+03 0.  0.
         25    1    4    4    0    0 -0.59903490887E+01  0.12278428513E+02 -0.92190283280E+02  0.15599102705E+03  0.12509000000E+03 0.  0.
         25    1    3    3    0    0  0.43452948737E+02 -0.10717812368E+03 -0.78829296918E+02  0.18771487714E+03  0.12509000000E+03 0.  0.
         25    1    4    4    0    0 -0.37462599648E+02  0.94899695164E+02 -0.10716458213E+03  0.19375539806E+03  0.12509000000E+03 0.  0.
<mgrwt>
<rscale>  2 0.45986761E+03</rscale>
<asrwt>0</asrwt>
<pdfrwt beam="1">  1       21 0.19064496E-01 0.45986761E+03</pdfrwt>
<pdfrwt beam="2">  1       21 0.59973930E-01 0.45986761E+03</pdfrwt>
<totfact> 0.60342595E+04</totfact>
</mgrwt>
</event>
<event>
 7    0  0.4775379E-002  0.4524910E+03  0.7546771E-02  0.1026982E+00
         21   -1    0    0  502  501  0.00000000000E+00  0.00000000000E+00  0.22205489689E+03  0.22205489689E+03  0.00000000000E+00 0.  1.
         21   -1    0    0  501  502 -0.00000000000E+00 -0.00000000000E+00 -0.23051514672E+03  0.23051514672E+03  0.00000000000E+00 0.  1.
      99926    2    1    2    0    0  0.00000000000E+00  0.17763568394E-14 -0.84602498297E+01  0.45257004360E+03  0.45249095962E+03 0.  0.
      99925    2    3    3    0    0  0.19879574159E+02 -0.12837232407E+02 -0.11344059107E+03  0.28755982527E+03  0.26317654418E+03 0.  0.
         25    1    4    4    0    0  0.12481863132E+02  0.17992378715E+02 -0.20752042324E+02  0.12867664108E+03  0.12509000000E+03 0.  0.
         25    1    3    3    0    0 -0.19879574159E+02  0.12837232407E+02  0.10498034124E+03  0.16501021833E+03  0.12509000000E+03 0.  0.
         25    1    4    4    0    0  0.73977110266E+01 -0.30829611122E+02 -0.92688548750E+02  0.15888318419E+03  0.12509000000E+03 0.  0.
<mgrwt>
<rscale>  2 0.45249096E+03</rscale>
<asrwt>0</asrwt>
<pdfrwt beam="1">  1       21 0.32655132E-01 0.45249096E+03</pdfrwt>
<pdfrwt beam="2">  1       21 0.33899286E-01 0.45249096E+03</pdfrwt>
<totfact> 0.70117416E+04</totfact>
</mgrwt>
</event>
<event>
 6    0  0.4775379E-002  0.4568536E+03  0.7546771E-02  0.1025698E+00
         21   -1    0    0  502  501  0.00000000000E+00  0.00000000000E+00  0.56212409266E+03  0.56212409266E+03  0.00000000000E+00 0. -1.
         21   -1    0    0  501  502 -0.00000000000E+00 -0.00000000000E+00 -0.92824339526E+02  0.92824339526E+02  0.00000000000E+00 0. -1.
      99926    2    1    2    0    0  0.00000000000E+00 -0.14210854715E-13  0.46929975314E+03  0.65494843219E+03  0.45685357669E+03 0.  0.
         25    1    3    3    0    0 -0.82698729799E+01  0.23040196177E+02  0.13324913166E+03  0.18439653095E+03  0.12509000000E+03 0.  0.
         25    1    3    3    0    0 -0.23757178497E+02  0.88990022521E+02  0.19222464265E+03  0.24714661434E+03  0.12509000000E+03 0.  0.
         25    1    3    3    0    0  0.32027051477E+02 -0.11203021870E+03  0.14382597883E+03  0.22340528690E+03  0.12509000000E+03 0.  0.
<mgrwt>
<rscale>  2 0.45685358E+03</rscale>
<asrwt>0</asrwt>
<pdfrwt beam="1">  1       21 0.82665306E-01 0.45685358E+03</pdfrwt>
<pdfrwt beam="2">  1       21 0.13650638E-01 0.45685358E+03</pdfrwt>
<totfact> 0.54614425E+04</totfact>
</mgrwt>
</event>
<event>
 7    0  0.4775379E-002  0.4547370E+03  0.7546771E-02  0.1026319E+00
         21   -1    0    0  502  501  0.00000000000E+00  0.00000000000E+00  0.66838706778E+02  0.66838706778E+02  0.00000000000E+00 0.  1.
         21   -1    0    0  501  502 -0.00000000000E+00 -0.00000000000E+00 -0.77345040230E+03  0.77345040230E+03  0.00000000000E+00 0.  1.
      99926    2    1    2    0    0  0.00000000000E+00  0.00000000000E+00 -0.70661169552E+03  0.84028910908E+03  0.45473695538E+03 0.  0.
      99925    2    3    3    0    0 -0.42895103021E+02  0.77799792426E+02 -0.31615315124E+03  0.42076773838E+03  0.26305869509E+03 0.  0.
         25    1    4    4    0    0 -0.24859761306E+02  0.40114118847E+02 -0.22043625435E+03  0.25781156025E+03  0.12509000000E+03 0.  0.
         25    1    3    3    0    0  0.42895103021E+02 -0.77799792426E+02 -0.39045854428E+03  0.41952137069E+03  0.12509000000E+03 0.  0.
         25    1    4    4    0    0 -0.18035341715E+02  0.37685673579E+02 -0.95716896882E+02  0.16295617814E+03  0.12509000000E+03 0.  0.
<mgrwt>
<rscale>  2 0.45473696E+03</rscale>
<asrwt>0</asrwt>
<pdfrwt beam="1">  1       21 0.98292211E-02 0.45473696E+03</pdfrwt>
<pdfrwt beam="2">  1       21 0.11374271E+00 0.45473696E+03</pdfrwt>
<totfact> 0.45971748E+04</totfact>
</mgrwt>
</event>
<event>
 7    0  0.4775379E-002  0.4473555E+03  0.7546771E-02  0.1028514E+00
         21   -1    0    0  502  501  0.00000000000E+00  0.00000000000E+00  0.26145489769E+03  0.26145489769E+03  0.00000000000E+00 0. -1.
         21   -1    0    0  501  502 -0.00000000000E+00 -0.00000000000E+00 -0.19135895741E+03  0.19135895741E+03  0.00000000000E+00 0. -1.
      99926    2    1    2    0    0 -0.71054273576E-14  0.00000000000E+00  0.70095940282E+02  0.45281385510E+03  0.44735550352E+03 0.  0.
      99925    2    3    3    0    0  0.44333579636E+02  0.50100670910E+02 -0.38605119041E+02  0.27409907702E+03  0.26299126468E+03 0.  0.
         25    1    4    4    0    0  0.56236995858E+00 -0.91016770576E+01 -0.28361711791E+02  0.12858869150E+03  0.12509000000E+03 0.  0.
         25    1    3    3    0    0 -0.44333579636E+02 -0.50100670910E+02  0.10870105932E+03  0.17871477809E+03  0.12509000000E+03 0.  0.
         25    1    4    4    0    0  0.43771209678E+02  0.59202347967E+02 -0.10243407250E+02  0.14551038552E+03  0.12509000000E+03 0.  0.
<mgrwt>
<rscale>  2 0.44735550E+03</rscale>
<asrwt>0</asrwt>
<pdfrwt beam="1">  1       21 0.38449250E-01 0.44735550E+03</pdfrwt>
<pdfrwt beam="2">  1       21 0.28141023E-01 0.44735550E+03</pdfrwt>
<totfact> 0.73060795E+04</totfact>
</mgrwt>
</event>
<event>
 7    0  0.4775379E-002  0.4534613E+03  0.7546771E-02  0.1026695E+00
         21   -1    0    0  502  501  0.00000000000E+00  0.00000000000E+00  0.10363294563E+03  0.10363294563E+03  0.00000000000E+00 0. -1.
         21   -1    0    0  501  502 -0.00000000000E+00 -0.00000000000E+00 -0.49604675449E+03  0.49604675449E+03  0.00000000000E+00 0. -1.
      99926    2    1    2    0    0  0.00000000000E+00  0.00000000000E+00 -0.39241380886E+03  0.59967970013E+03  0.45346129423E+03 0.  0.
      99925    2    3    3    0    0  0.21971041184E+02 -0.99076035206E+02 -0.30931950105E+03  0.41843136360E+03  0.26288298711E+03 0.  0.
         25    1    3    3    0    0 -0.21971041184E+02  0.99076035206E+02 -0.83094307812E+02  0.18124833653E+03  0.12509000000E+03 0.  0.
         25    1    4    4    0    0 -0.55940265721E+01 -0.30976640273E+02 -0.19467410260E+03  0.23353021153E+03  0.12509000000E+03 0.  0.
         25    1    4    4    0    0  0.27565067756E+02 -0.68099394933E+02 -0.11464539845E+03  0.18490115207E+03  0.12509000000E+03 0.  0.
<mgrwt>
<rscale>  2 0.45346129E+03</rscale>
<asrwt>0</asrwt>
<pdfrwt beam="1">  1       21 0.15240139E-01 0.45346129E+03</pdfrwt>
<pdfrwt beam="2">  1       21 0.72948051E-01 0.45346129E+03</pdfrwt>
<totfact> 0.59417076E+04</totfact>
</mgrwt>
</event>
<event>
 7    0  0.4775379E-002  0.4483018E+03  0.7546771E-02  0.1028230E+00
         21   -1    0    0  502  501  0.00000000000E+00  0.00000000000E+00  0.41326945712E+03  0.41326945712E+03  0.00000000000E+00 0. -1.
         21   -1    0    0  501  502 -0.00000000000E+00 -0.00000000000E+00 -0.12157595954E+03  0.12157595954E+03  0.00000000000E+00 0. -1.
      99926    2    1    2    0    0  0.00000000000E+00  0.35527136788E-14  0.29169349758E+03  0.53484541666E+03  0.44830182154E+03 0.  0.
      99925    2    3    3    0    0 -0.96352893953E+02  0.91139917233E+01  0.13070661123E+03  0.30916593001E+03  0.26293042624E+03 0.  0.
         25    1    4    4    0    0 -0.76154619379E+02  0.27410411949E+02  0.93281851605E+02  0.17578358477E+03  0.12509000000E+03 0.  0.
         25    1    3    3    0    0  0.96352893953E+02 -0.91139917233E+01  0.16098688635E+03  0.22567948665E+03  0.12509000000E+03 0.  0.
         25    1    4    4    0    0 -0.20198274574E+02 -0.18296420226E+02  0.37424759623E+02  0.13338234524E+03  0.12509000000E+03 0.  0.
<mgrwt>
<rscale>  2 0.44830182E+03</rscale>
<asrwt>0</asrwt>
<pdfrwt beam="1">  1       21 0.60774920E-01 0.44830182E+03</pdfrwt>
<pdfrwt beam="2">  1       21 0.17878818E-01 0.44830182E+03</pdfrwt>
<totfact> 0.66326158E+04</totfact>
</mgrwt>
</event>
<event>
 7    0  0.4775379E-002  0.4429131E+03  0.7546771E-02  0.1029857E+00
         21   -1    0    0  502  501  0.00000000000E+00  0.00000000000E+00  0.25430755806E+03  0.25430755806E+03  0.00000000000E+00 0.  1.
         21   -1    0    0  501  502 -0.00000000000E+00 -0.00000000000E+00 -0.19284917479E+03  0.19284917479E+03  0.00000000000E+00 0.  1.
      99926    2    1    2    0    0  0.00000000000E+00  0.00000000000E+00  0.61458383264E+02  0.44715673285E+03  0.44291309628E+03 0.  0.
      99925    2    3    3    0    0 -0.45613171203E+02  0.60612261240E+02 -0.28658003395E+02  0.27533450249E+03  0.26312240403E+03 0.  0.
         25    1    4    4    0    0 -0.20050798065E+02  0.54637740194E+01  0.19208547891E+02  0.12825117443E+03  0.12509000000E+03 0.  0.
         25    1    4    4    0    0 -0.25562373138E+02  0.55148487221E+02 -0.47866551286E+02  0.14708332807E+03  0.12509000000E+03 0.  0.
         25    1    3    3    0    0  0.45613171203E+02 -0.60612261240E+02  0.90116386659E+02  0.17182223036E+03  0.12509000000E+03 0.  0.
<mgrwt>
<rscale>  2 0.44291310E+03</rscale>
<asrwt>0</asrwt>
<pdfrwt beam="1">  1       21 0.37398170E-01 0.44291310E+03</pdfrwt>
<pdfrwt beam="2">  1       21 0.28360173E-01 0.44291310E+03</pdfrwt>
<totfact> 0.76212275E+04</totfact>
</mgrwt>
</event>
<event>
 7    0  0.4775379E-002  0.4538481E+03  0.7546771E-02  0.1026581E+00
         21   -1    0    0  502  501  0.00000000000E+00  0.00000000000E+00  0.12136666532E+03  0.12136666532E+03  0.00000000000E+00 0. -1.
         21   -1    0    0  501  502 -0.00000000000E+00 -0.00000000000E+00 -0.42428880456E+03  0.42428880456E+03  0.00000000000E+00 0. -1.
      99926    2    1    2    0    0  0.71054273576E-14  0.00000000000E+00 -0.30292213924E+03  0.54565546987E+03  0.45384806859E+03 0.  0.
      99925    2    3    3    0    0  0.38274765615E+02  0.45367175018E+02 -0.76865003776E+02  0.28056590982E+03  0.26322207867E+03 0.  0.
         25    1    3    3    0    0 -0.38274765615E+02 -0.45367175018E+02 -0.22605713546E+03  0.26508956005E+03  0.12509000000E+03 0.  0.
         25    1    4    4    0    0 -0.82059672731E+01 -0.70009504686E+01 -0.47474847163E+02  0.13423010251E+03  0.12509000000E+03 0.  0.
         25    1    4    4    0    0  0.46480732888E+02  0.52368125487E+02 -0.29390156614E+02  0.14633580732E+03  0.12509000000E+03 0.  0.
<mgrwt>
<rscale>  2 0.45384807E+03</rscale>
<asrwt>0</asrwt>
<pdfrwt beam="1">  1       21 0.17848039E-01 0.45384807E+03</pdfrwt>
<pdfrwt beam="2">  1       21 0.62395413E-01 0.45384807E+03</pdfrwt>
<totfact> 0.62724295E+04</totfact>
</mgrwt>
</event>
<event>
 7    0  0.4775379E-002  0.4566829E+03  0.7546771E-02  0.1025748E+00
         21   -1    0    0  502  501  0.00000000000E+00  0.00000000000E+00  0.16546578525E+04  0.16546578525E+04  0.00000000000E+00 0.  1.
         21   -1    0    0  501  502 -0.00000000000E+00 -0.00000000000E+00 -0.31510941797E+02  0.31510941797E+02  0.00000000000E+00 0.  1.
      99926    2    1    2    0    0 -0.35527136788E-14  0.14210854715E-13  0.16231469107E+04  0.16861687943E+04  0.45668294158E+03 0.  0.
      99925    2    3    3    0    0  0.23081826807E+02 -0.10564268044E+03  0.87839680787E+03  0.92328389444E+03  0.26301910767E+03 0.  0.
         25    1    3    3    0    0 -0.23081826807E+02  0.10564268044E+03  0.74475010282E+03  0.76288489985E+03  0.12509000000E+03 0.  0.
         25    1    4    4    0    0 -0.18817845510E+02 -0.28280710414E+02  0.45552336009E+03  0.47360632341E+03  0.12509000000E+03 0.  0.
         25    1    4    4    0    0  0.41899672317E+02 -0.77361970022E+02  0.42287344779E+03  0.44967757103E+03  0.12509000000E+03 0.  0.
<mgrwt>
<rscale>  2 0.45668294E+03</rscale>
<asrwt>0</asrwt>
<pdfrwt beam="1">  1       21 0.24333198E+00 0.45668294E+03</pdfrwt>
<pdfrwt beam="2">  1       21 0.46339631E-02 0.45668294E+03</pdfrwt>
<totfact> 0.19297508E+04</totfact>
</mgrwt>
</event>
<event>
 7    0  0.4775379E-002  0.4289014E+03  0.7546771E-02  0.1034208E+00
         21   -1    0    0  502  501  0.00000000000E+00  0.00000000000E+00  0.10131819564E+03  0.10131819564E+03  0.00000000000E+00 0. -1.
         21   -1    0    0  501  502 -0.00000000000E+00 -0.00000000000E+00 -0.45390756374E+03  0.45390756374E+03  0.00000000000E+00 0. -1.
      99926    2    1    2    0    0  0.00000000000E+00  0.00000000000E+00 -0.35258936810E+03  0.55522575938E+03  0.42890136556E+03 0.  0.
      99925    2    3    3    0    0 -0.55591375077E+02 -0.65069929332E+02 -0.21198667143E+03  0.34848649582E+03  0.26302089692E+03 0.  0.
         25    1    3    3    0    0  0.55591375077E+02  0.65069929332E+02 -0.14060269667E+03  0.20673926356E+03  0.12509000000E+03 0.  0.
         25    1    4    4    0    0 -0.41846923419E+02 -0.63873875971E+02 -0.83678072025E+02  0.16876185845E+03  0.12509000000E+03 0.  0.
         25    1    4    4    0    0 -0.13744451657E+02 -0.11960533605E+01 -0.12830859940E+03  0.17972463736E+03  0.12509000000E+03 0.  0.
<mgrwt>
<rscale>  2 0.42890137E+03</rscale>
<asrwt>0</asrwt>
<pdfrwt beam="1">  1       21 0.14899735E-01 0.42890137E+03</pdfrwt>
<pdfrwt beam="2">  1       21 0.66751111E-01 0.42890137E+03</pdfrwt>
<totfact> 0.76048603E+04</totfact>
</mgrwt>
</event>
<event>
 7    0  0.4775379E-002  0.4525880E+03  0.7546771E-02  0.1026953E+00
         21   -1    0    0  502  501  0.00000000000E+00  0.00000000000E+00  0.72569144636E+02  0.72569144636E+02  0.00000000000E+00 0. -1.
         21   -1    0    0  501  502 -0.00000000000E+00 -0.00000000000E+00 -0.70565770443E+03  0.70565770443E+03  0.00000000000E+00 0. -1.
      99926    2    1    2    0    0  0.00000000000E+00  0.00000000000E+00 -0.63308855979E+03  0.77822684906E+03  0.45258800698E+03 0.  0.
      99925    2    3    3    0    0  0.90397742529E+02 -0.36236455487E+02 -0.30839298175E+03  0.41689658593E+03  0.26308116543E+03 0.  0.
         25    1    4    4    0    0  0.99298844253E+01 -0.39321322881E+02 -0.15367408918E+03  0.20225726890E+03  0.12509000000E+03 0.  0.
         25    1    3    3    0    0 -0.90397742529E+02  0.36236455487E+02 -0.32469557804E+03  0.36133026313E+03  0.12509000000E+03 0.  0.
         25    1    4    4    0    0  0.80467858103E+02  0.30848673941E+01 -0.15471889258E+03  0.21463931703E+03  0.12509000000E+03 0.  0.
<mgrwt>
<rscale>  2 0.45258801E+03</rscale>
<asrwt>0</asrwt>
<pdfrwt beam="1">  1       21 0.10671933E-01 0.45258801E+03</pdfrwt>
<pdfrwt beam="2">  1       21 0.10377319E+00 0.45258801E+03</pdfrwt>
<totfact> 0.49771657E+04</totfact>
</mgrwt>
</event>
<event>
 7    0  0.4775379E-002  0.4555345E+03  0.7546771E-02  0.1026084E+00
         21   -1    0    0  502  501  0.00000000000E+00  0.00000000000E+00  0.20583361793E+03  0.20583361793E+03  0.00000000000E+00 0. -1.
         21   -1    0    0  501  502 -0.00000000000E+00 -0.00000000000E+00 -0.25203816565E+03  0.25203816565E+03  0.00000000000E+00 0. -1.
      99926    2    1    2    0    0 -0.14210854715E-13  0.00000000000E+00 -0.46204547716E+02  0.45787178357E+03  0.45553453213E+03 0.  0.
      99925    2    3    3    0    0  0.10503807145E+03  0.38982151771E+02 -0.94228783257E+01  0.28596191209E+03  0.26293120758E+03 0.  0.
         25    1    4    4    0    0  0.97310706288E+01  0.21020944278E+02 -0.10784417307E+02  0.12767296343E+03  0.12509000000E+03 0.  0.
         25    1    4    4    0    0  0.95307000821E+02  0.17961207492E+02  0.13615389808E+01  0.15828894866E+03  0.12509000000E+03 0.  0.
         25    1    3    3    0    0 -0.10503807145E+03 -0.38982151771E+02 -0.36781669391E+02  0.17190987148E+03  0.12509000000E+03 0.  0.
<mgrwt>
<rscale>  2 0.45553453E+03</rscale>
<asrwt>0</asrwt>
<pdfrwt beam="1">  1       21 0.30269650E-01 0.45553453E+03</pdfrwt>
<pdfrwt beam="2">  1       21 0.37064436E-01 0.45553453E+03</pdfrwt>
<totfact> 0.68045242E+04</totfact>
</mgrwt>
</event>
<event>
 7    0  0.4775379E-002  0.4518324E+03  0.7546771E-02  0.1027177E+00
         21   -1    0    0  502  501  0.00000000000E+00  0.00000000000E+00  0.18777552351E+03  0.18777552351E+03  0.00000000000E+00 0.  1.
         21   -1    0    0  501  502 -0.00000000000E+00 -0.00000000000E+00 -0.27180391010E+03  0.27180391010E+03  0.00000000000E+00 0.  1.
      99926    2    1    2    0    0 -0.17763568394E-14  0.00000000000E+00 -0.84028386587E+02  0.45957943361E+03  0.45183236498E+03 0.  0.
      99925    2    3    3    0    0  0.38406727625E+01  0.65030336309E+02 -0.14333314815E+03  0.30658185764E+03  0.26306719420E+03 0.  0.
         25    1    4    4    0    0 -0.28305470586E+02  0.57482938047E+02 -0.88349097477E+02  0.16600770752E+03  0.12509000000E+03 0.  0.
         25    1    3    3    0    0 -0.38406727625E+01 -0.65030336309E+02  0.59304761567E+02  0.15299757597E+03  0.12509000000E+03 0.  0.
         25    1    4    4    0    0  0.32146143349E+02  0.75473982619E+01 -0.54984050678E+02  0.14057415012E+03  0.12509000000E+03 0.  0.
<mgrwt>
<rscale>  2 0.45183236E+03</rscale>
<asrwt>0</asrwt>
<pdfrwt beam="1">  1       21 0.27614048E-01 0.45183236E+03</pdfrwt>
<pdfrwt beam="2">  1       21 0.39971163E-01 0.45183236E+03</pdfrwt>
<totfact> 0.69959522E+04</totfact>
</mgrwt>
</event>
<event>
 7    0  0.4775379E-002  0.4666663E+03  0.7546771E-02  0.1022865E+00
         21   -1    0    0  502  501  0.00000000000E+00  0.00000000000E+00  0.27300543190E+03  0.27300543190E+03  0.00000000000E+00 0. -1.
         21   -1    0    0  501  502 -0.00000000000E+00 -0.00000000000E+00 -0.19942592921E+03  0.19942592921E+03  0.00000000000E+00 0. -1.
      99926    2    1    2    0    0  0.00000000000E+00  0.00000000000E+00  0.73579502685E+02  0.47243136111E+03  0.46666631306E+03 0.  0.
      99925    2    3    3    0    0 -0.29730636470E+02  0.66809385974E+02  0.14709125961E+03  0.30995400482E+03  0.26284642218E+03 0.  0.
         25    1    4    4    0    0 -0.26040852220E+02  0.56492626072E+02  0.11342359683E+03  0.17994989081E+03  0.12509000000E+03 0.  0.
         25    1    4    4    0    0 -0.36897842501E+01  0.10316759902E+02  0.33667662784E+02  0.13000411401E+03  0.12509000000E+03 0.  0.
         25    1    3    3    0    0  0.29730636470E+02 -0.66809385974E+02 -0.73511756929E+02  0.16247735629E+03  0.12509000000E+03 0.  0.
<mgrwt>
<rscale>  2 0.46666631E+03</rscale>
<asrwt>0</asrwt>
<pdfrwt beam="1">  1       21 0.40147858E-01 0.46666631E+03</pdfrwt>
<pdfrwt beam="2">  1       21 0.29327343E-01 0.46666631E+03</pdfrwt>
<totfact> 0.61370028E+04</totfact>
</mgrwt>
</event>
<event>
 7    0  0.4775379E-002  0.4345137E+03  0.7546771E-02  0.1032444E+00
         21   -1    0    0  502  501  0.00000000000E+00  0.00000000000E+00  0.23639767254E+03  0.23639767254E+03  0.00000000000E+00 0. -1.
         21   -1    0    0  501  502 -0.00000000000E+00 -0.00000000000E+00 -0.19966587393E+03  0.19966587393E+03  0.00000000000E+00 0. -1.
      99926    2    1    2    0    0  0.00000000000E+00  0.00000000000E+00  0.36731798619E+02  0.43606354647E+03  0.43451374147E+03 0.  0.
      99925    2    3    3    0    0  0.66794106068E+02 -0.62144334459E+02  0.40274931670E+02  0.28119769225E+03  0.26291957153E+03 0.  0.
         25    1    3    3    0    0 -0.66794106068E+02  0.62144334459E+02 -0.35431330504E+01  0.15486585422E+03  0.12509000000E+03 0.  0.
         25    1    4    4    0    0  0.71810972121E+02 -0.23740672113E+02  0.34106513242E+02  0.15010395589E+03  0.12509000000E+03 0.  0.
         25    1    4    4    0    0 -0.50168660522E+01 -0.38403662346E+02  0.61684184279E+01  0.13109373636E+03  0.12509000000E+03 0.  0.
<mgrwt>
<rscale>  2 0.43451374E+03</rscale>
<asrwt>0</asrwt>
<pdfrwt beam="1">  1       21 0.34764364E-01 0.43451374E+03</pdfrwt>
<pdfrwt beam="2">  1       21 0.29362628E-01 0.43451374E+03</pdfrwt>
<totfact> 0.82663572E+04</totfact>
</mgrwt>
</event>
<event>
 7    0  0.4775379E-002  0.4475896E+03  0.7546771E-02  0.1028443E+00
         21   -1    0    0  502  501  0.00000000000E+00  0.00000000000E+00  0.44504940695E+02  0.44504940695E+02  0.00000000000E+00 0.  1.
         21   -1    0    0  501  502 -0.00000000000E+00 -0.00000000000E+00 -0.11253609597E+04  0.11253609597E+04  0.00000000000E+00 0.  1.
      99926    2    1    2    0    0  0.00000000000E+00  0.00000000000E+00 -0.10808560190E+04  0.11698659004E+04  0.44758964587E+03 0.  0.
      99925    2    3    3    0    0 -0.82159515666E+02  0.17306268173E+02 -0.51589144592E+03  0.58515899102E+03  0.26309193804E+03 0.  0.
         25    1    4    4    0    0 -0.77700704571E+02 -0.77814799488E+01 -0.25103940100E+03  0.29114642343E+03  0.12509000000E+03 0.  0.
         25    1    4    4    0    0 -0.44588110945E+01  0.25087748122E+02 -0.26485204492E+03  0.29401256759E+03  0.12509000000E+03 0.  0.
         25    1    3    3    0    0  0.82159515666E+02 -0.17306268173E+02 -0.56496457313E+03  0.58470690942E+03  0.12509000000E+03 0.  0.
<mgrwt>
<rscale>  2 0.44758965E+03</rscale>
<asrwt>0</asrwt>
<pdfrwt beam="1">  1       21 0.65448428E-02 0.44758965E+03</pdfrwt>
<pdfrwt beam="2">  1       21 0.16549429E+00 0.44758965E+03</pdfrwt>
<totfact> 0.35109904E+04</totfact>
</mgrwt>
</event>
<event>
 6    0  0.4775379E-002  0.4602513E+03  0.7546771E-02  0.1024708E+00
         21   -1    0    0  502  501  0.00000000000E+00  0.00000000000E+00  0.16908040312E+03  0.16908040312E+03  0.00000000000E+00 0. -1.
         21   -1    0    0  501  502 -0.00000000000E+00 -0.00000000000E+00 -0.31321078555E+03  0.31321078555E+03  0.00000000000E+00 0. -1.
      99926    2    1    2    0    0  0.00000000000E+00  0.00000000000E+00 -0.14413038243E+03  0.48229118867E+03  0.46025126130E+03 0.  0.
         25    1    3    3    0    0 -0.27499278449E+02 -0.89790324773E+02 -0.76794837509E+02  0.17425116328E+03  0.12509000000E+03 0.  0.
         25    1    3    3    0    0  0.24849850378E+02  0.11636338837E+03 -0.41131806331E+02  0.17747474978E+03  0.12509000000E+03 0.  0.
         25    1    3    3    0    0  0.26494280707E+01 -0.26573063602E+02 -0.26203738593E+02  0.13056527561E+03  0.12509000000E+03 0.  0.
<mgrwt>
<rscale>  2 0.46025126E+03</rscale>
<asrwt>0</asrwt>
<pdfrwt beam="1">  1       21 0.24864765E-01 0.46025126E+03</pdfrwt>
<pdfrwt beam="2">  1       21 0.46060410E-01 0.46025126E+03</pdfrwt>
<totfact> 0.63831392E+04</totfact>
</mgrwt>
</event>
<event>
 6    0  0.4775379E-002  0.4549414E+03  0.7546771E-02  0.1026259E+00
         21   -1    0    0  502  501  0.00000000000E+00  0.00000000000E+00  0.55307683886E+03  0.55307683886E+03  0.00000000000E+00 0.  1.
         21   -1    0    0  501  502 -0.00000000000E+00 -0.00000000000E+00 -0.93554668581E+02  0.93554668581E+02  0.00000000000E+00 0.  1.
      99926    2    1    2    0    0  0.00000000000E+00  0.00000000000E+00  0.45952217028E+03  0.64663150744E+03  0.45494140440E+03 0.  0.
         25    1    3    3    0    0  0.30714724941E+02  0.70572961060E+02  0.26471156786E+03  0.30272703781E+03  0.12509000000E+03 0.  0.
         25    1    3    3    0    0 -0.92059558886E+00 -0.25809942313E+02  0.15739200177E+03  0.20269867029E+03  0.12509000000E+03 0.  0.
         25    1    3    3    0    0 -0.29794129352E+02 -0.44763018747E+02  0.37418600646E+02  0.14120579933E+03  0.12509000000E+03 0.  0.
<mgrwt>
<rscale>  2 0.45494140E+03</rscale>
<asrwt>0</asrwt>
<pdfrwt beam="1">  1       21 0.81334828E-01 0.45494140E+03</pdfrwt>
<pdfrwt beam="2">  1       21 0.13758040E-01 0.45494140E+03</pdfrwt>
<totfact> 0.55921814E+04</totfact>
</mgrwt>
</event>
<event>
 7    0  0.4775379E-002  0.4453446E+03  0.7546771E-02  0.1029119E+00
         21   -1    0    0  502  501  0.00000000000E+00  0.00000000000E+00  0.34965656422E+03  0.34965656422E+03  0.00000000000E+00 0. -1.
         21   -1    0    0  501  502 -0.00000000000E+00 -0.00000000000E+00 -0.14180469927E+03  0.14180469927E+03  0.00000000000E+00 0. -1.
      99926    2    1    2    0    0  0.17763568394E-14  0.00000000000E+00  0.20785186495E+03  0.49146126348E+03  0.44534455845E+03 0.  0.
      99925    2    3    3    0    0 -0.35004547038E+01  0.97626192375E+01  0.17985213713E+02  0.26385543036E+03  0.26303737054E+03 0.  0.
         25    1    3    3    0    0  0.35004547038E+01 -0.97626192375E+01  0.18986665124E+03  0.22760583312E+03  0.12509000000E+03 0.  0.
         25    1    4    4    0    0 -0.40775199420E+02 -0.37320846923E+01  0.16272776638E+02  0.13262298709E+03  0.12509000000E+03 0.  0.
         25    1    4    4    0    0  0.37274744717E+02  0.13494703930E+02  0.17124370748E+01  0.13123244328E+03  0.12509000000E+03 0.  0.
<mgrwt>
<rscale>  2 0.44534456E+03</rscale>
<asrwt>0</asrwt>
<pdfrwt beam="1">  1       21 0.51420083E-01 0.44534456E+03</pdfrwt>
<pdfrwt beam="2">  1       21 0.20853632E-01 0.44534456E+03</pdfrwt>
<totfact> 0.71175840E+04</totfact>
</mgrwt>
</event>
<event>
 7    0  0.4775379E-002  0.4537858E+03  0.7546771E-02  0.1026599E+00
         21   -1    0    0  502  501  0.00000000000E+00  0.00000000000E+00  0.52842067908E+03  0.52842067908E+03  0.00000000000E+00 0.  1.
         21   -1    0    0  501  502 -0.00000000000E+00 -0.00000000000E+00 -0.97423109719E+02  0.97423109719E+02  0.00000000000E+00 0.  1.
      99926    2    1    2    0    0  0.00000000000E+00  0.00000000000E+00  0.43099756936E+03  0.62584378880E+03  0.45378578997E+03 0.  0.
      99925    2    3    3    0    0  0.81321910345E+02 -0.38988013464E+02  0.18012045190E+03  0.33136092943E+03  0.26310334484E+03 0.  0.
         25    1    4    4    0    0  0.34930491623E+02 -0.39822169013E+02  0.49315850464E+02  0.14451818431E+03  0.12509000000E+03 0.  0.
         25    1    4    4    0    0  0.46391418722E+02  0.83415554886E+00  0.13080460144E+03  0.18684274512E+03  0.12509000000E+03 0.  0.
         25    1    3    3    0    0 -0.81321910345E+02  0.38988013464E+02  0.25087711746E+03  0.29448285937E+03  0.12509000000E+03 0.  0.
<mgrwt>
<rscale>  2 0.45378579E+03</rscale>
<asrwt>0</asrwt>
<pdfrwt beam="1">  1       21 0.77708922E-01 0.45378579E+03</pdfrwt>
<pdfrwt beam="2">  1       21 0.14326928E-01 0.45378579E+03</pdfrwt>
<totfact> 0.57665871E+04</totfact>
</mgrwt>
</event>
<event>
 7    0  0.4775379E-002  0.4562275E+03  0.7546771E-02  0.1025881E+00
         21   -1    0    0  502  501  0.00000000000E+00  0.00000000000E+00  0.19008832945E+03  0.19008832945E+03  0.00000000000E+00 0.  1.
         21   -1    0    0  501  502 -0.00000000000E+00 -0.00000000000E+00 -0.27374585347E+03  0.27374585347E+03  0.00000000000E+00 0.  1.
      99926    2    1    2    0    0  0.00000000000E+00 -0.35527136788E-14 -0.83657524016E+02  0.46383418292E+03  0.45622753963E+03 0.  0.
      99925    2    3    3    0    0  0.66202621940E+02  0.21837698837E+02 -0.14538132168E+03  0.30789506807E+03  0.26230511243E+03 0.  0.
         25    1    4    4    0    0 -0.27727532949E+00  0.36179535866E+01 -0.92405034408E+02  0.15556145073E+03  0.12509000000E+03 0.  0.
         25    1    4    4    0    0  0.66479897269E+02  0.18219745250E+02 -0.52976287274E+02  0.15233361734E+03  0.12509000000E+03 0.  0.
         25    1    3    3    0    0 -0.66202621940E+02 -0.21837698837E+02  0.61723797666E+02  0.15593911485E+03  0.12509000000E+03 0.  0.
<mgrwt>
<rscale>  2 0.45622754E+03</rscale>
<asrwt>0</asrwt>
<pdfrwt beam="1">  1       21 0.27954166E-01 0.45622754E+03</pdfrwt>
<pdfrwt beam="2">  1       21 0.40256743E-01 0.45622754E+03</pdfrwt>
<totfact> 0.67238251E+04</totfact>
</mgrwt>
</event>
<event>
 7    0  0.4775379E-002  0.4597427E+03  0.7546771E-02  0.1024856E+00
         21   -1    0    0  502  501  0.00000000000E+00  0.00000000000E+00  0.39331148119E+02  0.39331148119E+02  0.00000000000E+00 0. -1.
         21   -1    0    0  501  502 -0.00000000000E+00 -0.00000000000E+00 -0.13434856832E+04  0.13434856832E+04  0.00000000000E+00 0. -1.
      99926    2    1    2    0    0  0.71054273576E-14 -0.14210854715E-13 -0.13041545351E+04  0.13828168314E+04  0.45974268631E+03 0.  0.
      99925    2    3    3    0    0  0.32624276957E+02 -0.90034524401E+02 -0.61221953235E+03  0.67317458685E+03  0.26302226058E+03 0.  0.
         25    1    3    3    0    0 -0.32624276957E+02  0.90034524401E+02 -0.69193500277E+03  0.70964224451E+03  0.12509000000E+03 0.  0.
         25    1    4    4    0    0  0.12733687966E+01 -0.77025187823E+01 -0.31155930428E+03  0.33582385033E+03  0.12509000000E+03 0.  0.
         25    1    4    4    0    0  0.31350908160E+02 -0.82332005618E+02 -0.30066022807E+03  0.33735073652E+03  0.12509000000E+03 0.  0.
<mgrwt>
<rscale>  2 0.45974269E+03</rscale>
<asrwt>0</asrwt>
<pdfrwt beam="1">  1       21 0.57839934E-02 0.45974269E+03</pdfrwt>
<pdfrwt beam="2">  1       21 0.19757139E+00 0.45974269E+03</pdfrwt>
<totfact> 0.25828319E+04</totfact>
</mgrwt>
</event>
<event>
 7    0  0.4775379E-002  0.4686344E+03  0.7546771E-02  0.1022306E+00
         21   -1    0    0  502  501  0.00000000000E+00  0.00000000000E+00  0.16416249947E+03  0.16416249947E+03  0.00000000000E+00 0.  1.
         21   -1    0    0  501  502 -0.00000000000E+00 -0.00000000000E+00 -0.33445245559E+03  0.33445245559E+03  0.00000000000E+00 0.  1.
      99926    2    1    2    0    0  0.14210854715E-13  0.00000000000E+00 -0.17028995612E+03  0.49861495505E+03  0.46863440361E+03 0.  0.
      99925    2    3    3    0    0 -0.12509182158E+03 -0.10520793884E+02 -0.10580139792E+03  0.31002828223E+03  0.26299229846E+03 0.  0.
         25    1    4    4    0    0 -0.99490262039E+02 -0.25415192484E+02 -0.45991817377E+02  0.16824684132E+03  0.12509000000E+03 0.  0.
         25    1    3    3    0    0  0.12509182158E+03  0.10520793884E+02 -0.64488558205E+02  0.18858667283E+03  0.12509000000E+03 0.  0.
         25    1    4    4    0    0 -0.25601559537E+02  0.14894398600E+02 -0.59809580539E+02  0.14178144090E+03  0.12509000000E+03 0.  0.
<mgrwt>
<rscale>  2 0.46863440E+03</rscale>
<asrwt>0</asrwt>
<pdfrwt beam="1">  1       21 0.24141544E-01 0.46863440E+03</pdfrwt>
<pdfrwt beam="2">  1       21 0.49184184E-01 0.46863440E+03</pdfrwt>
<totfact> 0.58747257E+04</totfact>
</mgrwt>
</event>
<event>
 7    0  0.4775379E-002  0.4507613E+03  0.7546771E-02  0.1027495E+00
         21   -1    0    0  502  501  0.00000000000E+00  0.00000000000E+00  0.16237579810E+03  0.16237579810E+03  0.00000000000E+00 0.  1.
         21   -1    0    0  501  502 -0.00000000000E+00 -0.00000000000E+00 -0.31283262881E+03  0.31283262881E+03  0.00000000000E+00 0.  1.
      99926    2    1    2    0    0  0.00000000000E+00  0.00000000000E+00 -0.15045683072E+03  0.47520842691E+03  0.45076134606E+03 0.  0.
      99925    2    3    3    0    0 -0.10270941682E+03 -0.36255549114E+02 -0.83183844151E+02  0.29622001397E+03  0.26260817886E+03 0.  0.
         25    1    4    4    0    0 -0.61971855144E+02 -0.24765084533E+02 -0.82751975892E+02  0.16416216938E+03  0.12509000000E+03 0.  0.
         25    1    4    4    0    0 -0.40737561677E+02 -0.11490464581E+02 -0.43186825899E+00  0.13205784459E+03  0.12509000000E+03 0.  0.
         25    1    3    3    0    0  0.10270941682E+03  0.36255549114E+02 -0.67272986566E+02  0.17898841294E+03  0.12509000000E+03 0.  0.
<mgrwt>
<rscale>  2 0.45076135E+03</rscale>
<asrwt>0</asrwt>
<pdfrwt beam="1">  1       21 0.23878794E-01 0.45076135E+03</pdfrwt>
<pdfrwt beam="2">  1       21 0.46004798E-01 0.45076135E+03</pdfrwt>
<totfact> 0.69354544E+04</totfact>
</mgrwt>
</event>
<event>
 7    0  0.4775379E-002  0.4575644E+03  0.7546771E-02  0.1025490E+00
         21   -1    0    0  502  501  0.00000000000E+00  0.00000000000E+00  0.88589423783E+02  0.88589423783E+02  0.00000000000E+00 0. -1.
         21   -1    0    0  501  502 -0.00000000000E+00 -0.00000000000E+00 -0.59083008376E+03  0.59083008376E+03  0.00000000000E+00 0. -1.
      99926    2    1    2    0    0  0.00000000000E+00  0.00000000000E+00 -0.50224065998E+03  0.67941950754E+03  0.45756440716E+03 0.  0.
      99925    2    3    3    0    0 -0.67936119268E+02  0.90074961594E+02 -0.27860038093E+03  0.39943504811E+03  0.26306153349E+03 0.  0.
         25    1    3    3    0    0  0.67936119268E+02 -0.90074961594E+02 -0.22364027905E+03  0.27998445943E+03  0.12509000000E+03 0.  0.
         25    1    4    4    0    0 -0.33062438945E+01  0.61317409845E+02 -0.16688130840E+03  0.21741121221E+03  0.12509000000E+03 0.  0.
         25    1    4    4    0    0 -0.64629875374E+02  0.28757551749E+02 -0.11171907252E+03  0.18202383591E+03  0.12509000000E+03 0.  0.
<mgrwt>
<rscale>  2 0.45756441E+03</rscale>
<asrwt>0</asrwt>
<pdfrwt beam="1">  1       21 0.13027856E-01 0.45756441E+03</pdfrwt>
<pdfrwt beam="2">  1       21 0.86886780E-01 0.45756441E+03</pdfrwt>
<totfact> 0.52957019E+04</totfact>
</mgrwt>
</event>
<event>
 7    0  0.4775379E-002  0.4580663E+03  0.7546771E-02  0.1025344E+00
         21   -1    0    0  502  501  0.00000000000E+00  0.00000000000E+00  0.72625956949E+03  0.72625956949E+03  0.00000000000E+00 0. -1.
         21   -1    0    0  501  502 -0.00000000000E+00 -0.00000000000E+00 -0.72227884596E+02  0.72227884596E+02  0.00000000000E+00 0. -1.
      99926    2    1    2    0    0  0.00000000000E+00 -0.17763568394E-14  0.65403168490E+03  0.79848745409E+03  0.45806633743E+03 0.  0.
      99925    2    3    3    0    0 -0.11463225137E+03 -0.15937152912E+02  0.40045951655E+03  0.49297002650E+03  0.26316739301E+03 0.  0.
         25    1    4    4    0    0 -0.23394884868E+02  0.16288760443E+02  0.15859855647E+03  0.20399425131E+03  0.12509000000E+03 0.  0.
         25    1    3    3    0    0  0.11463225137E+03  0.15937152912E+02  0.25357216835E+03  0.30551742759E+03  0.12509000000E+03 0.  0.
         25    1    4    4    0    0 -0.91237366500E+02 -0.32225913355E+02  0.24186096008E+03  0.28897577519E+03  0.12509000000E+03 0.  0.
<mgrwt>
<rscale>  2 0.45806634E+03</rscale>
<asrwt>0</asrwt>
<pdfrwt beam="1">  1       21 0.10680287E+00 0.45806634E+03</pdfrwt>
<pdfrwt beam="2">  1       21 0.10621748E-01 0.45806634E+03</pdfrwt>
<totfact> 0.46703979E+04</totfact>
</mgrwt>
</event>
<event>
 7    0  0.4775379E-002  0.4514957E+03  0.7546771E-02  0.1027277E+00
         21   -1    0    0  502  501  0.00000000000E+00  0.00000000000E+00  0.61620150032E+02  0.61620150032E+02  0.00000000000E+00 0. -1.
         21   -1    0    0  501  502 -0.00000000000E+00 -0.00000000000E+00 -0.82703625734E+03  0.82703625734E+03  0.00000000000E+00 0. -1.
      99926    2    1    2    0    0 -0.71054273576E-14  0.00000000000E+00 -0.76541610731E+03  0.88865640738E+03  0.45149572870E+03 0.  0.
      99925    2    3    3    0    0 -0.35361764480E+02  0.62340753051E+02 -0.31913887566E+03  0.41967058726E+03  0.26293907275E+03 0.  0.
         25    1    3    3    0    0  0.35361764480E+02 -0.62340753051E+02 -0.44627723165E+03  0.46898582011E+03  0.12509000000E+03 0.  0.
         25    1    4    4    0    0 -0.21519511893E+01 -0.68101094666E+01 -0.15969869598E+03  0.20298322611E+03  0.12509000000E+03 0.  0.
         25    1    4    4    0    0 -0.33209813290E+02  0.69150862518E+02 -0.15944017968E+03  0.21668736115E+03  0.12509000000E+03 0.  0.
<mgrwt>
<rscale>  2 0.45149573E+03</rscale>
<asrwt>0</asrwt>
<pdfrwt beam="1">  1       21 0.90617873E-02 0.45149573E+03</pdfrwt>
<pdfrwt beam="2">  1       21 0.12162297E+00 0.45149573E+03</pdfrwt>
<totfact> 0.44948593E+04</totfact>
</mgrwt>
</event>
<event>
 7    0  0.4775379E-002  0.4539089E+03  0.7546771E-02  0.1026563E+00
         21   -1    0    0  502  501  0.00000000000E+00  0.00000000000E+00  0.69376472386E+02  0.69376472386E+02  0.00000000000E+00 0.  1.
         21   -1    0    0  501  502 -0.00000000000E+00 -0.00000000000E+00 -0.74244645083E+03  0.74244645083E+03  0.00000000000E+00 0.  1.
      99926    2    1    2    0    0  0.00000000000E+00  0.13322676296E-14 -0.67306997844E+03  0.81182292321E+03  0.45390887056E+03 0.  0.
      99925    2    3    3    0    0  0.87763650670E+02 -0.26712705364E+01 -0.54732810774E+03  0.61391354948E+03  0.26384122999E+03 0.  0.
         25    1    4    4    0    0  0.44796356070E+02 -0.18827463463E+02 -0.35860231557E+03  0.38288943016E+03  0.12509000000E+03 0.  0.
         25    1    4    4    0    0  0.42967294600E+02  0.16156192927E+02 -0.18872579217E+03  0.23102411932E+03  0.12509000000E+03 0.  0.
         25    1    3    3    0    0 -0.87763650670E+02  0.26712705364E+01 -0.12574187070E+03  0.19790937374E+03  0.12509000000E+03 0.  0.
<mgrwt>
<rscale>  2 0.45390887E+03</rscale>
<asrwt>0</asrwt>
<pdfrwt beam="1">  1       21 0.10202422E-01 0.45390887E+03</pdfrwt>
<pdfrwt beam="2">  1       21 0.10918330E+00 0.45390887E+03</pdfrwt>
<totfact> 0.47604555E+04</totfact>
</mgrwt>
</event>
<event>
 7    0  0.4775379E-002  0.4532082E+03  0.7546771E-02  0.1026770E+00
         21   -1    0    0  502  501  0.00000000000E+00  0.00000000000E+00  0.42882824140E+03  0.42882824140E+03  0.00000000000E+00 0. -1.
         21   -1    0    0  501  502 -0.00000000000E+00 -0.00000000000E+00 -0.11974354209E+03  0.11974354209E+03  0.00000000000E+00 0. -1.
      99926    2    1    2    0    0  0.00000000000E+00  0.00000000000E+00  0.30908469930E+03  0.54857178349E+03  0.45320817545E+03 0.  0.
      99925    2    3    3    0    0  0.73389241534E+02 -0.58492308904E+02  0.26763142515E+03  0.38679040937E+03  0.26300743351E+03 0.  0.
         25    1    4    4    0    0  0.23793515226E+02 -0.33683391111E+02  0.18448417410E+03  0.22667734954E+03  0.12509000000E+03 0.  0.
         25    1    3    3    0    0 -0.73389241534E+02  0.58492308904E+02  0.41453274154E+02  0.16178137412E+03  0.12509000000E+03 0.  0.
         25    1    4    4    0    0  0.49595726309E+02 -0.24808917793E+02  0.83147251053E+02  0.16011305983E+03  0.12509000000E+03 0.  0.
<mgrwt>
<rscale>  2 0.45320818E+03</rscale>
<asrwt>0</asrwt>
<pdfrwt beam="1">  1       21 0.63062976E-01 0.45320818E+03</pdfrwt>
<pdfrwt beam="2">  1       21 0.17609345E-01 0.45320818E+03</pdfrwt>
<totfact> 0.62847259E+04</totfact>
</mgrwt>
</event>
<event>
 7    0  0.4775379E-002  0.4588174E+03  0.7546771E-02  0.1025125E+00
         21   -1    0    0  502  501  0.00000000000E+00  0.00000000000E+00  0.74390910478E+02  0.74390910478E+02  0.00000000000E+00 0. -1.
         21   -1    0    0  501  502 -0.00000000000E+00 -0.00000000000E+00 -0.70745679441E+03  0.70745679441E+03  0.00000000000E+00 0. -1.
      99926    2    1    2    0    0  0.00000000000E+00  0.00000000000E+00 -0.63306588393E+03  0.78184770488E+03  0.45881741492E+03 0.  0.
      99925    2    3    3    0    0 -0.66242743082E+02 -0.84135691657E+02 -0.31800936272E+03  0.42635503931E+03  0.26302423680E+03 0.  0.
         25    1    3    3    0    0  0.66242743082E+02  0.84135691657E+02 -0.31505652121E+03  0.35549266558E+03  0.12509000000E+03 0.  0.
         25    1    4    4    0    0  0.33355436421E+01 -0.33777695624E+02 -0.11784468952E+03  0.17517687496E+03  0.12509000000E+03 0.  0.
         25    1    4    4    0    0 -0.69578286724E+02 -0.50357996032E+02 -0.20016467320E+03  0.25117816435E+03  0.12509000000E+03 0.  0.
<mgrwt>
<rscale>  2 0.45881741E+03</rscale>
<asrwt>0</asrwt>
<pdfrwt beam="1">  1       21 0.10939840E-01 0.45881741E+03</pdfrwt>
<pdfrwt beam="2">  1       21 0.10403776E+00 0.45881741E+03</pdfrwt>
<totfact> 0.47224428E+04</totfact>
</mgrwt>
</event>
<event>
 7    0  0.4775379E-002  0.4536786E+03  0.7546771E-02  0.1026631E+00
         21   -1    0    0  502  501  0.00000000000E+00  0.00000000000E+00  0.18640267857E+04  0.18640267857E+04  0.00000000000E+00 0. -1.
         21   -1    0    0  501  502 -0.00000000000E+00 -0.00000000000E+00 -0.27604790135E+02  0.27604790135E+02  0.00000000000E+00 0. -1.
      99926    2    1    2    0    0  0.00000000000E+00  0.00000000000E+00  0.18364219956E+04  0.18916315758E+04  0.45367860089E+03 0.  0.
      99925    2    3    3    0    0 -0.64876200794E+02  0.86956044504E+02  0.12722457085E+04  0.13036582209E+04  0.26295501339E+03 0.  0.
         25    1    4    4    0    0 -0.64378435654E+02  0.54971740917E+02  0.57186563552E+03  0.59147636340E+03  0.12509000000E+03 0.  0.
         25    1    4    4    0    0 -0.49776514035E+00  0.31984303588E+02  0.70038007301E+03  0.71218185754E+03  0.12509000000E+03 0.  0.
         25    1    3    3    0    0  0.64876200794E+02 -0.86956044504E+02  0.56417628704E+03  0.58797335489E+03  0.12509000000E+03 0.  0.
<mgrwt>
<rscale>  2 0.45367860E+03</rscale>
<asrwt>0</asrwt>
<pdfrwt beam="1">  1       21 0.27412150E+00 0.45367860E+03</pdfrwt>
<pdfrwt beam="2">  1       21 0.40595292E-02 0.45367860E+03</pdfrwt>
<totfact> 0.15721415E+04</totfact>
</mgrwt>
</event>
<event>
 7    0  0.4775379E-002  0.4530629E+03  0.7546771E-02  0.1026813E+00
         21   -1    0    0  502  501  0.00000000000E+00  0.00000000000E+00  0.98939424202E+02  0.98939424202E+02  0.00000000000E+00 0.  1.
         21   -1    0    0  501  502 -0.00000000000E+00 -0.00000000000E+00 -0.51866593128E+03  0.51866593128E+03  0.00000000000E+00 0.  1.
      99926    2    1    2    0    0  0.00000000000E+00  0.00000000000E+00 -0.41972650708E+03  0.61760535548E+03  0.45306294748E+03 0.  0.
      99925    2    3    3    0    0 -0.92008302863E+02 -0.23472318672E+02 -0.18534959814E+03  0.33547680130E+03  0.26300899821E+03 0.  0.
         25    1    4    4    0    0 -0.85615934757E+02 -0.24678377152E+02 -0.89525255832E+02  0.17776779831E+03  0.12509000000E+03 0.  0.
         25    1    4    4    0    0 -0.63923681058E+01  0.12060584806E+01 -0.95824342306E+02  0.15770900299E+03  0.12509000000E+03 0.  0.
         25    1    3    3    0    0  0.92008302863E+02  0.23472318672E+02 -0.23437690894E+03  0.28212855418E+03  0.12509000000E+03 0.  0.
<mgrwt>
<rscale>  2 0.45306295E+03</rscale>
<asrwt>0</asrwt>
<pdfrwt beam="1">  1       21 0.14549916E-01 0.45306295E+03</pdfrwt>
<pdfrwt beam="2">  1       21 0.76274400E-01 0.45306295E+03</pdfrwt>
<totfact> 0.58497198E+04</totfact>
</mgrwt>
</event>
<event>
 7    0  0.4775379E-002  0.4529437E+03  0.7546771E-02  0.1026848E+00
         21   -1    0    0  502  501  0.00000000000E+00  0.00000000000E+00  0.76935672704E+03  0.76935672704E+03  0.00000000000E+00 0.  1.
         21   -1    0    0  501  502 -0.00000000000E+00 -0.00000000000E+00 -0.66665423937E+02  0.66665423937E+02  0.00000000000E+00 0.  1.
      99926    2    1    2    0    0  0.14210854715E-13  0.00000000000E+00  0.70269130310E+03  0.83602215097E+03  0.45294367141E+03 0.  0.
      99925    2    3    3    0    0 -0.10269543061E+03 -0.26064231379E+02  0.50564878745E+03  0.57970407378E+03  0.26296467686E+03 0.  0.
         25    1    4    4    0    0 -0.63179792113E+02 -0.63592410546E+00  0.33374139252E+03  0.36197087689E+03  0.12509000000E+03 0.  0.
         25    1    4    4    0    0 -0.39515638497E+02 -0.25428307273E+02  0.17190739493E+03  0.21773319689E+03  0.12509000000E+03 0.  0.
         25    1    3    3    0    0  0.10269543061E+03  0.26064231379E+02  0.19704251565E+03  0.25631807720E+03  0.12509000000E+03 0.  0.
<mgrwt>
<rscale>  2 0.45294367E+03</rscale>
<asrwt>0</asrwt>
<pdfrwt beam="1">  1       21 0.11314069E+00 0.45294367E+03</pdfrwt>
<pdfrwt beam="2">  1       21 0.98037393E-02 0.45294367E+03</pdfrwt>
<totfact> 0.46822109E+04</totfact>
</mgrwt>
</event>
<event>
 7    0  0.4775379E-002  0.4589358E+03  0.7546771E-02  0.1025090E+00
         21   -1    0    0  502  501  0.00000000000E+00  0.00000000000E+00  0.12299460209E+03  0.12299460209E+03  0.00000000000E+00 0. -1.
         21   -1    0    0  501  502 -0.00000000000E+00 -0.00000000000E+00 -0.42811238788E+03  0.42811238788E+03  0.00000000000E+00 0. -1.
      99926    2    1    2    0    0  0.00000000000E+00  0.00000000000E+00 -0.30511778579E+03  0.55110698998E+03  0.45893578112E+03 0.  0.
      99925    2    3    3    0    0  0.71161960386E+02 -0.92023194640E+02 -0.20401784843E+03  0.35261014267E+03  0.26301775087E+03 0.  0.
         25    1    3    3    0    0 -0.71161960386E+02  0.92023194640E+02 -0.10109993736E+03  0.19849684731E+03  0.12509000000E+03 0.  0.
         25    1    4    4    0    0  0.56436119133E+02 -0.48370181720E+02 -0.14940651945E+03  0.20855341325E+03  0.12509000000E+03 0.  0.
         25    1    4    4    0    0  0.14725841253E+02 -0.43653012920E+02 -0.54611328978E+02  0.14405672942E+03  0.12509000000E+03 0.  0.
<mgrwt>
<rscale>  2 0.45893578E+03</rscale>
<asrwt>0</asrwt>
<pdfrwt beam="1">  1       21 0.18087441E-01 0.45893578E+03</pdfrwt>
<pdfrwt beam="2">  1       21 0.62957704E-01 0.45893578E+03</pdfrwt>
<totfact> 0.59906101E+04</totfact>
</mgrwt>
</event>
<event>
 7    0  0.4775379E-002  0.4640298E+03  0.7546771E-02  0.1023619E+00
         21   -1    0    0  502  501  0.00000000000E+00  0.00000000000E+00  0.11800772018E+03  0.11800772018E+03  0.00000000000E+00 0.  1.
         21   -1    0    0  501  502 -0.00000000000E+00 -0.00000000000E+00 -0.45616433386E+03  0.45616433386E+03  0.00000000000E+00 0.  1.
      99926    2    1    2    0    0  0.00000000000E+00  0.00000000000E+00 -0.33815661368E+03  0.57417205404E+03  0.46402979674E+03 0.  0.
      99925    2    3    3    0    0  0.69322183827E+02 -0.64755471978E+02 -0.11722754488E+03  0.30314438411E+03  0.26297411283E+03 0.  0.
         25    1    3    3    0    0 -0.69322183827E+02  0.64755471978E+02 -0.22092906881E+03  0.27102766993E+03  0.12509000000E+03 0.  0.
         25    1    4    4    0    0  0.41587742027E+02  0.79119930894E+01 -0.61167041075E+02  0.14553712563E+03  0.12509000000E+03 0.  0.
         25    1    4    4    0    0  0.27734441800E+02 -0.72667465067E+02 -0.56060503803E+02  0.15760725849E+03  0.12509000000E+03 0.  0.
<mgrwt>
<rscale>  2 0.46402980E+03</rscale>
<asrwt>0</asrwt>
<pdfrwt beam="1">  1       21 0.17354076E-01 0.46402980E+03</pdfrwt>
<pdfrwt beam="2">  1       21 0.67082991E-01 0.46402980E+03</pdfrwt>
<totfact> 0.56177097E+04</totfact>
</mgrwt>
</event>
<event>
 7    0  0.4775379E-002  0.4508260E+03  0.7546771E-02  0.1027476E+00
         21   -1    0    0  502  501  0.00000000000E+00  0.00000000000E+00  0.72966756683E+03  0.72966756683E+03  0.00000000000E+00 0.  1.
         21   -1    0    0  501  502 -0.00000000000E+00 -0.00000000000E+00 -0.69635863932E+02  0.69635863932E+02  0.00000000000E+00 0.  1.
      99926    2    1    2    0    0  0.00000000000E+00  0.00000000000E+00  0.66003170290E+03  0.79930343076E+03  0.45082604805E+03 0.  0.
      99925    2    3    3    0    0  0.70829571984E+02 -0.77552763838E+02  0.36348985208E+03  0.46075382312E+03  0.26294096963E+03 0.  0.
         25    1    4    4    0    0  0.35716736245E+02 -0.75921561060E+02  0.16393413292E+03  0.22262451958E+03  0.12509000000E+03 0.  0.
         25    1    4    4    0    0  0.35112835740E+02 -0.16312027783E+01  0.19955571917E+03  0.23812930355E+03  0.12509000000E+03 0.  0.
         25    1    3    3    0    0 -0.70829571984E+02  0.77552763838E+02  0.29654185082E+03  0.33854960764E+03  0.12509000000E+03 0.  0.
<mgrwt>
<rscale>  2 0.45082605E+03</rscale>
<asrwt>0</asrwt>
<pdfrwt beam="1">  1       21 0.10730405E+00 0.45082605E+03</pdfrwt>
<pdfrwt beam="2">  1       21 0.10240569E-01 0.45082605E+03</pdfrwt>
<totfact> 0.49396827E+04</totfact>
</mgrwt>
</event>
<event>
 7    0  0.4775379E-002  0.4529563E+03  0.7546771E-02  0.1026844E+00
         21   -1    0    0  502  501  0.00000000000E+00  0.00000000000E+00  0.61469948601E+02  0.61469948601E+02  0.00000000000E+00 0. -1.
         21   -1    0    0  501  502 -0.00000000000E+00 -0.00000000000E+00 -0.83442970635E+03  0.83442970635E+03  0.00000000000E+00 0. -1.
      99926    2    1    2    0    0  0.00000000000E+00  0.00000000000E+00 -0.77295975775E+03  0.89589965495E+03  0.45295629440E+03 0.  0.
      99925    2    3    3    0    0  0.32311636878E+02  0.92437365154E+02 -0.59171154246E+03  0.65488693330E+03  0.26299360746E+03 0.  0.
         25    1    4    4    0    0  0.14876967737E+02  0.88340329082E+02 -0.30726341197E+03  0.34363301697E+03  0.12509000000E+03 0.  0.
         25    1    4    4    0    0  0.17434669142E+02  0.40970360724E+01 -0.28444813049E+03  0.31125391633E+03  0.12509000000E+03 0.  0.
         25    1    3    3    0    0 -0.32311636878E+02 -0.92437365154E+02 -0.18124821529E+03  0.24101272165E+03  0.12509000000E+03 0.  0.
<mgrwt>
<rscale>  2 0.45295629E+03</rscale>
<asrwt>0</asrwt>
<pdfrwt beam="1">  1       21 0.90396985E-02 0.45295629E+03</pdfrwt>
<pdfrwt beam="2">  1       21 0.12271025E+00 0.45295629E+03</pdfrwt>
<totfact> 0.44113118E+04</totfact>
</mgrwt>
</event>
<event>
 7    0  0.4775379E-002  0.4536195E+03  0.7546771E-02  0.1026648E+00
         21   -1    0    0  502  501  0.00000000000E+00  0.00000000000E+00  0.61109635004E+03  0.61109635004E+03  0.00000000000E+00 0.  1.
         21   -1    0    0  501  502 -0.00000000000E+00 -0.00000000000E+00 -0.84180927632E+02  0.84180927632E+02  0.00000000000E+00 0.  1.
      99926    2    1    2    0    0 -0.35527136788E-14  0.00000000000E+00  0.52691542241E+03  0.69527727768E+03  0.45361947762E+03 0.  0.
      99925    2    3    3    0    0 -0.20332674100E+02  0.17176290830E+02  0.49849259762E+03  0.56426656181E+03  0.26304646032E+03 0.  0.
         25    1    4    4    0    0 -0.32503897819E+02  0.35720680686E+02  0.21166453978E+03  0.25056307769E+03  0.12509000000E+03 0.  0.
         25    1    3    3    0    0  0.20332674100E+02 -0.17176290830E+02  0.28422824790E+02  0.13101071587E+03  0.12509000000E+03 0.  0.
         25    1    4    4    0    0  0.12171223719E+02 -0.18544389856E+02  0.28682805784E+03  0.31370348412E+03  0.12509000000E+03 0.  0.
<mgrwt>
<rscale>  2 0.45361948E+03</rscale>
<asrwt>0</asrwt>
<pdfrwt beam="1">  1       21 0.89867109E-01 0.45361948E+03</pdfrwt>
<pdfrwt beam="2">  1       21 0.12379548E-01 0.45361948E+03</pdfrwt>
<totfact> 0.53741719E+04</totfact>
</mgrwt>
</event>
<event>
 7    0  0.4775379E-002  0.4523575E+03  0.7546771E-02  0.1027021E+00
         21   -1    0    0  502  501  0.00000000000E+00  0.00000000000E+00  0.18439256328E+03  0.18439256328E+03  0.00000000000E+00 0. -1.
         21   -1    0    0  501  502 -0.00000000000E+00 -0.00000000000E+00 -0.27743434728E+03  0.27743434728E+03  0.00000000000E+00 0. -1.
      99926    2    1    2    0    0  0.00000000000E+00  0.00000000000E+00 -0.93041783999E+02  0.46182691057E+03  0.45235751542E+03 0.  0.
      99925    2    3    3    0    0  0.89192174084E+02 -0.29761283970E+02  0.78311916614E+00  0.27936705609E+03  0.26306721729E+03 0.  0.
         25    1    4    4    0    0  0.63239305656E+02 -0.49671141745E+01  0.35501088224E+02  0.14467797817E+03  0.12509000000E+03 0.  0.
         25    1    3    3    0    0 -0.89192174084E+02  0.29761283970E+02 -0.93824903166E+02  0.18245985448E+03  0.12509000000E+03 0.  0.
         25    1    4    4    0    0  0.25952868429E+02 -0.24794169796E+02 -0.34717969058E+02  0.13468907792E+03  0.12509000000E+03 0.  0.
<mgrwt>
<rscale>  2 0.45235752E+03</rscale>
<asrwt>0</asrwt>
<pdfrwt beam="1">  1       21 0.27116553E-01 0.45235752E+03</pdfrwt>
<pdfrwt beam="2">  1       21 0.40799169E-01 0.45235752E+03</pdfrwt>
<totfact> 0.69494504E+04</totfact>
</mgrwt>
</event>
<event>
 7    0  0.4775379E-002  0.4495202E+03  0.7546771E-02  0.1027865E+00
         21   -1    0    0  502  501  0.00000000000E+00  0.00000000000E+00  0.95370826310E+02  0.95370826310E+02  0.00000000000E+00 0.  1.
         21   -1    0    0  501  502 -0.00000000000E+00 -0.00000000000E+00 -0.52969136598E+03  0.52969136598E+03  0.00000000000E+00 0.  1.
      99926    2    1    2    0    0  0.00000000000E+00  0.00000000000E+00 -0.43432053967E+03  0.62506219229E+03  0.44952020316E+03 0.  0.
      99925    2    3    3    0    0  0.71759208878E+02 -0.37363033666E+02 -0.37389579455E+03  0.46430138156E+03  0.26312036674E+03 0.  0.
         25    1    3    3    0    0 -0.71759208878E+02  0.37363033666E+02 -0.60424745118E+02  0.16076081073E+03  0.12509000000E+03 0.  0.
         25    1    4    4    0    0  0.15595602223E+02 -0.37815938676E+02 -0.23361852822E+03  0.26813875672E+03  0.12509000000E+03 0.  0.
         25    1    4    4    0    0  0.56163606655E+02  0.45290500988E+00 -0.14027726633E+03  0.19616262484E+03  0.12509000000E+03 0.  0.
<mgrwt>
<rscale>  2 0.44952020E+03</rscale>
<asrwt>0</asrwt>
<pdfrwt beam="1">  1       21 0.14025122E-01 0.44952020E+03</pdfrwt>
<pdfrwt beam="2">  1       21 0.77895788E-01 0.44952020E+03</pdfrwt>
<totfact> 0.59702845E+04</totfact>
</mgrwt>
</event>
<event>
 7    0  0.4775379E-002  0.4531245E+03  0.7546771E-02  0.1026794E+00
         21   -1    0    0  502  501  0.00000000000E+00  0.00000000000E+00  0.91164076653E+03  0.91164076653E+03  0.00000000000E+00 0. -1.
         21   -1    0    0  501  502 -0.00000000000E+00 -0.00000000000E+00 -0.56305564044E+02  0.56305564044E+02  0.00000000000E+00 0. -1.
      99926    2    1    2    0    0  0.00000000000E+00 -0.35527136788E-14  0.85533520249E+03  0.96794633058E+03  0.45312447546E+03 0.  0.
      99925    2    3    3    0    0 -0.34497454430E+02  0.16777190794E+02  0.31560234016E+03  0.41258102803E+03  0.26295763743E+03 0.  0.
         25    1    4    4    0    0 -0.32634814150E+01  0.12029119915E+02  0.21468726299E+03  0.24878400075E+03  0.12509000000E+03 0.  0.
         25    1    4    4    0    0 -0.31233973015E+02  0.47480708790E+01  0.10091507717E+03  0.16379702728E+03  0.12509000000E+03 0.  0.
         25    1    3    3    0    0  0.34497454430E+02 -0.16777190794E+02  0.53973286233E+03  0.55536530254E+03  0.12509000000E+03 0.  0.
<mgrwt>
<rscale>  2 0.45312448E+03</rscale>
<asrwt>0</asrwt>
<pdfrwt beam="1">  1       21 0.13406481E+00 0.45312448E+03</pdfrwt>
<pdfrwt beam="2">  1       21 0.82802306E-02 0.45312448E+03</pdfrwt>
<totfact> 0.41020745E+04</totfact>
</mgrwt>
</event>
<event>
 7    0  0.4775379E-002  0.4630855E+03  0.7546771E-02  0.1023890E+00
         21   -1    0    0  502  501  0.00000000000E+00  0.00000000000E+00  0.12427906331E+03  0.12427906331E+03  0.00000000000E+00 0. -1.
         21   -1    0    0  501  502 -0.00000000000E+00 -0.00000000000E+00 -0.43138442322E+03  0.43138442322E+03  0.00000000000E+00 0. -1.
      99926    2    1    2    0    0  0.00000000000E+00  0.00000000000E+00 -0.30710535990E+03  0.55566348653E+03  0.46308553010E+03 0.  0.
      99925    2    3    3    0    0 -0.70126902410E+02  0.60332537849E+02 -0.28434614177E+03  0.39842707957E+03  0.26331276428E+03 0.  0.
         25    1    4    4    0    0 -0.76982325660E+02  0.34137163630E+02 -0.14445056679E+03  0.20881833912E+03  0.12509000000E+03 0.  0.
         25    1    3    3    0    0  0.70126902410E+02 -0.60332537849E+02 -0.22759218138E+02  0.15723640696E+03  0.12509000000E+03 0.  0.
         25    1    4    4    0    0  0.68554232502E+01  0.26195374219E+02 -0.13989557497E+03  0.18960874045E+03  0.12509000000E+03 0.  0.
<mgrwt>
<rscale>  2 0.46308553E+03</rscale>
<asrwt>0</asrwt>
<pdfrwt beam="1">  1       21 0.18276332E-01 0.46308553E+03</pdfrwt>
<pdfrwt beam="2">  1       21 0.63438887E-01 0.46308553E+03</pdfrwt>
<totfact> 0.57712721E+04</totfact>
</mgrwt>
</event>
<event>
 7    0  0.4775379E-002  0.4544294E+03  0.7546771E-02  0.1026409E+00
         21   -1    0    0  502  501  0.00000000000E+00  0.00000000000E+00  0.75930334522E+03  0.75930334522E+03  0.00000000000E+00 0.  1.
         21   -1    0    0  501  502 -0.00000000000E+00 -0.00000000000E+00 -0.67991949983E+02  0.67991949983E+02  0.00000000000E+00 0.  1.
      99926    2    1    2    0    0  0.00000000000E+00 -0.66613381478E-15  0.69131139524E+03  0.82729529521E+03  0.45442937876E+03 0.  0.
      99925    2    3    3    0    0 -0.66377307558E+02  0.17877552427E+01  0.60082638303E+03  0.65923522094E+03  0.26303914339E+03 0.  0.
         25    1    4    4    0    0 -0.40831513321E+02 -0.27223055490E+02  0.23525268104E+03  0.27092367794E+03  0.12509000000E+03 0.  0.
         25    1    3    3    0    0  0.66377307558E+02 -0.17877552427E+01  0.90485012209E+02  0.16806007427E+03  0.12509000000E+03 0.  0.
         25    1    4    4    0    0 -0.25545794238E+02  0.29010810733E+02  0.36557370199E+03  0.38831154300E+03  0.12509000000E+03 0.  0.
<mgrwt>
<rscale>  2 0.45442938E+03</rscale>
<asrwt>0</asrwt>
<pdfrwt beam="1">  1       21 0.11166225E+00 0.45442938E+03</pdfrwt>
<pdfrwt beam="2">  1       21 0.99988166E-02 0.45442938E+03</pdfrwt>
<totfact> 0.46681395E+04</totfact>
</mgrwt>
</event>
<event>
 7    0  0.4775379E-002  0.4525480E+03  0.7546771E-02  0.1026965E+00
         21   -1    0    0  502  501  0.00000000000E+00  0.00000000000E+00  0.69889522190E+02  0.69889522190E+02  0.00000000000E+00 0.  1.
         21   -1    0    0  501  502 -0.00000000000E+00 -0.00000000000E+00 -0.73258359366E+03  0.73258359366E+03  0.00000000000E+00 0.  1.
      99926    2    1    2    0    0  0.00000000000E+00  0.00000000000E+00 -0.66269407147E+03  0.80247311585E+03  0.45254797458E+03 0.  0.
      99925    2    3    3    0    0  0.63661837774E+02 -0.48906934229E+02 -0.55350769665E+03  0.61804456505E+03  0.26298972667E+03 0.  0.
         25    1    3    3    0    0 -0.63661837774E+02  0.48906934229E+02 -0.10918637482E+03  0.18442855080E+03  0.12509000000E+03 0.  0.
         25    1    4    4    0    0  0.53555930980E+02 -0.38141683779E+02 -0.21930222667E+03  0.26089078272E+03  0.12509000000E+03 0.  0.
         25    1    4    4    0    0  0.10105906795E+02 -0.10765250450E+02 -0.33420546997E+03  0.35715378233E+03  0.12509000000E+03 0.  0.
<mgrwt>
<rscale>  2 0.45254797E+03</rscale>
<asrwt>0</asrwt>
<pdfrwt beam="1">  1       21 0.10277871E-01 0.45254797E+03</pdfrwt>
<pdfrwt beam="2">  1       21 0.10773288E+00 0.45254797E+03</pdfrwt>
<totfact> 0.48573376E+04</totfact>
</mgrwt>
</event>
<event>
 7    0  0.4775379E-002  0.4397807E+03  0.7546771E-02  0.1030814E+00
         21   -1    0    0  502  501  0.00000000000E+00  0.00000000000E+00  0.44568153149E+03  0.44568153149E+03  0.00000000000E+00 0. -1.
         21   -1    0    0  501  502 -0.00000000000E+00 -0.00000000000E+00 -0.10848949003E+03  0.10848949003E+03  0.00000000000E+00 0. -1.
      99926    2    1    2    0    0 -0.11102230246E-14  0.71054273576E-14  0.33719204146E+03  0.55417102151E+03  0.43978068200E+03 0.  0.
      99925    2    3    3    0    0 -0.70231323625E+00  0.37346702525E+02  0.10060021608E+03  0.28395172285E+03  0.26289333959E+03 0.  0.
         25    1    4    4    0    0  0.39650269528E+02  0.20805230109E+02  0.55836541073E+02  0.14411880132E+03  0.12509000000E+03 0.  0.
         25    1    4    4    0    0 -0.40352582764E+02  0.16541472416E+02  0.44763675006E+02  0.13983292154E+03  0.12509000000E+03 0.  0.
         25    1    3    3    0    0  0.70231323625E+00 -0.37346702525E+02  0.23659182538E+03  0.27021929866E+03  0.12509000000E+03 0.  0.
<mgrwt>
<rscale>  2 0.43978068E+03</rscale>
<asrwt>0</asrwt>
<pdfrwt beam="1">  1       21 0.65541401E-01 0.43978068E+03</pdfrwt>
<pdfrwt beam="2">  1       21 0.15954337E-01 0.43978068E+03</pdfrwt>
<totfact> 0.69600591E+04</totfact>
</mgrwt>
</event>
<event>
 7    0  0.4775379E-002  0.4521135E+03  0.7546771E-02  0.1027094E+00
         21   -1    0    0  502  501  0.00000000000E+00  0.00000000000E+00  0.21292944671E+03  0.21292944671E+03  0.00000000000E+00 0.  1.
         21   -1    0    0  501  502 -0.00000000000E+00 -0.00000000000E+00 -0.23999334622E+03  0.23999334622E+03  0.00000000000E+00 0.  1.
      99926    2    1    2    0    0  0.00000000000E+00  0.00000000000E+00 -0.27063899505E+02  0.45292279293E+03  0.45211348321E+03 0.  0.
      99925    2    3    3    0    0  0.50172568012E+02  0.57334404598E+02 -0.97312494064E+02  0.29048236179E+03  0.26287974528E+03 0.  0.
         25    1    4    4    0    0  0.32226607997E+02  0.11264072102E+02 -0.85804607063E+02  0.15548431521E+03  0.12509000000E+03 0.  0.
         25    1    3    3    0    0 -0.50172568012E+02 -0.57334404598E+02  0.70248594559E+02  0.16244043114E+03  0.12509000000E+03 0.  0.
         25    1    4    4    0    0  0.17945960015E+02  0.46070332496E+02 -0.11507887001E+02  0.13499804658E+03  0.12509000000E+03 0.  0.
<mgrwt>
<rscale>  2 0.45211348E+03</rscale>
<asrwt>0</asrwt>
<pdfrwt beam="1">  1       21 0.31313154E-01 0.45211348E+03</pdfrwt>
<pdfrwt beam="2">  1       21 0.35293139E-01 0.45211348E+03</pdfrwt>
<totfact> 0.70303530E+04</totfact>
</mgrwt>
</event>
<event>
 7    0  0.4775379E-002  0.4571097E+03  0.7546771E-02  0.1025623E+00
         21   -1    0    0  502  501  0.00000000000E+00  0.00000000000E+00  0.38103287728E+03  0.38103287728E+03  0.00000000000E+00 0.  1.
         21   -1    0    0  501  502 -0.00000000000E+00 -0.00000000000E+00 -0.13709401388E+03  0.13709401388E+03  0.00000000000E+00 0.  1.
      99926    2    1    2    0    0  0.00000000000E+00  0.00000000000E+00  0.24393886340E+03  0.51812689115E+03  0.45710973109E+03 0.  0.
      99925    2    3    3    0    0  0.82845514821E+02  0.51817445750E+02  0.22266614165E+03  0.35797551339E+03  0.26271244838E+03 0.  0.
         25    1    4    4    0    0  0.35522142256E+02  0.11539854267E+02  0.60307783117E+02  0.14380378170E+03  0.12509000000E+03 0.  0.
         25    1    4    4    0    0  0.47323372565E+02  0.40277591483E+02  0.16235835854E+03  0.21417173169E+03  0.12509000000E+03 0.  0.
         25    1    3    3    0    0 -0.82845514821E+02 -0.51817445750E+02  0.21272721747E+02  0.16015137777E+03  0.12509000000E+03 0.  0.
<mgrwt>
<rscale>  2 0.45710973E+03</rscale>
<asrwt>0</asrwt>
<pdfrwt beam="1">  1       21 0.56034246E-01 0.45710973E+03</pdfrwt>
<pdfrwt beam="2">  1       21 0.20160884E-01 0.45710973E+03</pdfrwt>
<totfact> 0.62954599E+04</totfact>
</mgrwt>
</event>
<event>
 7    0  0.4775379E-002  0.4547071E+03  0.7546771E-02  0.1026328E+00
         21   -1    0    0  502  501  0.00000000000E+00  0.00000000000E+00  0.36295721779E+03  0.36295721779E+03  0.00000000000E+00 0.  1.
         21   -1    0    0  501  502 -0.00000000000E+00 -0.00000000000E+00 -0.14241246816E+03  0.14241246816E+03  0.00000000000E+00 0.  1.
      99926    2    1    2    0    0  0.00000000000E+00  0.00000000000E+00  0.22054474963E+03  0.50536968595E+03  0.45470708471E+03 0.  0.
      99925    2    3    3    0    0 -0.75340726570E+02 -0.67495139888E+02  0.83138547246E+02  0.29380458594E+03  0.26301577461E+03 0.  0.
         25    1    3    3    0    0  0.75340726570E+02  0.67495139888E+02  0.13740620239E+03  0.21156510001E+03  0.12509000000E+03 0.  0.
         25    1    4    4    0    0 -0.65079602635E+02 -0.53329581513E+02  0.18400223784E+02  0.15187322107E+03  0.12509000000E+03 0.  0.
         25    1    4    4    0    0 -0.10261123935E+02 -0.14165558376E+02  0.64738323461E+02  0.14193136487E+03  0.12509000000E+03 0.  0.
<mgrwt>
<rscale>  2 0.45470708E+03</rscale>
<asrwt>0</asrwt>
<pdfrwt beam="1">  1       21 0.53376061E-01 0.45470708E+03</pdfrwt>
<pdfrwt beam="2">  1       21 0.20943010E-01 0.45470708E+03</pdfrwt>
<totfact> 0.65046144E+04</totfact>
</mgrwt>
</event>
<event>
 7    0  0.4775379E-002  0.4298182E+03  0.7546771E-02  0.1033917E+00
         21   -1    0    0  502  501  0.00000000000E+00  0.00000000000E+00  0.28474360657E+03  0.28474360657E+03  0.00000000000E+00 0.  1.
         21   -1    0    0  501  502 -0.00000000000E+00 -0.00000000000E+00 -0.16220177279E+03  0.16220177279E+03  0.00000000000E+00 0.  1.
      99926    2    1    2    0    0 -0.35527136788E-14  0.35527136788E-14  0.12254183378E+03  0.44694537935E+03  0.42981818377E+03 0.  0.
      99925    2    3    3    0    0 -0.25015430405E+02 -0.28380672661E+02 -0.28883869364E+01  0.26580597804E+03  0.26308409462E+03 0.  0.
         25    1    4    4    0    0 -0.50172990819E+02  0.13235273400E+01 -0.15881068388E+01  0.13479284445E+03  0.12509000000E+03 0.  0.
         25    1    3    3    0    0  0.25015430405E+02  0.28380672661E+02  0.12543022072E+03  0.18113940131E+03  0.12509000000E+03 0.  0.
         25    1    4    4    0    0  0.25157560414E+02 -0.29704200001E+02 -0.13002800976E+01  0.13101313359E+03  0.12509000000E+03 0.  0.
<mgrwt>
<rscale>  2 0.42981818E+03</rscale>
<asrwt>0</asrwt>
<pdfrwt beam="1">  1       21 0.41874060E-01 0.42981818E+03</pdfrwt>
<pdfrwt beam="2">  1       21 0.23853202E-01 0.42981818E+03</pdfrwt>
<totfact> 0.84927934E+04</totfact>
</mgrwt>
</event>
<event>
 7    0  0.4775379E-002  0.4471389E+03  0.7546771E-02  0.1028579E+00
         21   -1    0    0  502  501  0.00000000000E+00  0.00000000000E+00  0.10575792907E+04  0.10575792907E+04  0.00000000000E+00 0. -1.
         21   -1    0    0  501  502 -0.00000000000E+00 -0.00000000000E+00 -0.47261990508E+02  0.47261990508E+02  0.00000000000E+00 0. -1.
      99926    2    1    2    0    0  0.00000000000E+00  0.00000000000E+00  0.10103173002E+04  0.11048412812E+04  0.44713891533E+03 0.  0.
      99925    2    3    3    0    0 -0.81125771710E+02  0.56317013119E+02  0.55038992280E+03  0.61808292496E+03  0.26333332149E+03 0.  0.
         25    1    4    4    0    0 -0.78883186869E+02  0.49027055513E+02  0.31398242074E+03  0.35051202259E+03  0.12509000000E+03 0.  0.
         25    1    3    3    0    0  0.81125771710E+02 -0.56317013119E+02  0.45992737743E+03  0.48675835629E+03  0.12509000000E+03 0.  0.
         25    1    4    4    0    0 -0.22425848416E+01  0.72899576060E+01  0.23640750205E+03  0.26757090237E+03  0.12509000000E+03 0.  0.
<mgrwt>
<rscale>  2 0.44713892E+03</rscale>
<asrwt>0</asrwt>
<pdfrwt beam="1">  1       21 0.15552635E+00 0.44713892E+03</pdfrwt>
<pdfrwt beam="2">  1       21 0.69502934E-02 0.44713892E+03</pdfrwt>
<totfact> 0.37577321E+04</totfact>
</mgrwt>
</event>
<event>
 7    0  0.4775379E-002  0.4514280E+03  0.7546771E-02  0.1027297E+00
         21   -1    0    0  502  501  0.00000000000E+00  0.00000000000E+00  0.52609932826E+03  0.52609932826E+03  0.00000000000E+00 0.  1.
         21   -1    0    0  501  502 -0.00000000000E+00 -0.00000000000E+00 -0.96838786888E+02  0.96838786888E+02  0.00000000000E+00 0.  1.
      99926    2    1    2    0    0  0.35527136788E-14  0.00000000000E+00  0.42926054137E+03  0.62293811515E+03  0.45142804845E+03 0.  0.
      99925    2    3    3    0    0  0.21453585459E+02 -0.10649943771E+03  0.29285772329E+03  0.40833237561E+03  0.26299676105E+03 0.  0.
         25    1    4    4    0    0 -0.29420212056E+02 -0.46013036286E+02  0.14571171388E+03  0.19965510273E+03  0.12509000000E+03 0.  0.
         25    1    3    3    0    0 -0.21453585459E+02  0.10649943771E+03  0.13640281809E+03  0.21460573954E+03  0.12509000000E+03 0.  0.
         25    1    4    4    0    0  0.50873797515E+02 -0.60486401423E+02  0.14714600941E+03  0.20867727288E+03  0.12509000000E+03 0.  0.
<mgrwt>
<rscale>  2 0.45142805E+03</rscale>
<asrwt>0</asrwt>
<pdfrwt beam="1">  1       21 0.77367547E-01 0.45142805E+03</pdfrwt>
<pdfrwt beam="2">  1       21 0.14240998E-01 0.45142805E+03</pdfrwt>
<totfact> 0.58932685E+04</totfact>
</mgrwt>
</event>
<event>
 7    0  0.4775379E-002  0.4582237E+03  0.7546771E-02  0.1025298E+00
         21   -1    0    0  502  501  0.00000000000E+00  0.00000000000E+00  0.27659126584E+02  0.27659126584E+02  0.00000000000E+00 0.  1.
         21   -1    0    0  501  502 -0.00000000000E+00 -0.00000000000E+00 -0.18978268088E+04  0.18978268088E+04  0.00000000000E+00 0.  1.
      99926    2    1    2    0    0  0.00000000000E+00 -0.35527136788E-14 -0.18701676822E+04  0.19254859353E+04  0.45822366564E+03 0.  0.
      99925    2    3    3    0    0  0.11404345113E+03  0.12459084172E+02 -0.12504236415E+04  0.12829197352E+04  0.26298788222E+03 0.  0.
         25    1    3    3    0    0 -0.11404345113E+03 -0.12459084172E+02 -0.61974404062E+03  0.64256620010E+03  0.12509000000E+03 0.  0.
         25    1    4    4    0    0  0.24478153915E+02  0.29691503441E+02 -0.63253097123E+03  0.64592855879E+03  0.12509000000E+03 0.  0.
         25    1    4    4    0    0  0.89565297219E+02 -0.17232419270E+02 -0.61789267032E+03  0.63699117645E+03  0.12509000000E+03 0.  0.
<mgrwt>
<rscale>  2 0.45822367E+03</rscale>
<asrwt>0</asrwt>
<pdfrwt beam="1">  1       21 0.40675191E-02 0.45822367E+03</pdfrwt>
<pdfrwt beam="2">  1       21 0.27909214E+00 0.45822367E+03</pdfrwt>
<totfact> 0.14596122E+04</totfact>
</mgrwt>
</event>
<event>
 7    0  0.4775379E-002  0.4569909E+03  0.7546771E-02  0.1025658E+00
         21   -1    0    0  502  501  0.00000000000E+00  0.00000000000E+00  0.60318628163E+02  0.60318628163E+02  0.00000000000E+00 0. -1.
         21   -1    0    0  501  502 -0.00000000000E+00 -0.00000000000E+00 -0.86557291203E+03  0.86557291203E+03  0.00000000000E+00 0. -1.
      99926    2    1    2    0    0  0.00000000000E+00  0.00000000000E+00 -0.80525428387E+03  0.92589154020E+03  0.45699089982E+03 0.  0.
      99925    2    3    3    0    0  0.18379605741E+02 -0.95664008700E+02 -0.62967053596E+03  0.68931898664E+03  0.26303282877E+03 0.  0.
         25    1    4    4    0    0  0.47437402954E+01 -0.62025453105E+02 -0.41858117539E+03  0.44127924084E+03  0.12509000000E+03 0.  0.
         25    1    4    4    0    0  0.13635865445E+02 -0.33638555594E+02 -0.21108936057E+03  0.24803974580E+03  0.12509000000E+03 0.  0.
         25    1    3    3    0    0 -0.18379605741E+02  0.95664008700E+02 -0.17558374791E+03  0.23657255356E+03  0.12509000000E+03 0.  0.
<mgrwt>
<rscale>  2 0.45699090E+03</rscale>
<asrwt>0</asrwt>
<pdfrwt beam="1">  1       21 0.88703865E-02 0.45699090E+03</pdfrwt>
<pdfrwt beam="2">  1       21 0.12729013E+00 0.45699090E+03</pdfrwt>
<totfact> 0.41483032E+04</totfact>
</mgrwt>
</event>
<event>
 7    0  0.4775379E-002  0.4602771E+03  0.7546771E-02  0.1024701E+00
         21   -1    0    0  502  501  0.00000000000E+00  0.00000000000E+00  0.84875365398E+03  0.84875365398E+03  0.00000000000E+00 0.  1.
         21   -1    0    0  501  502 -0.00000000000E+00 -0.00000000000E+00 -0.62401791147E+02  0.62401791147E+02  0.00000000000E+00 0.  1.
      99926    2    1    2    0    0  0.00000000000E+00  0.00000000000E+00  0.78635186283E+03  0.91115544513E+03  0.46027708286E+03 0.  0.
      99925    2    3    3    0    0  0.45902435186E+02  0.97939622666E+02  0.58593658960E+03  0.65132281999E+03  0.26305992769E+03 0.  0.
         25    1    4    4    0    0  0.37043494357E+02  0.52906592698E+02  0.38769538611E+03  0.41246399665E+03  0.12509000000E+03 0.  0.
         25    1    3    3    0    0 -0.45902435186E+02 -0.97939622666E+02  0.20041527323E+03  0.25983262514E+03  0.12509000000E+03 0.  0.
         25    1    4    4    0    0  0.88589408287E+01  0.45033029968E+02  0.19824120350E+03  0.23885882333E+03  0.12509000000E+03 0.  0.
<mgrwt>
<rscale>  2 0.46027708E+03</rscale>
<asrwt>0</asrwt>
<pdfrwt beam="1">  1       21 0.12481671E+00 0.46027708E+03</pdfrwt>
<pdfrwt beam="2">  1       21 0.91767345E-02 0.46027708E+03</pdfrwt>
<totfact> 0.41033377E+04</totfact>
</mgrwt>
</event>
<event>
 7    0  0.4775379E-002  0.4591662E+03  0.7546771E-02  0.1025023E+00
         21   -1    0    0  502  501  0.00000000000E+00  0.00000000000E+00  0.57593071670E+03  0.57593071670E+03  0.00000000000E+00 0.  1.
         21   -1    0    0  501  502 -0.00000000000E+00 -0.00000000000E+00 -0.91518650121E+02  0.91518650121E+02  0.00000000000E+00 0.  1.
      99926    2    1    2    0    0  0.00000000000E+00  0.00000000000E+00  0.48441206658E+03  0.66744936682E+03  0.45916620849E+03 0.  0.
      99925    2    3    3    0    0  0.11089323739E+03  0.19729256137E+02  0.34981765331E+03  0.45192740082E+03  0.26301983080E+03 0.  0.
         25    1    4    4    0    0  0.17055939668E+02  0.14871280771E+02  0.18709456431E+03  0.22619448306E+03  0.12509000000E+03 0.  0.
         25    1    3    3    0    0 -0.11089323739E+03 -0.19729256137E+02  0.13459441327E+03  0.21552196600E+03  0.12509000000E+03 0.  0.
         25    1    4    4    0    0  0.93837297722E+02  0.48579753665E+01  0.16272308900E+03  0.22573291776E+03  0.12509000000E+03 0.  0.
<mgrwt>
<rscale>  2 0.45916621E+03</rscale>
<asrwt>0</asrwt>
<pdfrwt beam="1">  1       21 0.84695692E-01 0.45916621E+03</pdfrwt>
<pdfrwt beam="2">  1       21 0.13458625E-01 0.45916621E+03</pdfrwt>
<totfact> 0.52945455E+04</totfact>
</mgrwt>
</event>
<event>
 7    0  0.4775379E-002  0.5146494E+03  0.7546771E-02  0.1010024E+00
         21   -1    0    0  502  501  0.00000000000E+00  0.00000000000E+00  0.65753456673E+03  0.65753456673E+03  0.00000000000E+00 0.  1.
         21   -1    0    0  501  502 -0.00000000000E+00 -0.00000000000E+00 -0.10070343722E+03  0.10070343722E+03  0.00000000000E+00 0.  1.
      99926    2    1    2    0    0  0.00000000000E+00  0.00000000000E+00  0.55683112952E+03  0.75823800395E+03  0.51464936008E+03 0.  0.
      99925    2    3    3    0    0 -0.11064363787E+03  0.11823520488E+03  0.31001593221E+03  0.43763415495E+03  0.26304409721E+03 0.  0.
         25    1    3    3    0    0  0.11064363787E+03 -0.11823520488E+03  0.24681519731E+03  0.32060384900E+03  0.12509000000E+03 0.  0.
         25    1    4    4    0    0 -0.78153608399E+02  0.99688402188E+02  0.16926471939E+03  0.24564978601E+03  0.12509000000E+03 0.  0.
         25    1    4    4    0    0 -0.32490029475E+02  0.18546802688E+02  0.14075121282E+03  0.19198436894E+03  0.12509000000E+03 0.  0.
<mgrwt>
<rscale>  2 0.51464936E+03</rscale>
<asrwt>0</asrwt>
<pdfrwt beam="1">  1       21 0.96696257E-01 0.51464936E+03</pdfrwt>
<pdfrwt beam="2">  1       21 0.14809329E-01 0.51464936E+03</pdfrwt>
<totfact> 0.31994141E+04</totfact>
</mgrwt>
</event>
<event>
 7    0  0.4775379E-002  0.4578231E+03  0.7546771E-02  0.1025414E+00
         21   -1    0    0  502  501  0.00000000000E+00  0.00000000000E+00  0.75638394325E+03  0.75638394325E+03  0.00000000000E+00 0.  1.
         21   -1    0    0  501  502 -0.00000000000E+00 -0.00000000000E+00 -0.69277633461E+02  0.69277633461E+02  0.00000000000E+00 0.  1.
      99926    2    1    2    0    0  0.00000000000E+00  0.00000000000E+00  0.68710630979E+03  0.82566157671E+03  0.45782306441E+03 0.  0.
      99925    2    3    3    0    0 -0.10338119324E+03 -0.37145854402E+02  0.36508130531E+03  0.46314937384E+03  0.26297432839E+03 0.  0.
         25    1    3    3    0    0  0.10338119324E+03  0.37145854402E+02  0.32202500448E+03  0.36251220287E+03  0.12509000000E+03 0.  0.
         25    1    4    4    0    0 -0.42892222006E+02  0.41058999583E+01  0.22825520983E+03  0.26382674246E+03  0.12509000000E+03 0.  0.
         25    1    4    4    0    0 -0.60488971233E+02 -0.41251754361E+02  0.13682609548E+03  0.19932263139E+03  0.12509000000E+03 0.  0.
<mgrwt>
<rscale>  2 0.45782306E+03</rscale>
<asrwt>0</asrwt>
<pdfrwt beam="1">  1       21 0.11123293E+00 0.45782306E+03</pdfrwt>
<pdfrwt beam="2">  1       21 0.10187888E-01 0.45782306E+03</pdfrwt>
<totfact> 0.45531545E+04</totfact>
</mgrwt>
</event>
<event>
 7    0  0.4775379E-002  0.4540411E+03  0.7546771E-02  0.1026524E+00
         21   -1    0    0  502  501  0.00000000000E+00  0.00000000000E+00  0.15178513924E+03  0.15178513924E+03  0.00000000000E+00 0.  1.
         21   -1    0    0  501  502 -0.00000000000E+00 -0.00000000000E+00 -0.33954788874E+03  0.33954788874E+03  0.00000000000E+00 0.  1.
      99926    2    1    2    0    0  0.00000000000E+00  0.17763568394E-14 -0.18776274950E+03  0.49133302797E+03  0.45404107113E+03 0.  0.
      99925    2    3    3    0    0  0.45744449662E+02  0.91628014661E+01 -0.22854004577E+03  0.35173787191E+03  0.26327260854E+03 0.  0.
         25    1    4    4    0    0  0.10894945816E+02  0.39198846884E+02 -0.13777284887E+03  0.19048389808E+03  0.12509000000E+03 0.  0.
         25    1    4    4    0    0  0.34849503846E+02 -0.30036045418E+02 -0.90767196899E+02  0.16125397383E+03  0.12509000000E+03 0.  0.
         25    1    3    3    0    0 -0.45744449662E+02 -0.91628014661E+01  0.40777296270E+02  0.13959515606E+03  0.12509000000E+03 0.  0.
<mgrwt>
<rscale>  2 0.45404107E+03</rscale>
<asrwt>0</asrwt>
<pdfrwt beam="1">  1       21 0.22321344E-01 0.45404107E+03</pdfrwt>
<pdfrwt beam="2">  1       21 0.49933512E-01 0.45404107E+03</pdfrwt>
<totfact> 0.66387879E+04</totfact>
</mgrwt>
</event>
<event>
 7    0  0.4775379E-002  0.4524133E+03  0.7546771E-02  0.1027005E+00
         21   -1    0    0  502  501  0.00000000000E+00  0.00000000000E+00  0.21513434699E+03  0.21513434699E+03  0.00000000000E+00 0.  1.
         21   -1    0    0  501  502 -0.00000000000E+00 -0.00000000000E+00 -0.23784876279E+03  0.23784876279E+03  0.00000000000E+00 0.  1.
      99926    2    1    2    0    0 -0.14210854715E-13  0.00000000000E+00 -0.22714415801E+02  0.45298310978E+03  0.45241325474E+03 0.  0.
      99925    2    3    3    0    0  0.80240406190E+02 -0.31000489638E+02  0.55443654499E+02  0.28223257480E+03  0.26302409455E+03 0.  0.
         25    1    3    3    0    0 -0.80240406190E+02  0.31000489638E+02 -0.78158070300E+02  0.17075053498E+03  0.12509000000E+03 0.  0.
         25    1    4    4    0    0  0.70749894065E+02 -0.26821378284E+02  0.56439655236E+02  0.15670952947E+03  0.12509000000E+03 0.  0.
         25    1    4    4    0    0  0.94905121250E+01 -0.41791113535E+01 -0.99600073720E+00  0.12552304533E+03  0.12509000000E+03 0.  0.
<mgrwt>
<rscale>  2 0.45241325E+03</rscale>
<asrwt>0</asrwt>
<pdfrwt beam="1">  1       21 0.31637404E-01 0.45241325E+03</pdfrwt>
<pdfrwt beam="2">  1       21 0.34977759E-01 0.45241325E+03</pdfrwt>
<totfact> 0.70130125E+04</totfact>
</mgrwt>
</event>
<event>
 7    0  0.4775379E-002  0.4559149E+03  0.7546771E-02  0.1025973E+00
         21   -1    0    0  502  501  0.00000000000E+00  0.00000000000E+00  0.28452516326E+02  0.28452516326E+02  0.00000000000E+00 0.  1.
         21   -1    0    0  501  502 -0.00000000000E+00 -0.00000000000E+00 -0.18263621300E+04  0.18263621300E+04  0.00000000000E+00 0.  1.
      99926    2    1    2    0    0  0.00000000000E+00  0.00000000000E+00 -0.17979096137E+04  0.18548146463E+04  0.45591489698E+03 0.  0.
      99925    2    3    3    0    0 -0.56261752142E+02 -0.99022402232E+02 -0.11066182335E+04  0.11431250361E+04  0.26298310317E+03 0.  0.
         25    1    4    4    0    0 -0.33725809008E+02 -0.68765423151E+02 -0.72708890148E+03  0.74173572947E+03  0.12509000000E+03 0.  0.
         25    1    3    3    0    0  0.56261752142E+02  0.99022402232E+02 -0.69129138021E+03  0.71168961026E+03  0.12509000000E+03 0.  0.
         25    1    4    4    0    0 -0.22535943134E+02 -0.30256979081E+02 -0.37952933200E+03  0.40138930662E+03  0.12509000000E+03 0.  0.
<mgrwt>
<rscale>  2 0.45591490E+03</rscale>
<asrwt>0</asrwt>
<pdfrwt beam="1">  1       21 0.41841942E-02 0.45591490E+03</pdfrwt>
<pdfrwt beam="2">  1       21 0.26858263E+00 0.45591490E+03</pdfrwt>
<totfact> 0.16113848E+04</totfact>
</mgrwt>
</event>
<event>
 7    0  0.4775379E-002  0.4548953E+03  0.7546771E-02  0.1026272E+00
         21   -1    0    0  502  501  0.00000000000E+00  0.00000000000E+00  0.61807656557E+02  0.61807656557E+02  0.00000000000E+00 0. -1.
         21   -1    0    0  501  502 -0.00000000000E+00 -0.00000000000E+00 -0.83699064359E+03  0.83699064359E+03  0.00000000000E+00 0. -1.
      99926    2    1    2    0    0  0.00000000000E+00  0.00000000000E+00 -0.77518298704E+03  0.89879830015E+03  0.45489528571E+03 0.  0.
      99925    2    3    3    0    0 -0.87357001272E+02  0.71801054027E+02 -0.48183402545E+03  0.56043790295E+03  0.26294481921E+03 0.  0.
         25    1    3    3    0    0  0.87357001272E+02 -0.71801054027E+02 -0.29334896159E+03  0.33836039720E+03  0.12509000000E+03 0.  0.
         25    1    4    4    0    0 -0.55755317151E+02  0.96321997719E+01 -0.29175650812E+03  0.32244503841E+03  0.12509000000E+03 0.  0.
         25    1    4    4    0    0 -0.31601684121E+02  0.62168854255E+02 -0.19007751733E+03  0.23799286454E+03  0.12509000000E+03 0.  0.
<mgrwt>
<rscale>  2 0.45489529E+03</rscale>
<asrwt>0</asrwt>
<pdfrwt beam="1">  1       21 0.90893618E-02 0.45489529E+03</pdfrwt>
<pdfrwt beam="2">  1       21 0.12308685E+00 0.45489529E+03</pdfrwt>
<totfact> 0.43321191E+04</totfact>
</mgrwt>
</event>
<event>
 7    0  0.4775379E-002  0.4562354E+03  0.7546771E-02  0.1025879E+00
         21   -1    0    0  502  501  0.00000000000E+00  0.00000000000E+00  0.20904491023E+03  0.20904491023E+03  0.00000000000E+00 0.  1.
         21   -1    0    0  501  502 -0.00000000000E+00 -0.00000000000E+00 -0.24893069817E+03  0.24893069817E+03  0.00000000000E+00 0.  1.
      99926    2    1    2    0    0 -0.17763568394E-14  0.00000000000E+00 -0.39885787942E+02  0.45797560840E+03  0.45623544559E+03 0.  0.
      99925    2    3    3    0    0 -0.12657191647E+02  0.10520809256E+03 -0.68144879449E+02  0.29161746585E+03  0.26299824059E+03 0.  0.
         25    1    4    4    0    0  0.27277521102E+02  0.30649971415E+02 -0.43308196575E+02  0.13858784902E+03  0.12509000000E+03 0.  0.
         25    1    3    3    0    0  0.12657191647E+02 -0.10520809256E+03  0.28259091507E+02  0.16635814255E+03  0.12509000000E+03 0.  0.
         25    1    4    4    0    0 -0.39934712749E+02  0.74558121148E+02 -0.24836682874E+02  0.15302961683E+03  0.12509000000E+03 0.  0.
<mgrwt>
<rscale>  2 0.45623545E+03</rscale>
<asrwt>0</asrwt>
<pdfrwt beam="1">  1       21 0.30741899E-01 0.45623545E+03</pdfrwt>
<pdfrwt beam="2">  1       21 0.36607456E-01 0.45623545E+03</pdfrwt>
<totfact> 0.67658981E+04</totfact>
</mgrwt>
</event>
<event>
 7    0  0.4775379E-002  0.4520332E+03  0.7546771E-02  0.1027117E+00
         21   -1    0    0  502  501  0.00000000000E+00  0.00000000000E+00  0.93228385145E+02  0.93228385145E+02  0.00000000000E+00 0. -1.
         21   -1    0    0  501  502 -0.00000000000E+00 -0.00000000000E+00 -0.54793945742E+03  0.54793945742E+03  0.00000000000E+00 0. -1.
      99926    2    1    2    0    0  0.00000000000E+00  0.00000000000E+00 -0.45471107228E+03  0.64116784257E+03  0.45203323229E+03 0.  0.
      99925    2    3    3    0    0  0.54999176124E+02  0.71883769423E+02 -0.37640642083E+03  0.46804559611E+03  0.26304505453E+03 0.  0.
         25    1    3    3    0    0 -0.54999176124E+02 -0.71883769423E+02 -0.78304651445E+02  0.17312224646E+03  0.12509000000E+03 0.  0.
         25    1    4    4    0    0  0.47098674383E+02  0.63640335153E+02 -0.16120116239E+03  0.21886457055E+03  0.12509000000E+03 0.  0.
         25    1    4    4    0    0  0.79005017410E+01  0.82434342702E+01 -0.21520525845E+03  0.24918102556E+03  0.12509000000E+03 0.  0.
<mgrwt>
<rscale>  2 0.45203323E+03</rscale>
<asrwt>0</asrwt>
<pdfrwt beam="1">  1       21 0.13710057E-01 0.45203323E+03</pdfrwt>
<pdfrwt beam="2">  1       21 0.80579328E-01 0.45203323E+03</pdfrwt>
<totfact> 0.57548678E+04</totfact>
</mgrwt>
</event>
<event>
 7    0  0.4775379E-002  0.4516224E+03  0.7546771E-02  0.1027239E+00
         21   -1    0    0  502  501  0.00000000000E+00  0.00000000000E+00  0.76808663291E+03  0.76808663291E+03  0.00000000000E+00 0.  1.
         21   -1    0    0  501  502 -0.00000000000E+00 -0.00000000000E+00 -0.66386643985E+02  0.66386643985E+02  0.00000000000E+00 0.  1.
      99926    2    1    2    0    0  0.00000000000E+00  0.00000000000E+00  0.70169998892E+03  0.83447327689E+03  0.45162238141E+03 0.  0.
      99925    2    3    3    0    0 -0.95328387713E+02  0.27279466185E+02  0.53065294748E+03  0.60051544038E+03  0.26304861278E+03 0.  0.
         25    1    4    4    0    0 -0.24929921974E+02 -0.52209734524E+01  0.31031154383E+03  0.33554362147E+03  0.12509000000E+03 0.  0.
         25    1    3    3    0    0  0.95328387713E+02 -0.27279466185E+02  0.17104704144E+03  0.23395783651E+03  0.12509000000E+03 0.  0.
         25    1    4    4    0    0 -0.70398465739E+02  0.32500439638E+02  0.22034140365E+03  0.26497181891E+03  0.12509000000E+03 0.  0.
<mgrwt>
<rscale>  2 0.45162238E+03</rscale>
<asrwt>0</asrwt>
<pdfrwt beam="1">  1       21 0.11295391E+00 0.45162238E+03</pdfrwt>
<pdfrwt beam="2">  1       21 0.97627422E-02 0.45162238E+03</pdfrwt>
<totfact> 0.47385416E+04</totfact>
</mgrwt>
</event>
<event>
 7    0  0.4775379E-002  0.4569080E+03  0.7546771E-02  0.1025682E+00
         21   -1    0    0  502  501  0.00000000000E+00  0.00000000000E+00  0.15475861973E+04  0.15475861973E+04  0.00000000000E+00 0. -1.
         21   -1    0    0  501  502 -0.00000000000E+00 -0.00000000000E+00 -0.33724286938E+02  0.33724286938E+02  0.00000000000E+00 0. -1.
      99926    2    1    2    0    0  0.14210854715E-13  0.00000000000E+00  0.15138619103E+04  0.15813104842E+04  0.45690804755E+03 0.  0.
      99925    2    3    3    0    0  0.76196114517E+02  0.79857469931E+02  0.10612998126E+04  0.10989796603E+04  0.26308922054E+03 0.  0.
         25    1    4    4    0    0  0.42765923222E+01  0.57720129519E+02  0.45942577595E+03  0.47965555798E+03  0.12509000000E+03 0.  0.
         25    1    3    3    0    0 -0.76196114517E+02 -0.79857469931E+02  0.45256209768E+03  0.48233082395E+03  0.12509000000E+03 0.  0.
         25    1    4    4    0    0  0.71919522195E+02  0.22137340413E+02  0.60187403670E+03  0.61932410228E+03  0.12509000000E+03 0.  0.
<mgrwt>
<rscale>  2 0.45690805E+03</rscale>
<asrwt>0</asrwt>
<pdfrwt beam="1">  1       21 0.22758616E+00 0.45690805E+03</pdfrwt>
<pdfrwt beam="2">  1       21 0.49594550E-02 0.45690805E+03</pdfrwt>
<totfact> 0.21533945E+04</totfact>
</mgrwt>
</event>
<event>
 7    0  0.4775379E-002  0.4484009E+03  0.7546771E-02  0.1028200E+00
         21   -1    0    0  502  501  0.00000000000E+00  0.00000000000E+00  0.62537003277E+03  0.62537003277E+03  0.00000000000E+00 0.  1.
         21   -1    0    0  501  502 -0.00000000000E+00 -0.00000000000E+00 -0.80377776921E+02  0.80377776921E+02  0.00000000000E+00 0.  1.
      99926    2    1    2    0    0  0.00000000000E+00 -0.17763568394E-14  0.54499225585E+03  0.70574780969E+03  0.44840094999E+03 0.  0.
      99925    2    3    3    0    0 -0.81887436576E+02 -0.13006646048E+02  0.45120305589E+03  0.52877705719E+03  0.26295675207E+03 0.  0.
         25    1    4    4    0    0 -0.15053873468E+02 -0.29282013759E+02  0.17216632475E+03  0.21534346267E+03  0.12509000000E+03 0.  0.
         25    1    3    3    0    0  0.81887436576E+02  0.13006646048E+02  0.93789199961E+02  0.17697075250E+03  0.12509000000E+03 0.  0.
         25    1    4    4    0    0 -0.66833563108E+02  0.16275367711E+02  0.27903673114E+03  0.31343359453E+03  0.12509000000E+03 0.  0.
<mgrwt>
<rscale>  2 0.44840095E+03</rscale>
<asrwt>0</asrwt>
<pdfrwt beam="1">  1       21 0.91966179E-01 0.44840095E+03</pdfrwt>
<pdfrwt beam="2">  1       21 0.11820262E-01 0.44840095E+03</pdfrwt>
<totfact> 0.55413754E+04</totfact>
</mgrwt>
</event>
<event>
 7    0  0.4775379E-002  0.4547073E+03  0.7546771E-02  0.1026328E+00
         21   -1    0    0  502  501  0.00000000000E+00  0.00000000000E+00  0.43549998996E+03  0.43549998996E+03  0.00000000000E+00 0. -1.
         21   -1    0    0  501  502 -0.00000000000E+00 -0.00000000000E+00 -0.11869043354E+03  0.11869043354E+03  0.00000000000E+00 0. -1.
      99926    2    1    2    0    0  0.35527136788E-14  0.72164496601E-15  0.31680955642E+03  0.55419042350E+03  0.45470730197E+03 0.  0.
      99925    2    3    3    0    0  0.19522225703E+02  0.38460519112E+00  0.63731462088E+02  0.27121110421E+03  0.26289256089E+03 0.  0.
         25    1    4    4    0    0  0.38585866495E+02 -0.18292168549E+02  0.10249512103E+02  0.13257463227E+03  0.12509000000E+03 0.  0.
         25    1    3    3    0    0 -0.19522225703E+02 -0.38460519112E+00  0.25307809433E+03  0.28297931929E+03  0.12509000000E+03 0.  0.
         25    1    4    4    0    0 -0.19063640792E+02  0.18676773740E+02  0.53481949986E+02  0.13863647194E+03  0.12509000000E+03 0.  0.
<mgrwt>
<rscale>  2 0.45470730E+03</rscale>
<asrwt>0</asrwt>
<pdfrwt beam="1">  1       21 0.64044115E-01 0.45470730E+03</pdfrwt>
<pdfrwt beam="2">  1       21 0.17454476E-01 0.45470730E+03</pdfrwt>
<totfact> 0.61733274E+04</totfact>
</mgrwt>
</event>
<event>
 7    0  0.4775379E-002  0.4178008E+03  0.7546771E-02  0.1037784E+00
         21   -1    0    0  502  501  0.00000000000E+00  0.00000000000E+00  0.56149871484E+03  0.56149871484E+03  0.00000000000E+00 0. -1.
         21   -1    0    0  501  502 -0.00000000000E+00 -0.00000000000E+00 -0.77719455550E+02  0.77719455550E+02  0.00000000000E+00 0. -1.
      99926    2    1    2    0    0  0.44408920985E-15  0.00000000000E+00  0.48377925929E+03  0.63921817039E+03  0.41780078702E+03 0.  0.
      99925    2    3    3    0    0  0.19904854866E+01 -0.71574945269E+02  0.33688824155E+03  0.43342357858E+03  0.26312616053E+03 0.  0.
         25    1    4    4    0    0 -0.58596298405E+01 -0.77137183575E+02  0.17446251571E+03  0.22818667323E+03  0.12509000000E+03 0.  0.
         25    1    3    3    0    0 -0.19904854866E+01  0.71574945269E+02  0.14689101774E+03  0.20579459180E+03  0.12509000000E+03 0.  0.
         25    1    4    4    0    0  0.78501153271E+01  0.55622383056E+01  0.16242572584E+03  0.20523690535E+03  0.12509000000E+03 0.  0.
<mgrwt>
<rscale>  2 0.41780079E+03</rscale>
<asrwt>0</asrwt>
<pdfrwt beam="1">  1       21 0.82573338E-01 0.41780079E+03</pdfrwt>
<pdfrwt beam="2">  1       21 0.11429332E-01 0.41780079E+03</pdfrwt>
<totfact> 0.76389362E+04</totfact>
</mgrwt>
</event>
<event>
 7    0  0.4775379E-002  0.4573433E+03  0.7546771E-02  0.1025555E+00
         21   -1    0    0  502  501  0.00000000000E+00  0.00000000000E+00  0.28310436671E+02  0.28310436671E+02  0.00000000000E+00 0.  1.
         21   -1    0    0  501  502 -0.00000000000E+00 -0.00000000000E+00 -0.18470478290E+04  0.18470478290E+04  0.00000000000E+00 0.  1.
      99926    2    1    2    0    0  0.00000000000E+00  0.00000000000E+00 -0.18187373923E+04  0.18753582656E+04  0.45734333095E+03 0.  0.
      99925    2    3    3    0    0 -0.10104492429E+03  0.48619578150E+02 -0.10320016144E+04  0.10708866177E+04  0.26305299015E+03 0.  0.
         25    1    4    4    0    0 -0.78560144151E+02  0.31374800671E+02 -0.44132946769E+03  0.46644965593E+03  0.12509000000E+03 0.  0.
         25    1    3    3    0    0  0.10104492429E+03 -0.48619578150E+02 -0.78673577786E+03  0.80447164796E+03  0.12509000000E+03 0.  0.
         25    1    4    4    0    0 -0.22484780138E+02  0.17244777480E+02 -0.59067214675E+03  0.60443696176E+03  0.12509000000E+03 0.  0.
<mgrwt>
<rscale>  2 0.45734333E+03</rscale>
<asrwt>0</asrwt>
<pdfrwt beam="1">  1       21 0.41632998E-02 0.45734333E+03</pdfrwt>
<pdfrwt beam="2">  1       21 0.27162466E+00 0.45734333E+03</pdfrwt>
<totfact> 0.15568392E+04</totfact>
</mgrwt>
</event>
<event>
 7    0  0.4775379E-002  0.4576635E+03  0.7546771E-02  0.1025461E+00
         21   -1    0    0  502  501  0.00000000000E+00  0.00000000000E+00  0.56071683382E+02  0.56071683382E+02  0.00000000000E+00 0. -1.
         21   -1    0    0  501  502 -0.00000000000E+00 -0.00000000000E+00 -0.93387550545E+03  0.93387550545E+03  0.00000000000E+00 0. -1.
      99926    2    1    2    0    0  0.00000000000E+00  0.00000000000E+00 -0.87780382207E+03  0.98994718884E+03  0.45766350809E+03 0.  0.
      99925    2    3    3    0    0 -0.26512709249E+02  0.72216161225E+02 -0.73785831620E+03  0.78709169740E+03  0.26298355011E+03 0.  0.
         25    1    3    3    0    0  0.26512709249E+02 -0.72216161225E+02 -0.13994550587E+03  0.20285549144E+03  0.12509000000E+03 0.  0.
         25    1    4    4    0    0 -0.12578736109E+02 -0.19549150765E+01 -0.39109973436E+03  0.41081450390E+03  0.12509000000E+03 0.  0.
         25    1    4    4    0    0 -0.13933973140E+02  0.74171076302E+02 -0.34675858184E+03  0.37627719350E+03  0.12509000000E+03 0.  0.
<mgrwt>
<rscale>  2 0.45766351E+03</rscale>
<asrwt>0</asrwt>
<pdfrwt beam="1">  1       21 0.82458368E-02 0.45766351E+03</pdfrwt>
<pdfrwt beam="2">  1       21 0.13733462E+00 0.45766351E+03</pdfrwt>
<totfact> 0.38747617E+04</totfact>
</mgrwt>
</event>
<event>
 7    0  0.4775379E-002  0.4411926E+03  0.7546771E-02  0.1030382E+00
         21   -1    0    0  502  501  0.00000000000E+00  0.00000000000E+00  0.24060348542E+03  0.24060348542E+03  0.00000000000E+00 0. -1.
         21   -1    0    0  501  502 -0.00000000000E+00 -0.00000000000E+00 -0.20225275144E+03  0.20225275144E+03  0.00000000000E+00 0. -1.
      99926    2    1    2    0    0  0.00000000000E+00  0.00000000000E+00  0.38350733980E+02  0.44285623686E+03  0.44119255176E+03 0.  0.
      99925    2    3    3    0    0  0.25047092130E+02  0.63141338912E+01 -0.72241693794E+02  0.27390234288E+03  0.26293802692E+03 0.  0.
         25    1    4    4    0    0  0.25964348831E+02  0.34977644000E+02 -0.58608645942E+02  0.14484496701E+03  0.12509000000E+03 0.  0.
         25    1    3    3    0    0 -0.25047092130E+02 -0.63141338912E+01  0.11059242777E+03  0.16895389398E+03  0.12509000000E+03 0.  0.
         25    1    4    4    0    0 -0.91725670073E+00 -0.28663510109E+02 -0.13633047852E+02  0.12905737587E+03  0.12509000000E+03 0.  0.
<mgrwt>
<rscale>  2 0.44119255E+03</rscale>
<asrwt>0</asrwt>
<pdfrwt beam="1">  1       21 0.35382866E-01 0.44119255E+03</pdfrwt>
<pdfrwt beam="2">  1       21 0.29743052E-01 0.44119255E+03</pdfrwt>
<totfact> 0.77653263E+04</totfact>
</mgrwt>
</event>
<event>
 7    0  0.4775379E-002  0.4599865E+03  0.7546771E-02  0.1024785E+00
         21   -1    0    0  502  501  0.00000000000E+00  0.00000000000E+00  0.36323210471E+03  0.36323210471E+03  0.00000000000E+00 0. -1.
         21   -1    0    0  501  502 -0.00000000000E+00 -0.00000000000E+00 -0.14562836118E+03  0.14562836118E+03  0.00000000000E+00 0. -1.
      99926    2    1    2    0    0  0.00000000000E+00  0.88817841970E-15  0.21760374353E+03  0.50886046589E+03  0.45998650475E+03 0.  0.
      99925    2    3    3    0    0 -0.85780463833E+02 -0.47184355622E+01  0.47129143336E+02  0.28062889704E+03  0.26296553024E+03 0.  0.
         25    1    4    4    0    0 -0.53373503745E+02 -0.20632467594E+02 -0.11101487589E+02  0.13800427801E+03  0.12509000000E+03 0.  0.
         25    1    4    4    0    0 -0.32406960088E+02  0.15914032032E+02  0.58230630924E+02  0.14262461904E+03  0.12509000000E+03 0.  0.
         25    1    3    3    0    0  0.85780463833E+02  0.47184355622E+01  0.17047460019E+03  0.22823156885E+03  0.12509000000E+03 0.  0.
<mgrwt>
<rscale>  2 0.45998650E+03</rscale>
<asrwt>0</asrwt>
<pdfrwt beam="1">  1       21 0.53416486E-01 0.45998650E+03</pdfrwt>
<pdfrwt beam="2">  1       21 0.21415936E-01 0.45998650E+03</pdfrwt>
<totfact> 0.62155865E+04</totfact>
</mgrwt>
</event>
<event>
 7    0  0.4775379E-002  0.4544130E+03  0.7546771E-02  0.1026414E+00
         21   -1    0    0  502  501  0.00000000000E+00  0.00000000000E+00  0.77983325924E+02  0.77983325924E+02  0.00000000000E+00 0. -1.
         21   -1    0    0  501  502 -0.00000000000E+00 -0.00000000000E+00 -0.66197232577E+03  0.66197232577E+03  0.00000000000E+00 0. -1.
      99926    2    1    2    0    0  0.00000000000E+00  0.00000000000E+00 -0.58398899984E+03  0.73995565169E+03  0.45441304397E+03 0.  0.
      99925    2    3    3    0    0  0.29762663635E+02 -0.15619769800E+02 -0.19263523338E+03  0.32772383344E+03  0.26299198564E+03 0.  0.
         25    1    4    4    0    0  0.14097080463E+02 -0.16020846933E+02 -0.14567318902E+03  0.19319311921E+03  0.12509000000E+03 0.  0.
         25    1    3    3    0    0 -0.29762663635E+02  0.15619769800E+02 -0.39135376646E+03  0.41223181825E+03  0.12509000000E+03 0.  0.
         25    1    4    4    0    0  0.15665583172E+02  0.40107713263E+00 -0.46962044367E+02  0.13453071423E+03  0.12509000000E+03 0.  0.
<mgrwt>
<rscale>  2 0.45441304E+03</rscale>
<asrwt>0</asrwt>
<pdfrwt beam="1">  1       21 0.11468136E-01 0.45441304E+03</pdfrwt>
<pdfrwt beam="2">  1       21 0.97348873E-01 0.45441304E+03</pdfrwt>
<totfact> 0.51021758E+04</totfact>
</mgrwt>
</event>
<event>
 7    0  0.4775379E-002  0.4381252E+03  0.7546771E-02  0.1031324E+00
         21   -1    0    0  502  501  0.00000000000E+00  0.00000000000E+00  0.38769143271E+03  0.38769143271E+03  0.00000000000E+00 0.  1.
         21   -1    0    0  501  502 -0.00000000000E+00 -0.00000000000E+00 -0.12377994471E+03  0.12377994471E+03  0.00000000000E+00 0.  1.
      99926    2    1    2    0    0  0.00000000000E+00 -0.53290705182E-14  0.26391148800E+03  0.51147137742E+03  0.43812520633E+03 0.  0.
      99925    2    3    3    0    0  0.14606773949E+02 -0.93905751868E+01  0.58051649956E+02  0.26996087710E+03  0.26307288031E+03 0.  0.
         25    1    4    4    0    0 -0.18272935177E+02 -0.32363690915E+02  0.44621871745E+02  0.13791275571E+03  0.12509000000E+03 0.  0.
         25    1    3    3    0    0 -0.14606773949E+02  0.93905751868E+01  0.20585983804E+03  0.24151050033E+03  0.12509000000E+03 0.  0.
         25    1    4    4    0    0  0.32879709126E+02  0.22973115729E+02  0.13429778211E+02  0.13204812139E+03  0.12509000000E+03 0.  0.
<mgrwt>
<rscale>  2 0.43812521E+03</rscale>
<asrwt>0</asrwt>
<pdfrwt beam="1">  1       21 0.57013446E-01 0.43812521E+03</pdfrwt>
<pdfrwt beam="2">  1       21 0.18202933E-01 0.43812521E+03</pdfrwt>
<totfact> 0.73874696E+04</totfact>
</mgrwt>
</event>
<event>
 7    0  0.4775379E-002  0.4587677E+03  0.7546771E-02  0.1025139E+00
         21   -1    0    0  502  501  0.00000000000E+00  0.00000000000E+00  0.25624605019E+04  0.25624605019E+04  0.00000000000E+00 0.  1.
         21   -1    0    0  501  502 -0.00000000000E+00 -0.00000000000E+00 -0.20533762844E+02  0.20533762844E+02  0.00000000000E+00 0.  1.
      99926    2    1    2    0    0  0.00000000000E+00  0.71054273576E-14  0.25419267391E+04  0.25829942647E+04  0.45876772442E+03 0.  0.
      99925    2    3    3    0    0 -0.36240168807E+01  0.62754259419E+02  0.21475091783E+04  0.21644683385E+04  0.26301385340E+03 0.  0.
         25    1    4    4    0    0  0.28343813479E+02  0.28061299294E+02  0.84853636970E+03  0.85863396572E+03  0.12509000000E+03 0.  0.
         25    1    4    4    0    0 -0.31967830359E+02  0.34692960125E+02  0.12989728086E+04  0.13058343728E+04  0.12509000000E+03 0.  0.
         25    1    3    3    0    0  0.36240168807E+01 -0.62754259419E+02  0.39441756079E+03  0.41852592624E+03  0.12509000000E+03 0.  0.
<mgrwt>
<rscale>  2 0.45876772E+03</rscale>
<asrwt>0</asrwt>
<pdfrwt beam="1">  1       21 0.37683221E+00 0.45876772E+03</pdfrwt>
<pdfrwt beam="2">  1       21 0.30196728E-02 0.45876772E+03</pdfrwt>
<totfact> 0.61376865E+03</totfact>
</mgrwt>
</event>
<event>
 7    0  0.4775379E-002  0.4577494E+03  0.7546771E-02  0.1025436E+00
         21   -1    0    0  502  501  0.00000000000E+00  0.00000000000E+00  0.26197016866E+03  0.26197016866E+03  0.00000000000E+00 0.  1.
         21   -1    0    0  501  502 -0.00000000000E+00 -0.00000000000E+00 -0.19996032086E+03  0.19996032086E+03  0.00000000000E+00 0.  1.
      99926    2    1    2    0    0  0.00000000000E+00  0.14210854715E-13  0.62009847802E+02  0.46193048952E+03  0.45774944666E+03 0.  0.
      99925    2    3    3    0    0  0.91086168312E+02 -0.69663586477E+02  0.22997933602E+02  0.28780655983E+03  0.26297149198E+03 0.  0.
         25    1    4    4    0    0  0.64477968884E+02 -0.35445726010E+02  0.48441799374E+02  0.15299648359E+03  0.12509000000E+03 0.  0.
         25    1    4    4    0    0  0.26608199428E+02 -0.34217860467E+02 -0.25443865772E+02  0.13481007624E+03  0.12509000000E+03 0.  0.
         25    1    3    3    0    0 -0.91086168312E+02  0.69663586477E+02  0.39011914200E+02  0.17412392968E+03  0.12509000000E+03 0.  0.
<mgrwt>
<rscale>  2 0.45774945E+03</rscale>
<asrwt>0</asrwt>
<pdfrwt beam="1">  1       21 0.38525025E-01 0.45774945E+03</pdfrwt>
<pdfrwt beam="2">  1       21 0.29405930E-01 0.45774945E+03</pdfrwt>
<totfact> 0.66568490E+04</totfact>
</mgrwt>
</event>
<event>
 7    0  0.4953319E-002  0.4145966E+03  0.7546771E-02  0.1038839E+00
         21   -1    0    0  502  501  0.00000000000E+00  0.00000000000E+00  0.37732325511E+02  0.37732325511E+02  0.00000000000E+00 0.  1.
         21   -1    0    0  501  502 -0.00000000000E+00 -0.00000000000E+00 -0.11388796322E+04  0.11388796322E+04  0.00000000000E+00 0.  1.
      99926    2    1    2    0    0  0.00000000000E+00  0.13322676296E-14 -0.11011473067E+04  0.11766119577E+04  0.41459656052E+03 0.  0.
      99925    2    3    3    0    0  0.46570234336E+02 -0.24875833570E+01 -0.86586348268E+03  0.90609216040E+03  0.26288487537E+03 0.  0.
         25    1    4    4    0    0  0.23046773180E+02 -0.19143589805E+02 -0.55613112416E+03  0.57081254904E+03  0.12509000000E+03 0.  0.
         25    1    4    4    0    0  0.23523461156E+02  0.16656006448E+02 -0.30973235853E+03  0.33527961136E+03  0.12509000000E+03 0.  0.
         25    1    3    3    0    0 -0.46570234336E+02  0.24875833570E+01 -0.23528382398E+03  0.27051979728E+03  0.12509000000E+03 0.  0.
<mgrwt>
<rscale>  2 0.41459656E+03</rscale>
<asrwt>0</asrwt>
<pdfrwt beam="1">  1       21 0.55488718E-02 0.41459656E+03</pdfrwt>
<pdfrwt beam="2">  1       21 0.16748229E+00 0.41459656E+03</pdfrwt>
<totfact> 0.45676105E+04</totfact>
</mgrwt>
</event>
<event>
 7    0  0.4775379E-002  0.4596005E+03  0.7546771E-02  0.1024897E+00
         21   -1    0    0  502  501  0.00000000000E+00  0.00000000000E+00  0.10257990498E+03  0.10257990498E+03  0.00000000000E+00 0.  1.
         21   -1    0    0  501  502 -0.00000000000E+00 -0.00000000000E+00 -0.51480021080E+03  0.51480021080E+03  0.00000000000E+00 0.  1.
      99926    2    1    2    0    0  0.00000000000E+00  0.00000000000E+00 -0.41222030582E+03  0.61738011578E+03  0.45960050787E+03 0.  0.
      99925    2    3    3    0    0  0.77303496152E+02 -0.82898581137E+02 -0.29962987614E+03  0.41447097792E+03  0.26298312415E+03 0.  0.
         25    1    4    4    0    0 -0.19228228678E+01 -0.45829996893E+02 -0.12750119483E+03  0.18441298394E+03  0.12509000000E+03 0.  0.
         25    1    3    3    0    0 -0.77303496152E+02  0.82898581137E+02 -0.11259042968E+03  0.20290913786E+03  0.12509000000E+03 0.  0.
         25    1    4    4    0    0  0.79226319020E+02 -0.37068584244E+02 -0.17212868131E+03  0.23005799398E+03  0.12509000000E+03 0.  0.
<mgrwt>
<rscale>  2 0.45960051E+03</rscale>
<asrwt>0</asrwt>
<pdfrwt beam="1">  1       21 0.15085280E-01 0.45960051E+03</pdfrwt>
<pdfrwt beam="2">  1       21 0.75705914E-01 0.45960051E+03</pdfrwt>
<totfact> 0.55574218E+04</totfact>
</mgrwt>
</event>
<event>
 7    0  0.4775379E-002  0.3920114E+03  0.7546771E-02  0.1046581E+00
         21   -1    0    0  502  501  0.00000000000E+00  0.00000000000E+00  0.30555927185E+02  0.30555927185E+02  0.00000000000E+00 0. -1.
         21   -1    0    0  501  502 -0.00000000000E+00 -0.00000000000E+00 -0.12573085468E+04  0.12573085468E+04  0.00000000000E+00 0. -1.
      99926    2    1    2    0    0  0.33306690739E-15  0.00000000000E+00 -0.12267526196E+04  0.12878644740E+04  0.39201136924E+03 0.  0.
      99925    2    3    3    0    0 -0.30235293265E+00  0.25908606308E+02 -0.83272539325E+03  0.87364676490E+03  0.26297479340E+03 0.  0.
         25    1    4    4    0    0  0.25345526968E+02  0.25123391269E+01 -0.31477752814E+03  0.33967794734E+03  0.12509000000E+03 0.  0.
         25    1    4    4    0    0 -0.25647879900E+02  0.23396267181E+02 -0.51794786511E+03  0.53396881757E+03  0.12509000000E+03 0.  0.
         25    1    3    3    0    0  0.30235293265E+00 -0.25908606308E+02 -0.39402722634E+03  0.41421770906E+03  0.12509000000E+03 0.  0.
<mgrwt>
<rscale>  2 0.39201137E+03</rscale>
<asrwt>0</asrwt>
<pdfrwt beam="1">  1       21 0.44935196E-02 0.39201137E+03</pdfrwt>
<pdfrwt beam="2">  1       21 0.18489828E+00 0.39201137E+03</pdfrwt>
<totfact> 0.49734183E+04</totfact>
</mgrwt>
</event>
<event>
 7    0  0.4775379E-002  0.4584592E+03  0.7546771E-02  0.1025229E+00
         21   -1    0    0  502  501  0.00000000000E+00  0.00000000000E+00  0.19960988925E+03  0.19960988925E+03  0.00000000000E+00 0. -1.
         21   -1    0    0  501  502 -0.00000000000E+00 -0.00000000000E+00 -0.26324454936E+03  0.26324454936E+03  0.00000000000E+00 0. -1.
      99926    2    1    2    0    0  0.00000000000E+00 -0.71054273576E-14 -0.63634660119E+02  0.46285443861E+03  0.45845922542E+03 0.  0.
      99925    2    3    3    0    0 -0.10637470758E+03  0.34468999529E+02 -0.75699941855E+01  0.28595207795E+03  0.26307336567E+03 0.  0.
         25    1    3    3    0    0  0.10637470758E+03 -0.34468999529E+02 -0.56064665933E+02  0.17690236066E+03  0.12509000000E+03 0.  0.
         25    1    4    4    0    0 -0.70392415089E+02 -0.19111230231E+02 -0.10278482368E+02  0.14516709862E+03  0.12509000000E+03 0.  0.
         25    1    4    4    0    0 -0.35982292495E+02  0.53580229760E+02  0.27084881829E+01  0.14078497932E+03  0.12509000000E+03 0.  0.
<mgrwt>
<rscale>  2 0.45845923E+03</rscale>
<asrwt>0</asrwt>
<pdfrwt beam="1">  1       21 0.29354396E-01 0.45845923E+03</pdfrwt>
<pdfrwt beam="2">  1       21 0.38712434E-01 0.45845923E+03</pdfrwt>
<totfact> 0.66129839E+04</totfact>
</mgrwt>
</event>
<event>
 7    0  0.4775379E-002  0.4564506E+03  0.7546771E-02  0.1025816E+00
         21   -1    0    0  502  501  0.00000000000E+00  0.00000000000E+00  0.21713081514E+03  0.21713081514E+03  0.00000000000E+00 0. -1.
         21   -1    0    0  501  502 -0.00000000000E+00 -0.00000000000E+00 -0.23988662018E+03  0.23988662018E+03  0.00000000000E+00 0. -1.
      99926    2    1    2    0    0 -0.88817841970E-15  0.00000000000E+00 -0.22755805040E+02  0.45701743531E+03  0.45645055539E+03 0.  0.
      99925    2    3    3    0    0  0.41874901536E+01  0.10232018537E+03  0.37116973083E+02  0.28462482216E+03  0.26295753325E+03 0.  0.
         25    1    3    3    0    0 -0.41874901536E+01 -0.10232018537E+03 -0.59872778123E+02  0.17239261315E+03  0.12509000000E+03 0.  0.
         25    1    4    4    0    0  0.95806561382E+01  0.17025796729E+02 -0.71012524810E+01  0.12680537297E+03  0.12509000000E+03 0.  0.
         25    1    4    4    0    0 -0.53931659846E+01  0.85294388639E+02  0.44218225564E+02  0.15781944920E+03  0.12509000000E+03 0.  0.
<mgrwt>
<rscale>  2 0.45645056E+03</rscale>
<asrwt>0</asrwt>
<pdfrwt beam="1">  1       21 0.31931002E-01 0.45645056E+03</pdfrwt>
<pdfrwt beam="2">  1       21 0.35277444E-01 0.45645056E+03</pdfrwt>
<totfact> 0.67612351E+04</totfact>
</mgrwt>
</event>
<event>
 7    0  0.4775379E-002  0.4105955E+03  0.7546771E-02  0.1040171E+00
         21   -1    0    0  502  501  0.00000000000E+00  0.00000000000E+00  0.78454402627E+03  0.78454402627E+03  0.00000000000E+00 0.  1.
         21   -1    0    0  501  502 -0.00000000000E+00 -0.00000000000E+00 -0.53721858104E+02  0.53721858104E+02  0.00000000000E+00 0.  1.
      99926    2    1    2    0    0  0.00000000000E+00  0.35527136788E-14  0.73082216817E+03  0.83826588437E+03  0.41059548393E+03 0.  0.
      99925    2    3    3    0    0 -0.58783402215E+02  0.20305734987E+02  0.50375618349E+03  0.57166828358E+03  0.26299529046E+03 0.  0.
         25    1    4    4    0    0 -0.36788074193E+02  0.50044897690E+02  0.26974754887E+03  0.30375829604E+03  0.12509000000E+03 0.  0.
         25    1    3    3    0    0  0.58783402215E+02 -0.20305734987E+02  0.22706598468E+03  0.26659760079E+03  0.12509000000E+03 0.  0.
         25    1    4    4    0    0 -0.21995328022E+02 -0.29739162702E+02  0.23400863461E+03  0.26790998754E+03  0.12509000000E+03 0.  0.
<mgrwt>
<rscale>  2 0.41059548E+03</rscale>
<asrwt>0</asrwt>
<pdfrwt beam="1">  1       21 0.11537411E+00 0.41059548E+03</pdfrwt>
<pdfrwt beam="2">  1       21 0.79002737E-02 0.41059548E+03</pdfrwt>
<totfact> 0.66177691E+04</totfact>
</mgrwt>
</event>
<event>
 7    0  0.4775379E-002  0.4450943E+03  0.7546771E-02  0.1029195E+00
         21   -1    0    0  502  501  0.00000000000E+00  0.00000000000E+00  0.30593274906E+03  0.30593274906E+03  0.00000000000E+00 0.  1.
         21   -1    0    0  501  502 -0.00000000000E+00 -0.00000000000E+00 -0.16188925156E+03  0.16188925156E+03  0.00000000000E+00 0.  1.
      99926    2    1    2    0    0  0.00000000000E+00  0.71054273576E-14  0.14404349750E+03  0.46782200062E+03  0.44509425417E+03 0.  0.
      99925    2    3    3    0    0  0.24726765175E+02  0.56563030706E+02  0.41783600909E+01  0.27028579098E+03  0.26310864819E+03 0.  0.
         25    1    4    4    0    0 -0.69329876913E+01  0.39495287084E+02  0.36179678770E+02  0.13625131660E+03  0.12509000000E+03 0.  0.
         25    1    4    4    0    0  0.31659752866E+02  0.17067743622E+02 -0.32001318679E+02  0.13403447438E+03  0.12509000000E+03 0.  0.
         25    1    3    3    0    0 -0.24726765175E+02 -0.56563030706E+02  0.13986513741E+03  0.19753620964E+03  0.12509000000E+03 0.  0.
<mgrwt>
<rscale>  2 0.44509425E+03</rscale>
<asrwt>0</asrwt>
<pdfrwt beam="1">  1       21 0.44990110E-01 0.44509425E+03</pdfrwt>
<pdfrwt beam="2">  1       21 0.23807243E-01 0.44509425E+03</pdfrwt>
<totfact> 0.73183410E+04</totfact>
</mgrwt>
</event>
<event>
 7    0  0.4775379E-002  0.4438731E+03  0.7546771E-02  0.1029565E+00
         21   -1    0    0  502  501  0.00000000000E+00  0.00000000000E+00  0.26178100193E+03  0.26178100193E+03  0.00000000000E+00 0. -1.
         21   -1    0    0  501  502 -0.00000000000E+00 -0.00000000000E+00 -0.18815659857E+03  0.18815659857E+03  0.00000000000E+00 0. -1.
      99926    2    1    2    0    0  0.00000000000E+00 -0.14210854715E-13  0.73624403351E+02  0.44993760050E+03  0.44387305795E+03 0.  0.
      99925    2    3    3    0    0  0.20092454354E+02  0.88765549945E+02  0.16412285792E+01  0.27931487303E+03  0.26406642173E+03 0.  0.
         25    1    3    3    0    0 -0.20092454354E+02 -0.88765549945E+02  0.71983174772E+02  0.17062272747E+03  0.12509000000E+03 0.  0.
         25    1    4    4    0    0  0.87978935121E+01  0.15270876239E+02  0.32757930885E+02  0.13050361193E+03  0.12509000000E+03 0.  0.
         25    1    4    4    0    0  0.11294560842E+02  0.73494673705E+02 -0.31116702306E+02  0.14881126110E+03  0.12509000000E+03 0.  0.
<mgrwt>
<rscale>  2 0.44387306E+03</rscale>
<asrwt>0</asrwt>
<pdfrwt beam="1">  1       21 0.38497206E-01 0.44387306E+03</pdfrwt>
<pdfrwt beam="2">  1       21 0.27670088E-01 0.44387306E+03</pdfrwt>
<totfact> 0.75390824E+04</totfact>
</mgrwt>
</event>
<event>
 7    0  0.4775379E-002  0.4496281E+03  0.7546771E-02  0.1027833E+00
         21   -1    0    0  502  501  0.00000000000E+00  0.00000000000E+00  0.22315043490E+03  0.22315043490E+03  0.00000000000E+00 0. -1.
         21   -1    0    0  501  502 -0.00000000000E+00 -0.00000000000E+00 -0.22649009962E+03  0.22649009962E+03  0.00000000000E+00 0. -1.
      99926    2    1    2    0    0  0.00000000000E+00  0.00000000000E+00 -0.33396647176E+01  0.44964053452E+03  0.44962813182E+03 0.  0.
      99925    2    3    3    0    0  0.43343426193E+02 -0.75380930357E+02  0.62083827259E+02  0.28384343365E+03  0.26296721462E+03 0.  0.
         25    1    4    4    0    0 -0.66130260649E+01 -0.30554537074E+02  0.59139736448E+02  0.14185319304E+03  0.12509000000E+03 0.  0.
         25    1    4    4    0    0  0.49956452258E+02 -0.44826393283E+02  0.29440908109E+01  0.14199024061E+03  0.12509000000E+03 0.  0.
         25    1    3    3    0    0 -0.43343426193E+02  0.75380930357E+02 -0.65423491976E+02  0.16579710087E+03  0.12509000000E+03 0.  0.
<mgrwt>
<rscale>  2 0.44962813E+03</rscale>
<asrwt>0</asrwt>
<pdfrwt beam="1">  1       21 0.32816241E-01 0.44962813E+03</pdfrwt>
<pdfrwt beam="2">  1       21 0.33307367E-01 0.44962813E+03</pdfrwt>
<totfact> 0.71976133E+04</totfact>
</mgrwt>
</event>
<event>
 7    0  0.4775379E-002  0.4534063E+03  0.7546771E-02  0.1026711E+00
         21   -1    0    0  502  501  0.00000000000E+00  0.00000000000E+00  0.81506573760E+02  0.81506573760E+02  0.00000000000E+00 0. -1.
         21   -1    0    0  501  502 -0.00000000000E+00 -0.00000000000E+00 -0.63055418800E+03  0.63055418800E+03  0.00000000000E+00 0. -1.
      99926    2    1    2    0    0  0.00000000000E+00  0.00000000000E+00 -0.54904761424E+03  0.71206076176E+03  0.45340627007E+03 0.  0.
      99925    2    3    3    0    0 -0.46903794590E+01 -0.34417017350E+02 -0.17936941230E+03  0.32024956765E+03  0.26302066224E+03 0.  0.
         25    1    4    4    0    0 -0.21724491000E+01  0.17724477223E+02 -0.11215920502E+03  0.16895582854E+03  0.12509000000E+03 0.  0.
         25    1    3    3    0    0  0.46903794590E+01  0.34417017350E+02 -0.36967820194E+03  0.39181119411E+03  0.12509000000E+03 0.  0.
         25    1    4    4    0    0 -0.25179303590E+01 -0.52141494573E+02 -0.67210207282E+02  0.15129373911E+03  0.12509000000E+03 0.  0.
<mgrwt>
<rscale>  2 0.45340627E+03</rscale>
<asrwt>0</asrwt>
<pdfrwt beam="1">  1       21 0.11986261E-01 0.45340627E+03</pdfrwt>
<pdfrwt beam="2">  1       21 0.92728552E-01 0.45340627E+03</pdfrwt>
<totfact> 0.52913367E+04</totfact>
</mgrwt>
</event>
<event>
 7    0  0.4775379E-002  0.4564830E+03  0.7546771E-02  0.1025806E+00
         21   -1    0    0  502  501  0.00000000000E+00  0.00000000000E+00  0.18767981645E+03  0.18767981645E+03  0.00000000000E+00 0. -1.
         21   -1    0    0  501  502 -0.00000000000E+00 -0.00000000000E+00 -0.27756939593E+03  0.27756939593E+03  0.00000000000E+00 0. -1.
      99926    2    1    2    0    0 -0.35527136788E-14  0.14210854715E-13 -0.89889579476E+02  0.46524921238E+03  0.45648296038E+03 0.  0.
      99925    2    3    3    0    0  0.25979225563E+02 -0.10825379194E+03 -0.84266495314E+02  0.29769942633E+03  0.26292642046E+03 0.  0.
         25    1    3    3    0    0 -0.25979225563E+02  0.10825379194E+03 -0.56230841614E+01  0.16754978605E+03  0.12509000000E+03 0.  0.
         25    1    4    4    0    0  0.53081979959E+02 -0.54960021103E+02 -0.36490936282E+02  0.15105428510E+03  0.12509000000E+03 0.  0.
         25    1    4    4    0    0 -0.27102754397E+02 -0.53293770834E+02 -0.47775559033E+02  0.14664514123E+03  0.12509000000E+03 0.  0.
<mgrwt>
<rscale>  2 0.45648296E+03</rscale>
<asrwt>0</asrwt>
<pdfrwt beam="1">  1       21 0.27599973E-01 0.45648296E+03</pdfrwt>
<pdfrwt beam="2">  1       21 0.40819029E-01 0.45648296E+03</pdfrwt>
<totfact> 0.66998427E+04</totfact>
</mgrwt>
</event>
<event>
 7    0  0.4775379E-002  0.4525362E+03  0.7546771E-02  0.1026968E+00
         21   -1    0    0  502  501  0.00000000000E+00  0.00000000000E+00  0.17773991377E+03  0.17773991377E+03  0.00000000000E+00 0.  1.
         21   -1    0    0  501  502 -0.00000000000E+00 -0.00000000000E+00 -0.28804587782E+03  0.28804587782E+03  0.00000000000E+00 0.  1.
      99926    2    1    2    0    0  0.00000000000E+00  0.00000000000E+00 -0.11030596405E+03  0.46578579159E+03  0.45253618412E+03 0.  0.
      99925    2    3    3    0    0  0.61485460137E+02 -0.80265383991E+02 -0.22865413681E+02  0.28271107562E+03  0.26302040123E+03 0.  0.
         25    1    4    4    0    0  0.33704364772E+02 -0.62651165152E+02  0.22479175743E+02  0.14565017728E+03  0.12509000000E+03 0.  0.
         25    1    3    3    0    0 -0.61485460137E+02  0.80265383991E+02 -0.87440550373E+02  0.18307471596E+03  0.12509000000E+03 0.  0.
         25    1    4    4    0    0  0.27781095365E+02 -0.17614218839E+02 -0.45344589424E+02  0.13706089834E+03  0.12509000000E+03 0.  0.
<mgrwt>
<rscale>  2 0.45253618E+03</rscale>
<asrwt>0</asrwt>
<pdfrwt beam="1">  1       21 0.26138223E-01 0.45253618E+03</pdfrwt>
<pdfrwt beam="2">  1       21 0.42359687E-01 0.45253618E+03</pdfrwt>
<totfact> 0.69091026E+04</totfact>
</mgrwt>
</event>
<event>
 7    0  0.4775379E-002  0.4553445E+03  0.7546771E-02  0.1026140E+00
         21   -1    0    0  502  501  0.00000000000E+00  0.00000000000E+00  0.14652024755E+04  0.14652024755E+04  0.00000000000E+00 0.  1.
         21   -1    0    0  501  502 -0.00000000000E+00 -0.00000000000E+00 -0.35377129846E+02  0.35377129846E+02  0.00000000000E+00 0.  1.
      99926    2    1    2    0    0  0.00000000000E+00  0.00000000000E+00  0.14298253457E+04  0.15005796054E+04  0.45534452111E+03 0.  0.
      99925    2    3    3    0    0 -0.31099426182E+02  0.53363202183E+02  0.12131141044E+04  0.12428470388E+04  0.26307437350E+03 0.  0.
         25    1    4    4    0    0 -0.96274118078E+01  0.48980243048E+02  0.77828649655E+03  0.78985386628E+03  0.12509000000E+03 0.  0.
         25    1    4    4    0    0 -0.21472014374E+02  0.43829591348E+01  0.43482760783E+03  0.45299317254E+03  0.12509000000E+03 0.  0.
         25    1    3    3    0    0  0.31099426182E+02 -0.53363202183E+02  0.21671124128E+03  0.25773256654E+03  0.12509000000E+03 0.  0.
<mgrwt>
<rscale>  2 0.45534452E+03</rscale>
<asrwt>0</asrwt>
<pdfrwt beam="1">  1       21 0.21547091E+00 0.45534452E+03</pdfrwt>
<pdfrwt beam="2">  1       21 0.52025201E-02 0.45534452E+03</pdfrwt>
<totfact> 0.23701435E+04</totfact>
</mgrwt>
</event>
<event>
 7    0  0.4775379E-002  0.4705236E+03  0.7546771E-02  0.1021773E+00
         21   -1    0    0  502  501  0.00000000000E+00  0.00000000000E+00  0.28408055379E+03  0.28408055379E+03  0.00000000000E+00 0. -1.
         21   -1    0    0  501  502 -0.00000000000E+00 -0.00000000000E+00 -0.19483248914E+03  0.19483248914E+03  0.00000000000E+00 0. -1.
      99926    2    1    2    0    0  0.00000000000E+00  0.00000000000E+00  0.89248064652E+02  0.47891304293E+03  0.47052362921E+03 0.  0.
      99925    2    3    3    0    0 -0.28230502829E+02  0.11885653264E+03  0.91088862233E+02  0.30405672112E+03  0.26311494103E+03 0.  0.
         25    1    4    4    0    0 -0.22358264872E+02  0.88585226099E+02  0.18028120249E+02  0.15594792564E+03  0.12509000000E+03 0.  0.
         25    1    4    4    0    0 -0.58722379572E+01  0.30271306543E+02  0.73060741984E+02  0.14810879548E+03  0.12509000000E+03 0.  0.
         25    1    3    3    0    0  0.28230502829E+02 -0.11885653264E+03 -0.18407975814E+01  0.17485632181E+03  0.12509000000E+03 0.  0.
<mgrwt>
<rscale>  2 0.47052363E+03</rscale>
<asrwt>0</asrwt>
<pdfrwt beam="1">  1       21 0.41776552E-01 0.47052363E+03</pdfrwt>
<pdfrwt beam="2">  1       21 0.28651836E-01 0.47052363E+03</pdfrwt>
<totfact> 0.59146953E+04</totfact>
</mgrwt>
</event>
<event>
 7    0  0.4775379E-002  0.4507719E+03  0.7546771E-02  0.1027492E+00
         21   -1    0    0  502  501  0.00000000000E+00  0.00000000000E+00  0.98741708615E+02  0.98741708615E+02  0.00000000000E+00 0.  1.
         21   -1    0    0  501  502 -0.00000000000E+00 -0.00000000000E+00 -0.51446175355E+03  0.51446175355E+03  0.00000000000E+00 0.  1.
      99926    2    1    2    0    0 -0.71054273576E-14  0.35527136788E-14 -0.41572004494E+03  0.61320346217E+03  0.45077192709E+03 0.  0.
      99925    2    3    3    0    0 -0.48018533457E+02 -0.24881346223E+02 -0.39161227060E+03  0.47480709723E+03  0.26297670648E+03 0.  0.
         25    1    4    4    0    0 -0.23566954180E+02 -0.51455903916E+02 -0.22126806762E+03  0.26040387329E+03  0.12509000000E+03 0.  0.
         25    1    4    4    0    0 -0.24451579277E+02  0.26574557693E+02 -0.17034420298E+03  0.21440322394E+03  0.12509000000E+03 0.  0.
         25    1    3    3    0    0  0.48018533457E+02  0.24881346223E+02 -0.24107774341E+02  0.13839636494E+03  0.12509000000E+03 0.  0.
<mgrwt>
<rscale>  2 0.45077193E+03</rscale>
<asrwt>0</asrwt>
<pdfrwt beam="1">  1       21 0.14520839E-01 0.45077193E+03</pdfrwt>
<pdfrwt beam="2">  1       21 0.75656141E-01 0.45077193E+03</pdfrwt>
<totfact> 0.59846399E+04</totfact>
</mgrwt>
</event>
<event>
 7    0  0.4775379E-002  0.4568505E+03  0.7546771E-02  0.1025699E+00
         21   -1    0    0  502  501  0.00000000000E+00  0.00000000000E+00  0.10033723261E+03  0.10033723261E+03  0.00000000000E+00 0. -1.
         21   -1    0    0  501  502 -0.00000000000E+00 -0.00000000000E+00 -0.52002723969E+03  0.52002723969E+03  0.00000000000E+00 0. -1.
      99926    2    1    2    0    0  0.00000000000E+00  0.00000000000E+00 -0.41969000708E+03  0.62036447229E+03  0.45685049681E+03 0.  0.
      99925    2    3    3    0    0  0.61926848760E+02  0.56822547747E+02 -0.15712093406E+03  0.31762074777E+03  0.26293005717E+03 0.  0.
         25    1    4    4    0    0 -0.46931636088E+01  0.47405352296E+02 -0.81391646071E+02  0.15665695440E+03  0.12509000000E+03 0.  0.
         25    1    3    3    0    0 -0.61926848760E+02 -0.56822547747E+02 -0.26256907302E+03  0.30274372452E+03  0.12509000000E+03 0.  0.
         25    1    4    4    0    0  0.66620012369E+02  0.94171954510E+01 -0.75729287992E+02  0.16096379338E+03  0.12509000000E+03 0.  0.
<mgrwt>
<rscale>  2 0.45685050E+03</rscale>
<asrwt>0</asrwt>
<pdfrwt beam="1">  1       21 0.14755475E-01 0.45685050E+03</pdfrwt>
<pdfrwt beam="2">  1       21 0.76474594E-01 0.45685050E+03</pdfrwt>
<totfact> 0.56610207E+04</totfact>
</mgrwt>
</event>
<event>
 7    0  0.4775379E-002  0.4533139E+03  0.7546771E-02  0.1026738E+00
         21   -1    0    0  502  501  0.00000000000E+00  0.00000000000E+00  0.30861571597E+04  0.30861571597E+04  0.00000000000E+00 0. -1.
         21   -1    0    0  501  502 -0.00000000000E+00 -0.00000000000E+00 -0.16646390159E+02  0.16646390159E+02  0.00000000000E+00 0. -1.
      99926    2    1    2    0    0  0.00000000000E+00  0.00000000000E+00  0.30695107695E+04  0.31028035498E+04  0.45331391407E+03 0.  0.
      99925    2    3    3    0    0 -0.73588367018E+02  0.65911485209E+02  0.15791615167E+04  0.16039546664E+04  0.26298270793E+03 0.  0.
         25    1    4    4    0    0 -0.10283630694E+02  0.47597857323E+02  0.61479365189E+03  0.62927740432E+03  0.12509000000E+03 0.  0.
         25    1    3    3    0    0  0.73588367018E+02 -0.65911485209E+02  0.14903492528E+04  0.14988488834E+04  0.12509000000E+03 0.  0.
         25    1    4    4    0    0 -0.63304736324E+02  0.18313627887E+02  0.96436786476E+03  0.97467726212E+03  0.12509000000E+03 0.  0.
<mgrwt>
<rscale>  2 0.45331391E+03</rscale>
<asrwt>0</asrwt>
<pdfrwt beam="1">  1       21 0.45384624E+00 0.45331391E+03</pdfrwt>
<pdfrwt beam="2">  1       21 0.24480007E-02 0.45331391E+03</pdfrwt>
<totfact> 0.27506637E+03</totfact>
</mgrwt>
</event>
<event>
 7    0  0.4775379E-002  0.4784331E+03  0.7546771E-02  0.1019567E+00
         21   -1    0    0  502  501  0.00000000000E+00  0.00000000000E+00  0.41143126384E+03  0.41143126384E+03  0.00000000000E+00 0. -1.
         21   -1    0    0  501  502 -0.00000000000E+00 -0.00000000000E+00 -0.13908654569E+03  0.13908654569E+03  0.00000000000E+00 0. -1.
      99926    2    1    2    0    0 -0.17763568394E-14  0.00000000000E+00  0.27234471815E+03  0.55051780952E+03  0.47843308111E+03 0.  0.
      99925    2    3    3    0    0  0.94046299437E+01 -0.47071892801E+02  0.31188006353E+03  0.41082256339E+03  0.26306233939E+03 0.  0.
         25    1    3    3    0    0 -0.94046299437E+01  0.47071892801E+02 -0.39535345384E+02  0.13969524613E+03  0.12509000000E+03 0.  0.
         25    1    4    4    0    0  0.28391562208E+01 -0.62003233196E+02  0.14124970518E+03  0.19862388841E+03  0.12509000000E+03 0.  0.
         25    1    4    4    0    0  0.65654737228E+01  0.14931340395E+02  0.17063035836E+03  0.21219867498E+03  0.12509000000E+03 0.  0.
<mgrwt>
<rscale>  2 0.47843308E+03</rscale>
<asrwt>0</asrwt>
<pdfrwt beam="1">  1       21 0.60504598E-01 0.47843308E+03</pdfrwt>
<pdfrwt beam="2">  1       21 0.20453904E-01 0.47843308E+03</pdfrwt>
<totfact> 0.51574782E+04</totfact>
</mgrwt>
</event>
<event>
 7    0  0.4775379E-002  0.4421950E+03  0.7546771E-02  0.1030075E+00
         21   -1    0    0  502  501  0.00000000000E+00  0.00000000000E+00  0.65800231405E+03  0.65800231405E+03  0.00000000000E+00 0. -1.
         21   -1    0    0  501  502 -0.00000000000E+00 -0.00000000000E+00 -0.74291699891E+02  0.74291699891E+02  0.00000000000E+00 0. -1.
      99926    2    1    2    0    0  0.00000000000E+00 -0.17763568394E-14  0.58371061416E+03  0.73229401394E+03  0.44219502685E+03 0.  0.
      99925    2    3    3    0    0 -0.90256334233E+02 -0.13247973489E+02  0.30122977304E+03  0.41016880790E+03  0.26301589331E+03 0.  0.
         25    1    3    3    0    0  0.90256334233E+02  0.13247973489E+02  0.28248084112E+03  0.32212520604E+03  0.12509000000E+03 0.  0.
         25    1    4    4    0    0 -0.36868778789E+02  0.16518455102E+02  0.19443481478E+03  0.23470102579E+03  0.12509000000E+03 0.  0.
         25    1    4    4    0    0 -0.53387555444E+02 -0.29766428590E+02  0.10679495826E+03  0.17546778211E+03  0.12509000000E+03 0.  0.
<mgrwt>
<rscale>  2 0.44219503E+03</rscale>
<asrwt>0</asrwt>
<pdfrwt beam="1">  1       21 0.96765043E-01 0.44219503E+03</pdfrwt>
<pdfrwt beam="2">  1       21 0.10925250E-01 0.44219503E+03</pdfrwt>
<totfact> 0.56679245E+04</totfact>
</mgrwt>
</event>
<event>
 7    0  0.4775379E-002  0.4821630E+03  0.7546771E-02  0.1018542E+00
         21   -1    0    0  502  501  0.00000000000E+00  0.00000000000E+00  0.26234207197E+03  0.26234207197E+03  0.00000000000E+00 0. -1.
         21   -1    0    0  501  502 -0.00000000000E+00 -0.00000000000E+00 -0.22154389463E+03  0.22154389463E+03  0.00000000000E+00 0. -1.
      99926    2    1    2    0    0  0.00000000000E+00 -0.14210854715E-13  0.40798177335E+02  0.48388596660E+03  0.48216297804E+03 0.  0.
      99925    2    3    3    0    0  0.59684148675E+02  0.11673878151E+03  0.64901989925E+02  0.30107830102E+03  0.26314584234E+03 0.  0.
         25    1    4    4    0    0  0.13290535235E+00  0.81428644653E+02  0.16649494497E+02  0.15018440532E+03  0.12509000000E+03 0.  0.
         25    1    4    4    0    0  0.59551243323E+02  0.35310136854E+02  0.48252495428E+02  0.15089389570E+03  0.12509000000E+03 0.  0.
         25    1    3    3    0    0 -0.59684148675E+02 -0.11673878151E+03 -0.24103812591E+02  0.18280766557E+03  0.12509000000E+03 0.  0.
<mgrwt>
<rscale>  2 0.48216298E+03</rscale>
<asrwt>0</asrwt>
<pdfrwt beam="1">  1       21 0.38579717E-01 0.48216298E+03</pdfrwt>
<pdfrwt beam="2">  1       21 0.32579984E-01 0.48216298E+03</pdfrwt>
<totfact> 0.53832000E+04</totfact>
</mgrwt>
</event>
<event>
 7    0  0.4775379E-002  0.4528761E+03  0.7546771E-02  0.1026868E+00
         21   -1    0    0  502  501  0.00000000000E+00  0.00000000000E+00  0.64726795453E+03  0.64726795453E+03  0.00000000000E+00 0.  1.
         21   -1    0    0  501  502 -0.00000000000E+00 -0.00000000000E+00 -0.79216333897E+02  0.79216333897E+02  0.00000000000E+00 0.  1.
      99926    2    1    2    0    0  0.00000000000E+00  0.00000000000E+00  0.56805162063E+03  0.72648428843E+03  0.45287611731E+03 0.  0.
      99925    2    3    3    0    0  0.32021635844E+02  0.98444495347E+02  0.42287808307E+03  0.50867802604E+03  0.26307937435E+03 0.  0.
         25    1    4    4    0    0  0.27177406241E+02  0.93017983517E+01  0.21021469513E+03  0.24629831711E+03  0.12509000000E+03 0.  0.
         25    1    3    3    0    0 -0.32021635844E+02 -0.98444495347E+02  0.14517353757E+03  0.21780626239E+03  0.12509000000E+03 0.  0.
         25    1    4    4    0    0  0.48442296033E+01  0.89142696996E+02  0.21266338793E+03  0.26237970893E+03  0.12509000000E+03 0.  0.
<mgrwt>
<rscale>  2 0.45287612E+03</rscale>
<asrwt>0</asrwt>
<pdfrwt beam="1">  1       21 0.95186461E-01 0.45287612E+03</pdfrwt>
<pdfrwt beam="2">  1       21 0.11649461E-01 0.45287612E+03</pdfrwt>
<totfact> 0.52357598E+04</totfact>
</mgrwt>
</event>
<event>
 7    0  0.4775379E-002  0.4542775E+03  0.7546771E-02  0.1026454E+00
         21   -1    0    0  502  501  0.00000000000E+00  0.00000000000E+00  0.11665328341E+04  0.11665328341E+04  0.00000000000E+00 0.  1.
         21   -1    0    0  501  502 -0.00000000000E+00 -0.00000000000E+00 -0.44226800152E+02  0.44226800152E+02  0.00000000000E+00 0.  1.
      99926    2    1    2    0    0  0.00000000000E+00  0.00000000000E+00  0.11223060340E+04  0.12107596343E+04  0.45427751222E+03 0.  0.
      99925    2    3    3    0    0  0.70073267259E+02  0.39039000159E+02  0.49613976513E+03  0.56720232474E+03  0.26292490246E+03 0.  0.
         25    1    4    4    0    0  0.59118767984E+02 -0.12524916698E+02  0.26234943422E+03  0.29686130769E+03  0.12509000000E+03 0.  0.
         25    1    3    3    0    0 -0.70073267259E+02 -0.39039000159E+02  0.62616626886E+03  0.64355730955E+03  0.12509000000E+03 0.  0.
         25    1    4    4    0    0  0.10954499275E+02  0.51563916857E+02  0.23379033091E+03  0.27034101706E+03  0.12509000000E+03 0.  0.
<mgrwt>
<rscale>  2 0.45427751E+03</rscale>
<asrwt>0</asrwt>
<pdfrwt beam="1">  1       21 0.17154893E+00 0.45427751E+03</pdfrwt>
<pdfrwt beam="2">  1       21 0.65039419E-02 0.45427751E+03</pdfrwt>
<totfact> 0.31996466E+04</totfact>
</mgrwt>
</event>
<event>
 7    0  0.4775379E-002  0.4397205E+03  0.7546771E-02  0.1030833E+00
         21   -1    0    0  502  501  0.00000000000E+00  0.00000000000E+00  0.22209201158E+03  0.22209201158E+03  0.00000000000E+00 0. -1.
         21   -1    0    0  501  502 -0.00000000000E+00 -0.00000000000E+00 -0.21765089689E+03  0.21765089689E+03  0.00000000000E+00 0. -1.
      99926    2    1    2    0    0 -0.44408920985E-15  0.00000000000E+00  0.44411146914E+01  0.43974290848E+03  0.43972048173E+03 0.  0.
      99925    2    3    3    0    0 -0.14632851490E+01 -0.48290381654E+02 -0.82546981060E+02  0.27990380479E+03  0.26305519134E+03 0.  0.
         25    1    4    4    0    0  0.27321826862E+02 -0.40778139333E+02 -0.16593527682E+02  0.13539642584E+03  0.12509000000E+03 0.  0.
         25    1    4    4    0    0 -0.28785112011E+02 -0.75122423207E+01 -0.65953453378E+02  0.14450737895E+03  0.12509000000E+03 0.  0.
         25    1    3    3    0    0  0.14632851490E+01  0.48290381654E+02  0.86988095751E+02  0.15983910368E+03  0.12509000000E+03 0.  0.
<mgrwt>
<rscale>  2 0.43972048E+03</rscale>
<asrwt>0</asrwt>
<pdfrwt beam="1">  1       21 0.32660590E-01 0.43972048E+03</pdfrwt>
<pdfrwt beam="2">  1       21 0.32007485E-01 0.43972048E+03</pdfrwt>
<totfact> 0.78863171E+04</totfact>
</mgrwt>
</event>
<event>
 7    0  0.4775379E-002  0.4309040E+03  0.7546771E-02  0.1033575E+00
         21   -1    0    0  502  501  0.00000000000E+00  0.00000000000E+00  0.15743193562E+03  0.15743193562E+03  0.00000000000E+00 0. -1.
         21   -1    0    0  501  502 -0.00000000000E+00 -0.00000000000E+00 -0.29485480755E+03  0.29485480755E+03  0.00000000000E+00 0. -1.
      99926    2    1    2    0    0  0.00000000000E+00 -0.35527136788E-14 -0.13742287193E+03  0.45228674317E+03  0.43090399431E+03 0.  0.
      99925    2    3    3    0    0 -0.77510081458E+02 -0.18989188681E+02 -0.12920579285E+03  0.30368179539E+03  0.26298306777E+03 0.  0.
         25    1    4    4    0    0 -0.55030449966E+02 -0.21432256856E+02 -0.27855956886E+02  0.14110689030E+03  0.12509000000E+03 0.  0.
         25    1    3    3    0    0  0.77510081458E+02  0.18989188681E+02 -0.82170790784E+01  0.14860494777E+03  0.12509000000E+03 0.  0.
         25    1    4    4    0    0 -0.22479631492E+02  0.24430681756E+01 -0.10134983596E+03  0.16257490509E+03  0.12509000000E+03 0.  0.
<mgrwt>
<rscale>  2 0.43090399E+03</rscale>
<asrwt>0</asrwt>
<pdfrwt beam="1">  1       21 0.23151755E-01 0.43090399E+03</pdfrwt>
<pdfrwt beam="2">  1       21 0.43361001E-01 0.43090399E+03</pdfrwt>
<totfact> 0.83661360E+04</totfact>
</mgrwt>
</event>
<event>
 7    0  0.4775379E-002  0.4553517E+03  0.7546771E-02  0.1026138E+00
         21   -1    0    0  502  501  0.00000000000E+00  0.00000000000E+00  0.66885720586E+02  0.66885720586E+02  0.00000000000E+00 0.  1.
         21   -1    0    0  501  502 -0.00000000000E+00 -0.00000000000E+00 -0.77499775953E+03  0.77499775953E+03  0.00000000000E+00 0.  1.
      99926    2    1    2    0    0  0.00000000000E+00  0.17763568394E-14 -0.70811203894E+03  0.84188348011E+03  0.45535166014E+03 0.  0.
      99925    2    3    3    0    0 -0.87666862484E+02  0.12715660796E+02 -0.31412000122E+03  0.41912539243E+03  0.26295922234E+03 0.  0.
         25    1    4    4    0    0 -0.15293724183E+02  0.33139387211E+02 -0.12864691763E+03  0.18311104418E+03  0.12509000000E+03 0.  0.
         25    1    3    3    0    0  0.87666862484E+02 -0.12715660796E+02 -0.39399203772E+03  0.42275808768E+03  0.12509000000E+03 0.  0.
         25    1    4    4    0    0 -0.72373138301E+02 -0.20423726415E+02 -0.18547308359E+03  0.23601434826E+03  0.12509000000E+03 0.  0.
<mgrwt>
<rscale>  2 0.45535166E+03</rscale>
<asrwt>0</asrwt>
<pdfrwt beam="1">  1       21 0.98361355E-02 0.45535166E+03</pdfrwt>
<pdfrwt beam="2">  1       21 0.11397026E+00 0.45535166E+03</pdfrwt>
<totfact> 0.45678518E+04</totfact>
</mgrwt>
</event>
<event>
 7    0  0.4775379E-002  0.4398191E+03  0.7546771E-02  0.1030802E+00
         21   -1    0    0  502  501  0.00000000000E+00  0.00000000000E+00  0.60787116203E+02  0.60787116203E+02  0.00000000000E+00 0.  1.
         21   -1    0    0  501  502 -0.00000000000E+00 -0.00000000000E+00 -0.79556675781E+03  0.79556675781E+03  0.00000000000E+00 0.  1.
      99926    2    1    2    0    0 -0.35527136788E-14  0.00000000000E+00 -0.73477964160E+03  0.85635387401E+03  0.43981909442E+03 0.  0.
      99925    2    3    3    0    0 -0.21686977098E+02 -0.60056072822E+02 -0.32367102523E+03  0.42191761929E+03  0.26301043332E+03 0.  0.
         25    1    4    4    0    0 -0.42721610157E+02 -0.18868040234E+02 -0.12688432889E+03  0.18419630815E+03  0.12509000000E+03 0.  0.
         25    1    3    3    0    0  0.21686977098E+02  0.60056072822E+02 -0.41110861637E+03  0.43443625472E+03  0.12509000000E+03 0.  0.
         25    1    4    4    0    0  0.21034633060E+02 -0.41188032588E+02 -0.19678669634E+03  0.23772131114E+03  0.12509000000E+03 0.  0.
<mgrwt>
<rscale>  2 0.43981909E+03</rscale>
<asrwt>0</asrwt>
<pdfrwt beam="1">  1       21 0.89392825E-02 0.43981909E+03</pdfrwt>
<pdfrwt beam="2">  1       21 0.11699510E+00 0.43981909E+03</pdfrwt>
<totfact> 0.50958613E+04</totfact>
</mgrwt>
</event>
<event>
 7    0  0.4775379E-002  0.4574385E+03  0.7546771E-02  0.1025527E+00
         21   -1    0    0  502  501  0.00000000000E+00  0.00000000000E+00  0.18493928814E+04  0.18493928814E+04  0.00000000000E+00 0. -1.
         21   -1    0    0  501  502 -0.00000000000E+00 -0.00000000000E+00 -0.28286304061E+02  0.28286304061E+02  0.00000000000E+00 0. -1.
      99926    2    1    2    0    0  0.28421709430E-13 -0.35527136788E-14  0.18211065773E+04  0.18776791854E+04  0.45743847399E+03 0.  0.
      99925    2    3    3    0    0  0.10608633150E+03 -0.21329331256E+02  0.97881827519E+03  0.10193049418E+04  0.26303630638E+03 0.  0.
         25    1    4    4    0    0  0.22673154690E+02  0.27681361982E+01  0.35221806181E+03  0.37446869787E+03  0.12509000000E+03 0.  0.
         25    1    4    4    0    0  0.83413176812E+02 -0.24097467454E+02  0.62660021338E+03  0.64483624395E+03  0.12509000000E+03 0.  0.
         25    1    3    3    0    0 -0.10608633150E+03  0.21329331256E+02  0.84228830211E+03  0.85837424360E+03  0.12509000000E+03 0.  0.
<mgrwt>
<rscale>  2 0.45743847E+03</rscale>
<asrwt>0</asrwt>
<pdfrwt beam="1">  1       21 0.27196946E+00 0.45743847E+03</pdfrwt>
<pdfrwt beam="2">  1       21 0.41597518E-02 0.45743847E+03</pdfrwt>
<totfact> 0.15515770E+04</totfact>
</mgrwt>
</event>
<event>
 7    0  0.4775379E-002  0.4578704E+03  0.7546771E-02  0.1025401E+00
         21   -1    0    0  502  501  0.00000000000E+00  0.00000000000E+00  0.15056025628E+03  0.15056025628E+03  0.00000000000E+00 0.  1.
         21   -1    0    0  501  502 -0.00000000000E+00 -0.00000000000E+00 -0.34810868801E+03  0.34810868801E+03  0.00000000000E+00 0.  1.
      99926    2    1    2    0    0 -0.14210854715E-13 -0.35527136788E-14 -0.19754843173E+03  0.49866894428E+03  0.45787043267E+03 0.  0.
      99925    2    3    3    0    0  0.10087934970E+03 -0.18341833811E+02 -0.18262087277E+03  0.33623924817E+03  0.26304635100E+03 0.  0.
         25    1    4    4    0    0  0.86613013211E+02  0.11665775572E+02 -0.10651981480E+03  0.18609643581E+03  0.12509000000E+03 0.  0.
         25    1    4    4    0    0  0.14266336489E+02 -0.30007609383E+02 -0.76101057970E+02  0.15014281235E+03  0.12509000000E+03 0.  0.
         25    1    3    3    0    0 -0.10087934970E+03  0.18341833811E+02 -0.14927558960E+02  0.16242969611E+03  0.12509000000E+03 0.  0.
<mgrwt>
<rscale>  2 0.45787043E+03</rscale>
<asrwt>0</asrwt>
<pdfrwt beam="1">  1       21 0.22141214E-01 0.45787043E+03</pdfrwt>
<pdfrwt beam="2">  1       21 0.51192455E-01 0.45787043E+03</pdfrwt>
<totfact> 0.63895846E+04</totfact>
</mgrwt>
</event>
<event>
 7    0  0.4775379E-002  0.4590288E+03  0.7546771E-02  0.1025063E+00
         21   -1    0    0  502  501  0.00000000000E+00  0.00000000000E+00  0.14694551742E+04  0.14694551742E+04  0.00000000000E+00 0. -1.
         21   -1    0    0  501  502 -0.00000000000E+00 -0.00000000000E+00 -0.35847877727E+02  0.35847877727E+02  0.00000000000E+00 0. -1.
      99926    2    1    2    0    0 -0.35527136788E-14  0.00000000000E+00  0.14336072965E+04  0.15053030519E+04  0.45902875470E+03 0.  0.
      99925    2    3    3    0    0  0.23328129590E+02  0.15796986493E+02  0.52746036334E+03  0.59012901442E+03  0.26314268439E+03 0.  0.
         25    1    3    3    0    0 -0.23328129590E+02 -0.15796986493E+02  0.90614693311E+03  0.91517403749E+03  0.12509000000E+03 0.  0.
         25    1    4    4    0    0 -0.97753682022E+01  0.32228504180E+02  0.20768936603E+03  0.24477870652E+03  0.12509000000E+03 0.  0.
         25    1    4    4    0    0  0.33103497793E+02 -0.16431517687E+02  0.31977099731E+03  0.34535030789E+03  0.12509000000E+03 0.  0.
<mgrwt>
<rscale>  2 0.45902875E+03</rscale>
<asrwt>0</asrwt>
<pdfrwt beam="1">  1       21 0.21609631E+00 0.45902875E+03</pdfrwt>
<pdfrwt beam="2">  1       21 0.52717477E-02 0.45902875E+03</pdfrwt>
<totfact> 0.22923692E+04</totfact>
</mgrwt>
</event>
<event>
 7    0  0.4775379E-002  0.4399901E+03  0.7546771E-02  0.1030750E+00
         21   -1    0    0  502  501  0.00000000000E+00  0.00000000000E+00  0.11457435567E+03  0.11457435567E+03  0.00000000000E+00 0.  1.
         21   -1    0    0  501  502 -0.00000000000E+00 -0.00000000000E+00 -0.42241417542E+03  0.42241417542E+03  0.00000000000E+00 0.  1.
      99926    2    1    2    0    0 -0.17763568394E-14  0.14210854715E-13 -0.30783981975E+03  0.53698853109E+03  0.43999014523E+03 0.  0.
      99925    2    3    3    0    0 -0.15276943077E+02 -0.81780667290E+02 -0.26068428860E+03  0.37953182354E+03  0.26299552131E+03 0.  0.
         25    1    4    4    0    0 -0.40202802658E+02 -0.66612442824E+02 -0.13468877995E+03  0.19960475552E+03  0.12509000000E+03 0.  0.
         25    1    3    3    0    0  0.15276943077E+02  0.81780667290E+02 -0.47155531151E+02  0.15745670754E+03  0.12509000000E+03 0.  0.
         25    1    4    4    0    0  0.24925859581E+02 -0.15168224466E+02 -0.12599550865E+03  0.17992706803E+03  0.12509000000E+03 0.  0.
<mgrwt>
<rscale>  2 0.43999015E+03</rscale>
<asrwt>0</asrwt>
<pdfrwt beam="1">  1       21 0.16849170E-01 0.43999015E+03</pdfrwt>
<pdfrwt beam="2">  1       21 0.62119731E-01 0.43999015E+03</pdfrwt>
<totfact> 0.70774912E+04</totfact>
</mgrwt>
</event>
<event>
 7    0  0.4775379E-002  0.4585238E+03  0.7546771E-02  0.1025210E+00
         21   -1    0    0  502  501  0.00000000000E+00  0.00000000000E+00  0.10099631602E+03  0.10099631602E+03  0.00000000000E+00 0.  1.
         21   -1    0    0  501  502 -0.00000000000E+00 -0.00000000000E+00 -0.52042507475E+03  0.52042507475E+03  0.00000000000E+00 0.  1.
      99926    2    1    2    0    0  0.00000000000E+00  0.00000000000E+00 -0.41942875873E+03  0.62142139076E+03  0.45852378482E+03 0.  0.
      99925    2    3    3    0    0 -0.56608594867E+02 -0.10173933883E+03 -0.27002293072E+03  0.39443012304E+03  0.26288269773E+03 0.  0.
         25    1    3    3    0    0  0.56608594867E+02  0.10173933883E+03 -0.14940582802E+03  0.22699126773E+03  0.12509000000E+03 0.  0.
         25    1    4    4    0    0 -0.33275620135E+00 -0.43748624351E+02 -0.87226200085E+02  0.15865046782E+03  0.12509000000E+03 0.  0.
         25    1    4    4    0    0 -0.56275838665E+02 -0.57990714483E+02 -0.18279673063E+03  0.23577965521E+03  0.12509000000E+03 0.  0.
<mgrwt>
<rscale>  2 0.45852378E+03</rscale>
<asrwt>0</asrwt>
<pdfrwt beam="1">  1       21 0.14852400E-01 0.45852378E+03</pdfrwt>
<pdfrwt beam="2">  1       21 0.76533098E-01 0.45852378E+03</pdfrwt>
<totfact> 0.55809535E+04</totfact>
</mgrwt>
</event>
<event>
 7    0  0.4775379E-002  0.4617489E+03  0.7546771E-02  0.1024275E+00
         21   -1    0    0  502  501  0.00000000000E+00  0.00000000000E+00  0.59083152437E+02  0.59083152437E+02  0.00000000000E+00 0. -1.
         21   -1    0    0  501  502 -0.00000000000E+00 -0.00000000000E+00 -0.90216923993E+03  0.90216923993E+03  0.00000000000E+00 0. -1.
      99926    2    1    2    0    0 -0.14210854715E-13  0.00000000000E+00 -0.84308608749E+03  0.96125239237E+03  0.46174886129E+03 0.  0.
      99925    2    3    3    0    0  0.11803595547E+03  0.17582054816E+02 -0.51609048294E+03  0.59136693857E+03  0.26291415713E+03 0.  0.
         25    1    4    4    0    0  0.92939901584E+02  0.49818727561E+01 -0.23003255458E+03  0.27789409607E+03  0.12509000000E+03 0.  0.
         25    1    4    4    0    0  0.25096053881E+02  0.12600182060E+02 -0.28605792836E+03  0.31347284250E+03  0.12509000000E+03 0.  0.
         25    1    3    3    0    0 -0.11803595547E+03 -0.17582054816E+02 -0.32699560455E+03  0.36988545380E+03  0.12509000000E+03 0.  0.
<mgrwt>
<rscale>  2 0.46174886E+03</rscale>
<asrwt>0</asrwt>
<pdfrwt beam="1">  1       21 0.86886992E-02 0.46174886E+03</pdfrwt>
<pdfrwt beam="2">  1       21 0.13267194E+00 0.46174886E+03</pdfrwt>
<totfact> 0.38610474E+04</totfact>
</mgrwt>
</event>
<event>
 7    0  0.4775379E-002  0.4587712E+03  0.7546771E-02  0.1025138E+00
         21   -1    0    0  502  501  0.00000000000E+00  0.00000000000E+00  0.72852532285E+02  0.72852532285E+02  0.00000000000E+00 0.  1.
         21   -1    0    0  501  502 -0.00000000000E+00 -0.00000000000E+00 -0.72225011112E+03  0.72225011112E+03  0.00000000000E+00 0.  1.
      99926    2    1    2    0    0  0.71054273576E-14  0.00000000000E+00 -0.64939757884E+03  0.79510264341E+03  0.45877118278E+03 0.  0.
      99925    2    3    3    0    0 -0.50337921395E+02  0.95894607712E+02 -0.48210419554E+03  0.55980651867E+03  0.26311442544E+03 0.  0.
         25    1    4    4    0    0  0.91531138492E+00  0.15893650021E+02 -0.24202481921E+03  0.27290468505E+03  0.12509000000E+03 0.  0.
         25    1    3    3    0    0  0.50337921395E+02 -0.95894607712E+02 -0.16729338330E+03  0.23529612473E+03  0.12509000000E+03 0.  0.
         25    1    4    4    0    0 -0.51253232780E+02  0.80000957691E+02 -0.24007937632E+03  0.28690183363E+03  0.12509000000E+03 0.  0.
<mgrwt>
<rscale>  2 0.45877118E+03</rscale>
<asrwt>0</asrwt>
<pdfrwt beam="1">  1       21 0.10713608E-01 0.45877118E+03</pdfrwt>
<pdfrwt beam="2">  1       21 0.10621325E+00 0.45877118E+03</pdfrwt>
<totfact> 0.46607793E+04</totfact>
</mgrwt>
</event>
<event>
 7    0  0.4775379E-002  0.4497166E+03  0.7546771E-02  0.1027807E+00
         21   -1    0    0  502  501  0.00000000000E+00  0.00000000000E+00  0.40983146548E+03  0.40983146548E+03  0.00000000000E+00 0. -1.
         21   -1    0    0  501  502 -0.00000000000E+00 -0.00000000000E+00 -0.12337084809E+03  0.12337084809E+03  0.00000000000E+00 0. -1.
      99926    2    1    2    0    0  0.00000000000E+00  0.00000000000E+00  0.28646061739E+03  0.53320231357E+03  0.44971660173E+03 0.  0.
      99925    2    3    3    0    0 -0.84899826866E+02  0.29846756964E+02  0.25239130796E+03  0.37538268409E+03  0.26289157019E+03 0.  0.
         25    1    3    3    0    0  0.84899826866E+02 -0.29846756964E+02  0.34069309439E+02  0.15781962948E+03  0.12509000000E+03 0.  0.
         25    1    4    4    0    0 -0.57904321833E+01  0.17328378362E+02  0.14329283272E+03  0.19108674944E+03  0.12509000000E+03 0.  0.
         25    1    4    4    0    0 -0.79109394683E+02  0.12518378602E+02  0.10909847523E+03  0.18429593465E+03  0.12509000000E+03 0.  0.
<mgrwt>
<rscale>  2 0.44971660E+03</rscale>
<asrwt>0</asrwt>
<pdfrwt beam="1">  1       21 0.60269333E-01 0.44971660E+03</pdfrwt>
<pdfrwt beam="2">  1       21 0.18142772E-01 0.44971660E+03</pdfrwt>
<totfact> 0.65694856E+04</totfact>
</mgrwt>
</event>
<event>
 7    0  0.4775379E-002  0.4531009E+03  0.7546771E-02  0.1026801E+00
         21   -1    0    0  502  501  0.00000000000E+00  0.00000000000E+00  0.34258530260E+03  0.34258530260E+03  0.00000000000E+00 0. -1.
         21   -1    0    0  501  502 -0.00000000000E+00 -0.00000000000E+00 -0.14981702433E+03  0.14981702433E+03  0.00000000000E+00 0. -1.
      99926    2    1    2    0    0  0.14210854715E-13  0.00000000000E+00  0.19276827826E+03  0.49240232693E+03  0.45310091863E+03 0.  0.
      99925    2    3    3    0    0  0.69777419664E+02 -0.53591237255E+02  0.47075559719E+02  0.28118020370E+03  0.26287884971E+03 0.  0.
         25    1    4    4    0    0  0.75710194509E-02 -0.44645239982E+02  0.11433298402E+02  0.13330951175E+03  0.12509000000E+03 0.  0.
         25    1    3    3    0    0 -0.69777419664E+02  0.53591237255E+02  0.14569271855E+03  0.21122212323E+03  0.12509000000E+03 0.  0.
         25    1    4    4    0    0  0.69769848644E+02 -0.89459972733E+01  0.35642261317E+02  0.14787069195E+03  0.12509000000E+03 0.  0.
<mgrwt>
<rscale>  2 0.45310092E+03</rscale>
<asrwt>0</asrwt>
<pdfrwt beam="1">  1       21 0.50380192E-01 0.45310092E+03</pdfrwt>
<pdfrwt beam="2">  1       21 0.22031915E-01 0.45310092E+03</pdfrwt>
<totfact> 0.66809337E+04</totfact>
</mgrwt>
</event>
<event>
 7    0  0.4775379E-002  0.3938184E+03  0.7546771E-02  0.1045941E+00
         21   -1    0    0  502  501  0.00000000000E+00  0.00000000000E+00  0.33618095784E+03  0.33618095784E+03  0.00000000000E+00 0. -1.
         21   -1    0    0  501  502 -0.00000000000E+00 -0.00000000000E+00 -0.11533438634E+03  0.11533438634E+03  0.00000000000E+00 0. -1.
      99926    2    1    2    0    0  0.00000000000E+00  0.35527136788E-14  0.22084657150E+03  0.45151534418E+03  0.39381835646E+03 0.  0.
      99925    2    3    3    0    0  0.37631395094E-01 -0.21303316716E+02  0.12228700152E+03  0.29084384810E+03  0.26302509484E+03 0.  0.
         25    1    3    3    0    0 -0.37631395094E-01  0.21303316716E+02  0.98559569976E+02  0.16067149608E+03  0.12509000000E+03 0.  0.
         25    1    4    4    0    0  0.64482529449E-01 -0.50676719154E+02  0.54358174167E+02  0.14550069835E+03  0.12509000000E+03 0.  0.
         25    1    4    4    0    0 -0.26851134355E-01  0.29373402437E+02  0.67928827353E+02  0.14534314974E+03  0.12509000000E+03 0.  0.
<mgrwt>
<rscale>  2 0.39381836E+03</rscale>
<asrwt>0</asrwt>
<pdfrwt beam="1">  1       21 0.49438376E-01 0.39381836E+03</pdfrwt>
<pdfrwt beam="2">  1       21 0.16960939E-01 0.39381836E+03</pdfrwt>
<totfact> 0.11553766E+05</totfact>
</mgrwt>
</event>
<event>
 7    0  0.4775379E-002  0.4599989E+03  0.7546771E-02  0.1024782E+00
         21   -1    0    0  502  501  0.00000000000E+00  0.00000000000E+00  0.32156821853E+03  0.32156821853E+03  0.00000000000E+00 0.  1.
         21   -1    0    0  501  502 -0.00000000000E+00 -0.00000000000E+00 -0.16450554510E+03  0.16450554510E+03  0.00000000000E+00 0.  1.
      99926    2    1    2    0    0  0.35527136788E-14 -0.14210854715E-13  0.15706267343E+03  0.48607376363E+03  0.45999893512E+03 0.  0.
      99925    2    3    3    0    0 -0.24208481556E+02  0.75706390411E+02  0.19023304026E+03  0.33420115431E+03  0.26302907407E+03 0.  0.
         25    1    3    3    0    0  0.24208481556E+02 -0.75706390411E+02 -0.33170366827E+02  0.15187260933E+03  0.12509000000E+03 0.  0.
         25    1    4    4    0    0 -0.13894839711E+02  0.77710448547E+02  0.11918448602E+03  0.18995902240E+03  0.12509000000E+03 0.  0.
         25    1    4    4    0    0 -0.10313641845E+02 -0.20040581364E+01  0.71048554239E+02  0.14424213191E+03  0.12509000000E+03 0.  0.
<mgrwt>
<rscale>  2 0.45999894E+03</rscale>
<asrwt>0</asrwt>
<pdfrwt beam="1">  1       21 0.47289444E-01 0.45999894E+03</pdfrwt>
<pdfrwt beam="2">  1       21 0.24191992E-01 0.45999894E+03</pdfrwt>
<totfact> 0.63695240E+04</totfact>
</mgrwt>
</event>
<event>
 7    0  0.4775379E-002  0.4581475E+03  0.7546771E-02  0.1025320E+00
         21   -1    0    0  502  501  0.00000000000E+00  0.00000000000E+00  0.19412093121E+02  0.19412093121E+02  0.00000000000E+00 0.  1.
         21   -1    0    0  501  502 -0.00000000000E+00 -0.00000000000E+00 -0.27032011777E+04  0.27032011777E+04  0.00000000000E+00 0.  1.
      99926    2    1    2    0    0  0.00000000000E+00 -0.14210854715E-13 -0.26837890846E+04  0.27226132708E+04  0.45814754385E+03 0.  0.
      99925    2    3    3    0    0  0.95594256367E+01  0.11552974949E+03 -0.16743020069E+04  0.16988212149E+04  0.26318777383E+03 0.  0.
         25    1    4    4    0    0 -0.13057264029E+02  0.17530321597E+02 -0.71811466739E+03  0.72925577677E+03  0.12509000000E+03 0.  0.
         25    1    3    3    0    0 -0.95594256367E+01 -0.11552974949E+03 -0.10094870776E+04  0.10237920559E+04  0.12509000000E+03 0.  0.
         25    1    4    4    0    0  0.22616689666E+02  0.97999427896E+02 -0.95618733954E+03  0.96956543818E+03  0.12509000000E+03 0.  0.
<mgrwt>
<rscale>  2 0.45814754E+03</rscale>
<asrwt>0</asrwt>
<pdfrwt beam="1">  1       21 0.28547195E-02 0.45814754E+03</pdfrwt>
<pdfrwt beam="2">  1       21 0.39752960E+00 0.45814754E+03</pdfrwt>
<totfact> 0.49887045E+03</totfact>
</mgrwt>
</event>
<event>
 7    0  0.4775379E-002  0.4552326E+03  0.7546771E-02  0.1026173E+00
         21   -1    0    0  502  501  0.00000000000E+00  0.00000000000E+00  0.11451063133E+03  0.11451063133E+03  0.00000000000E+00 0. -1.
         21   -1    0    0  501  502 -0.00000000000E+00 -0.00000000000E+00 -0.45243996505E+03  0.45243996505E+03  0.00000000000E+00 0. -1.
      99926    2    1    2    0    0  0.00000000000E+00 -0.35527136788E-14 -0.33792933372E+03  0.56695059638E+03  0.45523262641E+03 0.  0.
      99925    2    3    3    0    0 -0.10708592895E+03  0.25177160980E+02 -0.17864521729E+03  0.33647234695E+03  0.26305558536E+03 0.  0.
         25    1    4    4    0    0 -0.48066891860E+02  0.11428685941E+02 -0.13554533318E+03  0.19094786305E+03  0.12509000000E+03 0.  0.
         25    1    3    3    0    0  0.10708592895E+03 -0.25177160980E+02 -0.15928411643E+03  0.23047824943E+03  0.12509000000E+03 0.  0.
         25    1    4    4    0    0 -0.59019037090E+02  0.13748475039E+02 -0.43099884105E+02  0.14552448390E+03  0.12509000000E+03 0.  0.
<mgrwt>
<rscale>  2 0.45523263E+03</rscale>
<asrwt>0</asrwt>
<pdfrwt beam="1">  1       21 0.16839799E-01 0.45523263E+03</pdfrwt>
<pdfrwt beam="2">  1       21 0.66535289E-01 0.45523263E+03</pdfrwt>
<totfact> 0.60648452E+04</totfact>
</mgrwt>
</event>
<event>
 7    0  0.4775379E-002  0.4591709E+03  0.7546771E-02  0.1025022E+00
         21   -1    0    0  502  501  0.00000000000E+00  0.00000000000E+00  0.49298750960E+03  0.49298750960E+03  0.00000000000E+00 0.  1.
         21   -1    0    0  501  502 -0.00000000000E+00 -0.00000000000E+00 -0.10691848408E+03  0.10691848408E+03  0.00000000000E+00 0.  1.
      99926    2    1    2    0    0  0.71054273576E-14  0.00000000000E+00  0.38606902552E+03  0.59990599369E+03  0.45917089280E+03 0.  0.
      99925    2    3    3    0    0 -0.39645569507E+02  0.59075447803E+02  0.36399493083E+03  0.45431597524E+03  0.26239096016E+03 0.  0.
         25    1    4    4    0    0 -0.36259867727E+02  0.20452249749E+01  0.13796295907E+03  0.18973731085E+03  0.12509000000E+03 0.  0.
         25    1    3    3    0    0  0.39645569507E+02 -0.59075447803E+02  0.22074094689E+02  0.14559001845E+03  0.12509000000E+03 0.  0.
         25    1    4    4    0    0 -0.33857017798E+01  0.57030222829E+02  0.22603197176E+03  0.26457866439E+03  0.12509000000E+03 0.  0.
<mgrwt>
<rscale>  2 0.45917089E+03</rscale>
<asrwt>0</asrwt>
<pdfrwt beam="1">  1       21 0.72498162E-01 0.45917089E+03</pdfrwt>
<pdfrwt beam="2">  1       21 0.15723307E-01 0.45917089E+03</pdfrwt>
<totfact> 0.56789236E+04</totfact>
</mgrwt>
</event>
<event>
 6    0  0.4775379E-002  0.4583118E+03  0.7546771E-02  0.1025272E+00
         21   -1    0    0  502  501  0.00000000000E+00  0.00000000000E+00  0.17680943890E+04  0.17680943890E+04  0.00000000000E+00 0. -1.
         21   -1    0    0  501  502 -0.00000000000E+00 -0.00000000000E+00 -0.29700015594E+02  0.29700015594E+02  0.00000000000E+00 0. -1.
      99926    2    1    2    0    0  0.00000000000E+00  0.00000000000E+00  0.17383943734E+04  0.17977944046E+04  0.45831181929E+03 0.  0.
         25    1    3    3    0    0 -0.20801069657E+02  0.10050640023E+03  0.84227205788E+03  0.85767356760E+03  0.12509000000E+03 0.  0.
         25    1    3    3    0    0  0.25639053064E+02 -0.38218795477E+02  0.56836713336E+03  0.58378655668E+03  0.12509000000E+03 0.  0.
         25    1    3    3    0    0 -0.48379834071E+01 -0.62287604755E+02  0.32775518218E+03  0.35633428032E+03  0.12509000000E+03 0.  0.
<mgrwt>
<rscale>  2 0.45831182E+03</rscale>
<asrwt>0</asrwt>
<pdfrwt beam="1">  1       21 0.26001381E+00 0.45831182E+03</pdfrwt>
<pdfrwt beam="2">  1       21 0.43676506E-02 0.45831182E+03</pdfrwt>
<totfact> 0.16864090E+04</totfact>
</mgrwt>
</event>
<event>
 7    0  0.4775379E-002  0.4540178E+03  0.7546771E-02  0.1026531E+00
         21   -1    0    0  502  501  0.00000000000E+00  0.00000000000E+00  0.61550102167E+02  0.61550102167E+02  0.00000000000E+00 0.  1.
         21   -1    0    0  501  502 -0.00000000000E+00 -0.00000000000E+00 -0.83725342236E+03  0.83725342236E+03  0.00000000000E+00 0.  1.
      99926    2    1    2    0    0  0.14210854715E-13 -0.14210854715E-13 -0.77570332019E+03  0.89880352453E+03  0.45401776920E+03 0.  0.
      99925    2    3    3    0    0  0.74729727158E+02 -0.75915397332E+02 -0.41866617058E+03  0.50577589957E+03  0.26302132714E+03 0.  0.
         25    1    4    4    0    0  0.46854519091E+02 -0.43003478723E+02 -0.14491303402E+03  0.20172243472E+03  0.12509000000E+03 0.  0.
         25    1    4    4    0    0  0.27875208068E+02 -0.32911918609E+02 -0.27375313656E+03  0.30405346485E+03  0.12509000000E+03 0.  0.
         25    1    3    3    0    0 -0.74729727158E+02  0.75915397332E+02 -0.35703714961E+03  0.39302762495E+03  0.12509000000E+03 0.  0.
<mgrwt>
<rscale>  2 0.45401777E+03</rscale>
<asrwt>0</asrwt>
<pdfrwt beam="1">  1       21 0.90514849E-02 0.45401777E+03</pdfrwt>
<pdfrwt beam="2">  1       21 0.12312551E+00 0.45401777E+03</pdfrwt>
<totfact> 0.43619945E+04</totfact>
</mgrwt>
</event>
<event>
 7    0  0.4775379E-002  0.4643353E+03  0.7546771E-02  0.1023531E+00
         21   -1    0    0  502  501  0.00000000000E+00  0.00000000000E+00  0.60121566141E+03  0.60121566141E+03  0.00000000000E+00 0.  1.
         21   -1    0    0  501  502 -0.00000000000E+00 -0.00000000000E+00 -0.89654709030E+02  0.89654709030E+02  0.00000000000E+00 0.  1.
      99926    2    1    2    0    0  0.00000000000E+00  0.14210854715E-13  0.51156095238E+03  0.69087037043E+03  0.46433528915E+03 0.  0.
      99925    2    3    3    0    0  0.11102572459E+02  0.12070593827E+03  0.33816848150E+03  0.44509476606E+03  0.26278934195E+03 0.  0.
         25    1    3    3    0    0 -0.11102572459E+02 -0.12070593827E+03  0.17339247088E+03  0.24577560438E+03  0.12509000000E+03 0.  0.
         25    1    4    4    0    0  0.11048069579E+02  0.16803605457E+02  0.15356668788E+03  0.19908454667E+03  0.12509000000E+03 0.  0.
         25    1    4    4    0    0  0.54502879892E-01  0.10390233282E+03  0.18460179362E+03  0.24601021938E+03  0.12509000000E+03 0.  0.
<mgrwt>
<rscale>  2 0.46433529E+03</rscale>
<asrwt>0</asrwt>
<pdfrwt beam="1">  1       21 0.88414066E-01 0.46433529E+03</pdfrwt>
<pdfrwt beam="2">  1       21 0.13184516E-01 0.46433529E+03</pdfrwt>
<totfact> 0.49649633E+04</totfact>
</mgrwt>
</event>
<event>
 7    0  0.4775379E-002  0.4570882E+03  0.7546771E-02  0.1025629E+00
         21   -1    0    0  502  501  0.00000000000E+00  0.00000000000E+00  0.17004962477E+04  0.17004962477E+04  0.00000000000E+00 0. -1.
         21   -1    0    0  501  502 -0.00000000000E+00 -0.00000000000E+00 -0.30715979065E+02  0.30715979065E+02  0.00000000000E+00 0. -1.
      99926    2    1    2    0    0  0.00000000000E+00  0.35527136788E-14  0.16697802686E+04  0.17312122267E+04  0.45708820656E+03 0.  0.
      99925    2    3    3    0    0 -0.45780459185E+02 -0.13409513990E+02  0.65203158909E+03  0.70469600755E+03  0.26301255554E+03 0.  0.
         25    1    4    4    0    0 -0.24742160022E+01  0.22523408840E+02  0.26118873037E+03  0.29048319514E+03  0.12509000000E+03 0.  0.
         25    1    3    3    0    0  0.45780459185E+02  0.13409513990E+02  0.10177486795E+04  0.10265162192E+04  0.12509000000E+03 0.  0.
         25    1    4    4    0    0 -0.43306243183E+02 -0.35932922830E+02  0.39084285873E+03  0.41421281241E+03  0.12509000000E+03 0.  0.
<mgrwt>
<rscale>  2 0.45708821E+03</rscale>
<asrwt>0</asrwt>
<pdfrwt beam="1">  1       21 0.25007291E+00 0.45708821E+03</pdfrwt>
<pdfrwt beam="2">  1       21 0.45170569E-02 0.45708821E+03</pdfrwt>
<totfact> 0.18320628E+04</totfact>
</mgrwt>
</event>
<event>
 7    0  0.4775379E-002  0.4572605E+03  0.7546771E-02  0.1025579E+00
         21   -1    0    0  502  501  0.00000000000E+00  0.00000000000E+00  0.67793344272E+03  0.67793344272E+03  0.00000000000E+00 0. -1.
         21   -1    0    0  501  502 -0.00000000000E+00 -0.00000000000E+00 -0.77104591498E+02  0.77104591498E+02  0.00000000000E+00 0. -1.
      99926    2    1    2    0    0  0.00000000000E+00  0.71054273576E-14  0.60082885122E+03  0.75503803422E+03  0.45726045604E+03 0.  0.
      99925    2    3    3    0    0  0.60579921601E+02 -0.60869572080E+02  0.25081972265E+03  0.37355549217E+03  0.26316941454E+03 0.  0.
         25    1    4    4    0    0  0.33416534589E+02 -0.19007252583E+02  0.70970218772E+02  0.14886981053E+03  0.12509000000E+03 0.  0.
         25    1    4    4    0    0  0.27163387013E+02 -0.41862319497E+02  0.17984950388E+03  0.22468568164E+03  0.12509000000E+03 0.  0.
         25    1    3    3    0    0 -0.60579921601E+02  0.60869572080E+02  0.35000912857E+03  0.38148254205E+03  0.12509000000E+03 0.  0.
<mgrwt>
<rscale>  2 0.45726046E+03</rscale>
<asrwt>0</asrwt>
<pdfrwt beam="1">  1       21 0.99696091E-01 0.45726046E+03</pdfrwt>
<pdfrwt beam="2">  1       21 0.11338911E-01 0.45726046E+03</pdfrwt>
<totfact> 0.49135897E+04</totfact>
</mgrwt>
</event>
<event>
 7    0  0.4775379E-002  0.4566511E+03  0.7546771E-02  0.1025757E+00
         21   -1    0    0  502  501  0.00000000000E+00  0.00000000000E+00  0.29043688326E+03  0.29043688326E+03  0.00000000000E+00 0.  1.
         21   -1    0    0  501  502 -0.00000000000E+00 -0.00000000000E+00 -0.17949701260E+03  0.17949701260E+03  0.00000000000E+00 0.  1.
      99926    2    1    2    0    0  0.00000000000E+00 -0.71054273576E-14  0.11093987066E+03  0.46993389586E+03  0.45665108297E+03 0.  0.
      99925    2    3    3    0    0 -0.33028801003E+02 -0.55548076339E+02  0.16708022003E+03  0.31835639949E+03  0.26317010979E+03 0.  0.
         25    1    4    4    0    0 -0.27345331671E+02  0.12035608237E+02  0.83356546536E+02  0.15325940421E+03  0.12509000000E+03 0.  0.
         25    1    3    3    0    0  0.33028801003E+02  0.55548076339E+02 -0.56140349367E+02  0.15157749638E+03  0.12509000000E+03 0.  0.
         25    1    4    4    0    0 -0.56834693316E+01 -0.67583684576E+02  0.83723673493E+02  0.16509699527E+03  0.12509000000E+03 0.  0.
<mgrwt>
<rscale>  2 0.45665108E+03</rscale>
<asrwt>0</asrwt>
<pdfrwt beam="1">  1       21 0.42711306E-01 0.45665108E+03</pdfrwt>
<pdfrwt beam="2">  1       21 0.26396619E-01 0.45665108E+03</pdfrwt>
<totfact> 0.66564597E+04</totfact>
</mgrwt>
</event>
<event>
 7    0  0.4775379E-002  0.4559389E+03  0.7546771E-02  0.1025966E+00
         21   -1    0    0  502  501  0.00000000000E+00  0.00000000000E+00  0.72883767737E+03  0.72883767737E+03  0.00000000000E+00 0. -1.
         21   -1    0    0  501  502 -0.00000000000E+00 -0.00000000000E+00 -0.71305414655E+02  0.71305414655E+02  0.00000000000E+00 0. -1.
      99926    2    1    2    0    0  0.71054273576E-14  0.00000000000E+00  0.65753226272E+03  0.80014309203E+03  0.45593891170E+03 0.  0.
      99925    2    3    3    0    0  0.61028721096E+02 -0.12351532157E+02  0.24573386452E+03  0.36528392632E+03  0.26300218537E+03 0.  0.
         25    1    3    3    0    0 -0.61028721096E+02  0.12351532157E+02  0.41179839820E+03  0.43485916571E+03  0.12509000000E+03 0.  0.
         25    1    4    4    0    0  0.64968682828E+02  0.82179578325E+01  0.15280924902E+03  0.20805441419E+03  0.12509000000E+03 0.  0.
         25    1    4    4    0    0 -0.39399617318E+01 -0.20569489990E+02  0.92924615501E+02  0.15722951212E+03  0.12509000000E+03 0.  0.
<mgrwt>
<rscale>  2 0.45593891E+03</rscale>
<asrwt>0</asrwt>
<pdfrwt beam="1">  1       21 0.10718201E+00 0.45593891E+03</pdfrwt>
<pdfrwt beam="2">  1       21 0.10486091E-01 0.45593891E+03</pdfrwt>
<totfact> 0.47407604E+04</totfact>
</mgrwt>
</event>
<event>
 7    0  0.4775379E-002  0.4559443E+03  0.7546771E-02  0.1025964E+00
         21   -1    0    0  502  501  0.00000000000E+00  0.00000000000E+00  0.59682394657E+02  0.59682394657E+02  0.00000000000E+00 0. -1.
         21   -1    0    0  501  502 -0.00000000000E+00 -0.00000000000E+00 -0.87079802501E+03  0.87079802501E+03  0.00000000000E+00 0. -1.
      99926    2    1    2    0    0  0.14210854715E-13  0.14210854715E-13 -0.81111563035E+03  0.93048041967E+03  0.45594434483E+03 0.  0.
      99925    2    3    3    0    0  0.67940625843E+02 -0.68774132036E+02 -0.63339253969E+03  0.69261740251E+03  0.26303411764E+03 0.  0.
         25    1    4    4    0    0  0.25574047103E+02  0.62774237978E+01 -0.31014329655E+03  0.33545463244E+03  0.12509000000E+03 0.  0.
         25    1    3    3    0    0 -0.67940625843E+02  0.68774132036E+02 -0.17772309066E+03  0.23786301716E+03  0.12509000000E+03 0.  0.
         25    1    4    4    0    0  0.42366578740E+02 -0.75051555834E+02 -0.32324924314E+03  0.35716277006E+03  0.12509000000E+03 0.  0.
<mgrwt>
<rscale>  2 0.45594434E+03</rscale>
<asrwt>0</asrwt>
<pdfrwt beam="1">  1       21 0.87768235E-02 0.45594434E+03</pdfrwt>
<pdfrwt beam="2">  1       21 0.12805852E+00 0.45594434E+03</pdfrwt>
<totfact> 0.41633150E+04</totfact>
</mgrwt>
</event>
<event>
 7    0  0.4775379E-002  0.4561251E+03  0.7546771E-02  0.1025911E+00
         21   -1    0    0  502  501  0.00000000000E+00  0.00000000000E+00  0.38318303996E+02  0.38318303996E+02  0.00000000000E+00 0.  1.
         21   -1    0    0  501  502 -0.00000000000E+00 -0.00000000000E+00 -0.13573806853E+04  0.13573806853E+04  0.00000000000E+00 0.  1.
      99926    2    1    2    0    0  0.00000000000E+00  0.00000000000E+00 -0.13190623813E+04  0.13956989893E+04  0.45612509573E+03 0.  0.
      99925    2    3    3    0    0  0.80955593256E+02  0.40653201906E+02 -0.61651046337E+03  0.67637069401E+03  0.26303169651E+03 0.  0.
         25    1    3    3    0    0 -0.80955593256E+02 -0.40653201906E+02 -0.70255191797E+03  0.71932829532E+03  0.12509000000E+03 0.  0.
         25    1    4    4    0    0  0.21428373017E+02  0.32512838990E+02 -0.21740751076E+03  0.25383024584E+03  0.12509000000E+03 0.  0.
         25    1    4    4    0    0  0.59527220239E+02  0.81403629156E+01 -0.39910295261E+03  0.42254044817E+03  0.12509000000E+03 0.  0.
<mgrwt>
<rscale>  2 0.45612510E+03</rscale>
<asrwt>0</asrwt>
<pdfrwt beam="1">  1       21 0.56350439E-02 0.45612510E+03</pdfrwt>
<pdfrwt beam="2">  1       21 0.19961484E+00 0.45612510E+03</pdfrwt>
<totfact> 0.26216855E+04</totfact>
</mgrwt>
</event>
<event>
 7    0  0.4775379E-002  0.4628107E+03  0.7546771E-02  0.1023969E+00
         21   -1    0    0  502  501  0.00000000000E+00  0.00000000000E+00  0.85641907002E+03  0.85641907002E+03  0.00000000000E+00 0. -1.
         21   -1    0    0  501  502 -0.00000000000E+00 -0.00000000000E+00 -0.62525983140E+02  0.62525983140E+02  0.00000000000E+00 0. -1.
      99926    2    1    2    0    0 -0.14210854715E-13  0.00000000000E+00  0.79389308688E+03  0.91894505316E+03  0.46281073597E+03 0.  0.
      99925    2    3    3    0    0 -0.11809625435E+03 -0.22978454686E+02  0.50294047786E+03  0.58015948165E+03  0.26298510452E+03 0.  0.
         25    1    4    4    0    0 -0.48004677701E+02  0.32228738556E+01  0.31493719272E+03  0.34226857796E+03  0.12509000000E+03 0.  0.
         25    1    4    4    0    0 -0.70091576650E+02 -0.26201328542E+02  0.18800328514E+03  0.23789090369E+03  0.12509000000E+03 0.  0.
         25    1    3    3    0    0  0.11809625435E+03  0.22978454686E+02  0.29095260901E+03  0.33878557151E+03  0.12509000000E+03 0.  0.
<mgrwt>
<rscale>  2 0.46281074E+03</rscale>
<asrwt>0</asrwt>
<pdfrwt beam="1">  1       21 0.12594397E+00 0.46281074E+03</pdfrwt>
<pdfrwt beam="2">  1       21 0.91949981E-02 0.46281074E+03</pdfrwt>
<totfact> 0.39927184E+04</totfact>
</mgrwt>
</event>
<event>
 7    0  0.4775379E-002  0.4572005E+03  0.7546771E-02  0.1025596E+00
         21   -1    0    0  502  501  0.00000000000E+00  0.00000000000E+00  0.17445172796E+03  0.17445172796E+03  0.00000000000E+00 0.  1.
         21   -1    0    0  501  502 -0.00000000000E+00 -0.00000000000E+00 -0.29955608184E+03  0.29955608184E+03  0.00000000000E+00 0.  1.
      99926    2    1    2    0    0  0.00000000000E+00  0.71054273576E-14 -0.12510435388E+03  0.47400780979E+03  0.45720050786E+03 0.  0.
      99925    2    3    3    0    0  0.24118671437E+02  0.49180142800E+02 -0.18375798940E+03  0.32538697068E+03  0.26288644937E+03 0.  0.
         25    1    4    4    0    0  0.17564560687E+01 -0.11001135188E+02 -0.65370342454E+02  0.14158001231E+03  0.12509000000E+03 0.  0.
         25    1    4    4    0    0  0.22362215368E+02  0.60181277988E+02 -0.11838764695E+03  0.18380695837E+03  0.12509000000E+03 0.  0.
         25    1    3    3    0    0 -0.24118671437E+02 -0.49180142800E+02  0.58653635519E+02  0.14862083911E+03  0.12509000000E+03 0.  0.
<mgrwt>
<rscale>  2 0.45720051E+03</rscale>
<asrwt>0</asrwt>
<pdfrwt beam="1">  1       21 0.25654666E-01 0.45720051E+03</pdfrwt>
<pdfrwt beam="2">  1       21 0.44052365E-01 0.45720051E+03</pdfrwt>
<totfact> 0.65979402E+04</totfact>
</mgrwt>
</event>
<event>
 7    0  0.4775379E-002  0.4512344E+03  0.7546771E-02  0.1027355E+00
         21   -1    0    0  502  501  0.00000000000E+00  0.00000000000E+00  0.21415462915E+03  0.21415462915E+03  0.00000000000E+00 0.  1.
         21   -1    0    0  501  502 -0.00000000000E+00 -0.00000000000E+00 -0.23769334875E+03  0.23769334875E+03  0.00000000000E+00 0.  1.
      99926    2    1    2    0    0  0.14210854715E-13 -0.88817841970E-15 -0.23538719603E+02  0.45184797790E+03  0.45123444440E+03 0.  0.
      99925    2    3    3    0    0 -0.81051993052E+02  0.11475530502E+01  0.59017503017E+02  0.28145496030E+03  0.26298875747E+03 0.  0.
         25    1    4    4    0    0 -0.82106461523E+02  0.69519774971E+01  0.27101946899E+02  0.15222294387E+03  0.12509000000E+03 0.  0.
         25    1    4    4    0    0  0.10544684711E+01 -0.58044244469E+01  0.31915556117E+02  0.12923201642E+03  0.12509000000E+03 0.  0.
         25    1    3    3    0    0  0.81051993052E+02 -0.11475530502E+01 -0.82556222619E+02  0.17039301761E+03  0.12509000000E+03 0.  0.
<mgrwt>
<rscale>  2 0.45123444E+03</rscale>
<asrwt>0</asrwt>
<pdfrwt beam="1">  1       21 0.31493328E-01 0.45123444E+03</pdfrwt>
<pdfrwt beam="2">  1       21 0.34954904E-01 0.45123444E+03</pdfrwt>
<totfact> 0.70883208E+04</totfact>
</mgrwt>
</event>
<event>
 7    0  0.4775379E-002  0.4479772E+03  0.7546771E-02  0.1028327E+00
         21   -1    0    0  502  501  0.00000000000E+00  0.00000000000E+00  0.71132847977E+03  0.71132847977E+03  0.00000000000E+00 0.  1.
         21   -1    0    0  501  502 -0.00000000000E+00 -0.00000000000E+00 -0.70531243675E+02  0.70531243675E+02  0.00000000000E+00 0.  1.
      99926    2    1    2    0    0  0.00000000000E+00  0.35527136788E-14  0.64079723610E+03  0.78185972345E+03  0.44797715272E+03 0.  0.
      99925    2    3    3    0    0 -0.10159354526E+03 -0.20480311125E+02  0.44879424576E+03  0.53035754059E+03  0.26291092456E+03 0.  0.
         25    1    3    3    0    0  0.10159354526E+03  0.20480311125E+02  0.19200299034E+03  0.25150218286E+03  0.12509000000E+03 0.  0.
         25    1    4    4    0    0 -0.15354259384E+02 -0.30453485527E+02  0.22482319687E+03  0.25953062635E+03  0.12509000000E+03 0.  0.
         25    1    4    4    0    0 -0.86239285880E+02  0.99731744018E+01  0.22397104888E+03  0.27082691424E+03  0.12509000000E+03 0.  0.
<mgrwt>
<rscale>  2 0.44797715E+03</rscale>
<asrwt>0</asrwt>
<pdfrwt beam="1">  1       21 0.10460713E+00 0.44797715E+03</pdfrwt>
<pdfrwt beam="2">  1       21 0.10372242E-01 0.44797715E+03</pdfrwt>
<totfact> 0.51431815E+04</totfact>
</mgrwt>
</event>
<event>
 7    0  0.4775379E-002  0.4414778E+03  0.7546771E-02  0.1030294E+00
         21   -1    0    0  502  501  0.00000000000E+00  0.00000000000E+00  0.19116956798E+03  0.19116956798E+03  0.00000000000E+00 0. -1.
         21   -1    0    0  501  502 -0.00000000000E+00 -0.00000000000E+00 -0.25488192636E+03  0.25488192636E+03  0.00000000000E+00 0. -1.
      99926    2    1    2    0    0 -0.14210854715E-13 -0.17763568394E-14 -0.63712358371E+02  0.44605149434E+03  0.44147782616E+03 0.  0.
      99925    2    3    3    0    0  0.87842056829E+02  0.13470033381E+02 -0.86889356034E+02  0.29086660439E+03  0.26297519391E+03 0.  0.
         25    1    4    4    0    0  0.12102592954E+02  0.25912291120E+02 -0.60041685847E+02  0.14167015115E+03  0.12509000000E+03 0.  0.
         25    1    4    4    0    0  0.75739463875E+02 -0.12442257739E+02 -0.26847670187E+02  0.14919645324E+03  0.12509000000E+03 0.  0.
         25    1    3    3    0    0 -0.87842056829E+02 -0.13470033381E+02  0.23176997663E+02  0.15518488995E+03  0.12509000000E+03 0.  0.
<mgrwt>
<rscale>  2 0.44147783E+03</rscale>
<asrwt>0</asrwt>
<pdfrwt beam="1">  1       21 0.28113172E-01 0.44147783E+03</pdfrwt>
<pdfrwt beam="2">  1       21 0.37482636E-01 0.44147783E+03</pdfrwt>
<totfact> 0.77204778E+04</totfact>
</mgrwt>
</event>
<event>
 7    0  0.4775379E-002  0.4519031E+03  0.7546771E-02  0.1027156E+00
         21   -1    0    0  502  501  0.00000000000E+00  0.00000000000E+00  0.53983914925E+03  0.53983914925E+03  0.00000000000E+00 0.  1.
         21   -1    0    0  501  502 -0.00000000000E+00 -0.00000000000E+00 -0.94572796373E+02  0.94572796373E+02  0.00000000000E+00 0.  1.
      99926    2    1    2    0    0  0.00000000000E+00  0.00000000000E+00  0.44526635288E+03  0.63441194563E+03  0.45190307782E+03 0.  0.
      99925    2    3    3    0    0 -0.69906342749E+02 -0.36297507084E+02  0.17281042786E+03  0.32443751933E+03  0.26304344545E+03 0.  0.
         25    1    4    4    0    0 -0.33372436193E+02 -0.26834587363E+02  0.40011555260E+02  0.13813850741E+03  0.12509000000E+03 0.  0.
         25    1    3    3    0    0  0.69906342749E+02  0.36297507084E+02  0.27245592502E+03  0.30997442630E+03  0.12509000000E+03 0.  0.
         25    1    4    4    0    0 -0.36533906556E+02 -0.94629197206E+01  0.13279887260E+03  0.18629901192E+03  0.12509000000E+03 0.  0.
<mgrwt>
<rscale>  2 0.45190308E+03</rscale>
<asrwt>0</asrwt>
<pdfrwt beam="1">  1       21 0.79388109E-01 0.45190308E+03</pdfrwt>
<pdfrwt beam="2">  1       21 0.13907764E-01 0.45190308E+03</pdfrwt>
<totfact> 0.58013668E+04</totfact>
</mgrwt>
</event>
<event>
 7    0  0.4775379E-002  0.4560580E+03  0.7546771E-02  0.1025931E+00
         21   -1    0    0  502  501  0.00000000000E+00  0.00000000000E+00  0.24791306145E+03  0.24791306145E+03  0.00000000000E+00 0.  1.
         21   -1    0    0  501  502 -0.00000000000E+00 -0.00000000000E+00 -0.20973979286E+03  0.20973979286E+03  0.00000000000E+00 0.  1.
      99926    2    1    2    0    0  0.00000000000E+00  0.00000000000E+00  0.38173268593E+02  0.45765285431E+03  0.45605804085E+03 0.  0.
      99925    2    3    3    0    0 -0.47117924177E+02  0.93524612317E+02  0.70005472299E+02  0.29143688281E+03  0.26280741737E+03 0.  0.
         25    1    4    4    0    0  0.12675203533E+02  0.27939877779E+02  0.21541598277E+02  0.13058654644E+03  0.12509000000E+03 0.  0.
         25    1    3    3    0    0  0.47117924177E+02 -0.93524612317E+02 -0.31832203705E+02  0.16621597150E+03  0.12509000000E+03 0.  0.
         25    1    4    4    0    0 -0.59793127710E+02  0.65584734538E+02  0.48463874022E+02  0.16085033637E+03  0.12509000000E+03 0.  0.
<mgrwt>
<rscale>  2 0.45605804E+03</rscale>
<asrwt>0</asrwt>
<pdfrwt beam="1">  1       21 0.36457803E-01 0.45605804E+03</pdfrwt>
<pdfrwt beam="2">  1       21 0.30844087E-01 0.45605804E+03</pdfrwt>
<totfact> 0.67777935E+04</totfact>
</mgrwt>
</event>
<event>
 7    0  0.4775379E-002  0.4587749E+03  0.7546771E-02  0.1025137E+00
         21   -1    0    0  502  501  0.00000000000E+00  0.00000000000E+00  0.13735893498E+03  0.13735893498E+03  0.00000000000E+00 0. -1.
         21   -1    0    0  501  502 -0.00000000000E+00 -0.00000000000E+00 -0.38307369359E+03  0.38307369359E+03  0.00000000000E+00 0. -1.
      99926    2    1    2    0    0  0.35527136788E-14  0.00000000000E+00 -0.24571475861E+03  0.52043262857E+03  0.45877486666E+03 0.  0.
      99925    2    3    3    0    0 -0.17270850785E+02  0.10534735804E+03 -0.10071119651E+03  0.30118416391E+03  0.26300723822E+03 0.  0.
         25    1    4    4    0    0 -0.47759189046E+02  0.45509612099E+02 -0.41782900374E+02  0.14746316081E+03  0.12509000000E+03 0.  0.
         25    1    3    3    0    0  0.17270850785E+02 -0.10534735804E+03 -0.14500356210E+03  0.21924846466E+03  0.12509000000E+03 0.  0.
         25    1    4    4    0    0  0.30488338261E+02  0.59837745939E+02 -0.58928296136E+02  0.15372100310E+03  0.12509000000E+03 0.  0.
<mgrwt>
<rscale>  2 0.45877487E+03</rscale>
<asrwt>0</asrwt>
<pdfrwt beam="1">  1       21 0.20199844E-01 0.45877487E+03</pdfrwt>
<pdfrwt beam="2">  1       21 0.56334366E-01 0.45877487E+03</pdfrwt>
<totfact> 0.61980532E+04</totfact>
</mgrwt>
</event>
<event>
 7    0  0.4775379E-002  0.4683235E+03  0.7546771E-02  0.1022394E+00
         21   -1    0    0  502  501  0.00000000000E+00  0.00000000000E+00  0.80116056319E+03  0.80116056319E+03  0.00000000000E+00 0.  1.
         21   -1    0    0  501  502 -0.00000000000E+00 -0.00000000000E+00 -0.68440372858E+02  0.68440372858E+02  0.00000000000E+00 0.  1.
      99926    2    1    2    0    0  0.14210854715E-13  0.00000000000E+00  0.73272019033E+03  0.86960093605E+03  0.46832351068E+03 0.  0.
      99925    2    3    3    0    0  0.11569786548E+03 -0.81339736892E+01  0.54306734719E+03  0.61451689771E+03  0.26316670835E+03 0.  0.
         25    1    4    4    0    0  0.18811646212E+02 -0.14376423488E+02  0.20705626074E+03  0.24306452394E+03  0.12509000000E+03 0.  0.
         25    1    3    3    0    0 -0.11569786548E+03  0.81339736892E+01  0.18965284314E+03  0.25508403834E+03  0.12509000000E+03 0.  0.
         25    1    4    4    0    0  0.96886219265E+02  0.62424497990E+01  0.33601108644E+03  0.37145237377E+03  0.12509000000E+03 0.  0.
<mgrwt>
<rscale>  2 0.46832351E+03</rscale>
<asrwt>0</asrwt>
<pdfrwt beam="1">  1       21 0.11781772E+00 0.46832351E+03</pdfrwt>
<pdfrwt beam="2">  1       21 0.10064761E-01 0.46832351E+03</pdfrwt>
<totfact> 0.40205876E+04</totfact>
</mgrwt>
</event>
<event>
 7    0  0.4775379E-002  0.4565408E+03  0.7546771E-02  0.1025789E+00
         21   -1    0    0  502  501  0.00000000000E+00  0.00000000000E+00  0.21938992983E+04  0.21938992983E+04  0.00000000000E+00 0. -1.
         21   -1    0    0  501  502 -0.00000000000E+00 -0.00000000000E+00 -0.23751031366E+02  0.23751031366E+02  0.00000000000E+00 0. -1.
      99926    2    1    2    0    0  0.00000000000E+00  0.00000000000E+00  0.21701482670E+04  0.22176503297E+04  0.45654078043E+03 0.  0.
      99925    2    3    3    0    0 -0.10308662331E+03  0.28001404702E+02  0.11622051454E+04  0.11963728086E+04  0.26301362460E+03 0.  0.
         25    1    3    3    0    0  0.10308662331E+03 -0.28001404702E+02  0.10079431216E+04  0.10212775210E+04  0.12509000000E+03 0.  0.
         25    1    4    4    0    0 -0.61746388602E+02  0.18470000970E+02  0.76344137477E+03  0.77630148670E+03  0.12509000000E+03 0.  0.
         25    1    4    4    0    0 -0.41340234711E+02  0.95314037320E+01  0.39876377061E+03  0.42007132194E+03  0.12509000000E+03 0.  0.
<mgrwt>
<rscale>  2 0.45654078E+03</rscale>
<asrwt>0</asrwt>
<pdfrwt beam="1">  1       21 0.32263211E+00 0.45654078E+03</pdfrwt>
<pdfrwt beam="2">  1       21 0.34928002E-02 0.45654078E+03</pdfrwt>
<totfact> 0.10346410E+04</totfact>
</mgrwt>
</event>
<event>
 7    0  0.4775379E-002  0.4565604E+03  0.7546771E-02  0.1025784E+00
         21   -1    0    0  502  501  0.00000000000E+00  0.00000000000E+00  0.71268837536E+03  0.71268837536E+03  0.00000000000E+00 0.  1.
         21   -1    0    0  501  502 -0.00000000000E+00 -0.00000000000E+00 -0.73120091520E+02  0.73120091520E+02  0.00000000000E+00 0.  1.
      99926    2    1    2    0    0  0.00000000000E+00  0.00000000000E+00  0.63956828384E+03  0.78580846688E+03  0.45656035409E+03 0.  0.
      99925    2    3    3    0    0  0.50155541682E+02 -0.96463822392E+02  0.33947133171E+03  0.44298703206E+03  0.26301307597E+03 0.  0.
         25    1    4    4    0    0  0.45252848989E+02 -0.87044377002E+02  0.18421565474E+03  0.24332582982E+03  0.12509000000E+03 0.  0.
         25    1    3    3    0    0 -0.50155541682E+02  0.96463822392E+02  0.30009695213E+03  0.34282143482E+03  0.12509000000E+03 0.  0.
         25    1    4    4    0    0  0.49026926930E+01 -0.94194453901E+01  0.15525567697E+03  0.19966120224E+03  0.12509000000E+03 0.  0.
<mgrwt>
<rscale>  2 0.45656035E+03</rscale>
<asrwt>0</asrwt>
<pdfrwt beam="1">  1       21 0.10480711E+00 0.45656035E+03</pdfrwt>
<pdfrwt beam="2">  1       21 0.10752955E-01 0.45656035E+03</pdfrwt>
<totfact> 0.47869980E+04</totfact>
</mgrwt>
</event>
<event>
 7    0  0.4775379E-002  0.4519594E+03  0.7546771E-02  0.1027139E+00
         21   -1    0    0  502  501  0.00000000000E+00  0.00000000000E+00  0.63327540536E+03  0.63327540536E+03  0.00000000000E+00 0. -1.
         21   -1    0    0  501  502 -0.00000000000E+00 -0.00000000000E+00 -0.80639187946E+02  0.80639187946E+02  0.00000000000E+00 0. -1.
      99926    2    1    2    0    0  0.00000000000E+00  0.00000000000E+00  0.55263621741E+03  0.71391459330E+03  0.45195935408E+03 0.  0.
      99925    2    3    3    0    0  0.17667135069E+02  0.95579843412E+02  0.42937933050E+03  0.51319737332E+03  0.26373718052E+03 0.  0.
         25    1    4    4    0    0 -0.16118959102E+02  0.29655046827E+02  0.14963755319E+03  0.19793470658E+03  0.12509000000E+03 0.  0.
         25    1    3    3    0    0 -0.17667135069E+02 -0.95579843412E+02  0.12325688691E+03  0.20071721998E+03  0.12509000000E+03 0.  0.
         25    1    4    4    0    0  0.33786094171E+02  0.65924796584E+02  0.27974177732E+03  0.31526266674E+03  0.12509000000E+03 0.  0.
<mgrwt>
<rscale>  2 0.45195935E+03</rscale>
<asrwt>0</asrwt>
<pdfrwt beam="1">  1       21 0.93128733E-01 0.45195935E+03</pdfrwt>
<pdfrwt beam="2">  1       21 0.11858704E-01 0.45195935E+03</pdfrwt>
<totfact> 0.53420415E+04</totfact>
</mgrwt>
</event>
<event>
 7    0  0.4775379E-002  0.4541705E+03  0.7546771E-02  0.1026486E+00
         21   -1    0    0  502  501  0.00000000000E+00  0.00000000000E+00  0.75777414535E+02  0.75777414535E+02  0.00000000000E+00 0. -1.
         21   -1    0    0  501  502 -0.00000000000E+00 -0.00000000000E+00 -0.68051545653E+03  0.68051545653E+03  0.00000000000E+00 0. -1.
      99926    2    1    2    0    0  0.00000000000E+00  0.71054273576E-14 -0.60473804199E+03  0.75629287106E+03  0.45417046071E+03 0.  0.
      99925    2    3    3    0    0 -0.65963020879E+02 -0.46856901630E+02 -0.25097962303E+03  0.37244496310E+03  0.26301671052E+03 0.  0.
         25    1    3    3    0    0  0.65963020879E+02  0.46856901630E+02 -0.35375841897E+03  0.38384790796E+03  0.12509000000E+03 0.  0.
         25    1    4    4    0    0 -0.14857962952E+02 -0.39422908339E+02 -0.79836540537E+02  0.15426051364E+03  0.12509000000E+03 0.  0.
         25    1    4    4    0    0 -0.51105057927E+02 -0.74339932909E+01 -0.17114308249E+03  0.21818444946E+03  0.12509000000E+03 0.  0.
<mgrwt>
<rscale>  2 0.45417046E+03</rscale>
<asrwt>0</asrwt>
<pdfrwt beam="1">  1       21 0.11143738E-01 0.45417046E+03</pdfrwt>
<pdfrwt beam="2">  1       21 0.10007580E+00 0.45417046E+03</pdfrwt>
<totfact> 0.50277467E+04</totfact>
</mgrwt>
</event>
<event>
 7    0  0.4775379E-002  0.4477159E+03  0.7546771E-02  0.1028405E+00
         21   -1    0    0  502  501  0.00000000000E+00  0.00000000000E+00  0.70182976719E+02  0.70182976719E+02  0.00000000000E+00 0.  1.
         21   -1    0    0  501  502 -0.00000000000E+00 -0.00000000000E+00 -0.71402466941E+03  0.71402466941E+03  0.00000000000E+00 0.  1.
      99926    2    1    2    0    0 -0.17763568394E-14  0.00000000000E+00 -0.64384169269E+03  0.78420764613E+03  0.44771587754E+03 0.  0.
      99925    2    3    3    0    0 -0.12958907489E+02  0.34535263402E+02 -0.58232979115E+03  0.64001388817E+03  0.26296230471E+03 0.  0.
         25    1    4    4    0    0 -0.22996242671E+02 -0.15338248296E+02 -0.24081173316E+03  0.27276709473E+03  0.12509000000E+03 0.  0.
         25    1    3    3    0    0  0.12958907489E+02 -0.34535263402E+02 -0.61511901542E+02  0.14419375795E+03  0.12509000000E+03 0.  0.
         25    1    4    4    0    0  0.10037335182E+02  0.49873511698E+02 -0.34151805798E+03  0.36724679344E+03  0.12509000000E+03 0.  0.
<mgrwt>
<rscale>  2 0.44771588E+03</rscale>
<asrwt>0</asrwt>
<pdfrwt beam="1">  1       21 0.10321026E-01 0.44771588E+03</pdfrwt>
<pdfrwt beam="2">  1       21 0.10500363E+00 0.44771588E+03</pdfrwt>
<totfact> 0.51415322E+04</totfact>
</mgrwt>
</event>
<event>
 7    0  0.4775379E-002  0.4337104E+03  0.7546771E-02  0.1032694E+00
         21   -1    0    0  502  501  0.00000000000E+00  0.00000000000E+00  0.40071690101E+02  0.40071690101E+02  0.00000000000E+00 0.  1.
         21   -1    0    0  501  502 -0.00000000000E+00 -0.00000000000E+00 -0.11735511758E+04  0.11735511758E+04  0.00000000000E+00 0.  1.
      99926    2    1    2    0    0  0.71054273576E-14  0.00000000000E+00 -0.11334794857E+04  0.12136228659E+04  0.43371040584E+03 0.  0.
      99925    2    3    3    0    0 -0.32149264980E+02  0.30160027553E+02 -0.50251879046E+03  0.56887321717E+03  0.26296083349E+03 0.  0.
         25    1    4    4    0    0 -0.23130887274E+02  0.50237898510E+02 -0.30178632092E+03  0.33133272701E+03  0.12509000000E+03 0.  0.
         25    1    4    4    0    0 -0.90183777060E+01 -0.20077870958E+02 -0.20073246954E+03  0.23754049016E+03  0.12509000000E+03 0.  0.
         25    1    3    3    0    0  0.32149264980E+02 -0.30160027553E+02 -0.63096069524E+03  0.64474964873E+03  0.12509000000E+03 0.  0.
<mgrwt>
<rscale>  2 0.43371041E+03</rscale>
<asrwt>0</asrwt>
<pdfrwt beam="1">  1       21 0.58928963E-02 0.43371041E+03</pdfrwt>
<pdfrwt beam="2">  1       21 0.17258103E+00 0.43371041E+03</pdfrwt>
<totfact> 0.37581699E+04</totfact>
</mgrwt>
</event>
<event>
 7    0  0.4775379E-002  0.4584077E+03  0.7546771E-02  0.1025244E+00
         21   -1    0    0  502  501  0.00000000000E+00  0.00000000000E+00  0.15004995182E+03  0.15004995182E+03  0.00000000000E+00 0.  1.
         21   -1    0    0  501  502 -0.00000000000E+00 -0.00000000000E+00 -0.35011283029E+03  0.35011283029E+03  0.00000000000E+00 0.  1.
      99926    2    1    2    0    0  0.35527136788E-14  0.00000000000E+00 -0.20006287846E+03  0.50016278211E+03  0.45840773692E+03 0.  0.
      99925    2    3    3    0    0  0.29850968300E+02  0.98953845503E+02 -0.18397486511E+03  0.33710059728E+03  0.26288232700E+03 0.  0.
         25    1    4    4    0    0  0.67163194375E+01  0.25143018164E+02 -0.12468701487E+03  0.17852630083E+03  0.12509000000E+03 0.  0.
         25    1    3    3    0    0 -0.29850968300E+02 -0.98953845503E+02 -0.16088013358E+02  0.16306218483E+03  0.12509000000E+03 0.  0.
         25    1    4    4    0    0  0.23134648863E+02  0.73810827339E+02 -0.59287850235E+02  0.15857429645E+03  0.12509000000E+03 0.  0.
<mgrwt>
<rscale>  2 0.45840774E+03</rscale>
<asrwt>0</asrwt>
<pdfrwt beam="1">  1       21 0.22066169E-01 0.45840774E+03</pdfrwt>
<pdfrwt beam="2">  1       21 0.51487181E-01 0.45840774E+03</pdfrwt>
<totfact> 0.63523356E+04</totfact>
</mgrwt>
</event>
<event>
 7    0  0.4775379E-002  0.4261251E+03  0.7546771E-02  0.1035091E+00
         21   -1    0    0  502  501  0.00000000000E+00  0.00000000000E+00  0.47514784774E+03  0.47514784774E+03  0.00000000000E+00 0.  1.
         21   -1    0    0  501  502 -0.00000000000E+00 -0.00000000000E+00 -0.95540048228E+02  0.95540048228E+02  0.00000000000E+00 0.  1.
      99926    2    1    2    0    0  0.00000000000E+00  0.00000000000E+00  0.37960779951E+03  0.57068789597E+03  0.42612509097E+03 0.  0.
      99925    2    3    3    0    0  0.18291533674E+02 -0.13315679767E+02  0.13840441581E+03  0.29803707909E+03  0.26297990544E+03 0.  0.
         25    1    4    4    0    0 -0.14585796693E+02 -0.35171672507E+02  0.50681368433E+02  0.14023516399E+03  0.12509000000E+03 0.  0.
         25    1    3    3    0    0 -0.18291533674E+02  0.13315679767E+02  0.24120338370E+03  0.27265081687E+03  0.12509000000E+03 0.  0.
         25    1    4    4    0    0  0.32877330367E+02  0.21855992740E+02  0.87723047374E+02  0.15780191511E+03  0.12509000000E+03 0.  0.
<mgrwt>
<rscale>  2 0.42612509E+03</rscale>
<asrwt>0</asrwt>
<pdfrwt beam="1">  1       21 0.69874683E-01 0.42612509E+03</pdfrwt>
<pdfrwt beam="2">  1       21 0.14050007E-01 0.42612509E+03</pdfrwt>
<totfact> 0.76558681E+04</totfact>
</mgrwt>
</event>
<event>
 7    0  0.4775379E-002  0.4604066E+03  0.7546771E-02  0.1024663E+00
         21   -1    0    0  502  501  0.00000000000E+00  0.00000000000E+00  0.39959721749E+03  0.39959721749E+03  0.00000000000E+00 0. -1.
         21   -1    0    0  501  502 -0.00000000000E+00 -0.00000000000E+00 -0.13261744447E+03  0.13261744447E+03  0.00000000000E+00 0. -1.
      99926    2    1    2    0    0  0.00000000000E+00  0.17763568394E-14  0.26697977302E+03  0.53221466197E+03  0.46040661074E+03 0.  0.
      99925    2    3    3    0    0  0.88758438825E+02  0.52202037308E+01  0.25716517277E+03  0.37843187532E+03  0.26300465240E+03 0.  0.
         25    1    4    4    0    0  0.51926578263E+02  0.39680051117E+02  0.11106777636E+03  0.17959519769E+03  0.12509000000E+03 0.  0.
         25    1    3    3    0    0 -0.88758438825E+02 -0.52202037308E+01  0.98146002473E+01  0.15378278664E+03  0.12509000000E+03 0.  0.
         25    1    4    4    0    0  0.36831860561E+02 -0.34459847386E+02  0.14609739642E+03  0.19883667764E+03  0.12509000000E+03 0.  0.
<mgrwt>
<rscale>  2 0.46040661E+03</rscale>
<asrwt>0</asrwt>
<pdfrwt beam="1">  1       21 0.58764296E-01 0.46040661E+03</pdfrwt>
<pdfrwt beam="2">  1       21 0.19502565E-01 0.46040661E+03</pdfrwt>
<totfact> 0.60425558E+04</totfact>
</mgrwt>
</event>
<event>
 7    0  0.4775379E-002  0.4040379E+03  0.7546771E-02  0.1042390E+00
         21   -1    0    0  502  501  0.00000000000E+00  0.00000000000E+00  0.81544435430E+02  0.81544435430E+02  0.00000000000E+00 0.  1.
         21   -1    0    0  501  502 -0.00000000000E+00 -0.00000000000E+00 -0.50048373315E+03  0.50048373315E+03  0.00000000000E+00 0.  1.
      99926    2    1    2    0    0  0.17763568394E-14 -0.17763568394E-14 -0.41893929772E+03  0.58202816858E+03  0.40403793615E+03 0.  0.
      99925    2    3    3    0    0  0.13428100308E+02 -0.14703429415E+02 -0.20790416226E+03  0.33589844422E+03  0.26307246042E+03 0.  0.
         25    1    3    3    0    0 -0.13428100308E+02  0.14703429415E+02 -0.21103513546E+03  0.24612972436E+03  0.12509000000E+03 0.  0.
         25    1    4    4    0    0 -0.77585160678E+01  0.16150765010E+02 -0.64215204791E+02  0.14174675449E+03  0.12509000000E+03 0.  0.
         25    1    4    4    0    0  0.21186616376E+02 -0.30854194425E+02 -0.14368895747E+03  0.19415168973E+03  0.12509000000E+03 0.  0.
<mgrwt>
<rscale>  2 0.40403794E+03</rscale>
<asrwt>0</asrwt>
<pdfrwt beam="1">  1       21 0.11991829E-01 0.40403794E+03</pdfrwt>
<pdfrwt beam="2">  1       21 0.73600546E-01 0.40403794E+03</pdfrwt>
<totfact> 0.91418523E+04</totfact>
</mgrwt>
</event>
<event>
 7    0  0.4775379E-002  0.4527824E+03  0.7546771E-02  0.1026896E+00
         21   -1    0    0  502  501  0.00000000000E+00  0.00000000000E+00  0.14236498263E+03  0.14236498263E+03  0.00000000000E+00 0. -1.
         21   -1    0    0  501  502 -0.00000000000E+00 -0.00000000000E+00 -0.36001111510E+03  0.36001111510E+03  0.00000000000E+00 0. -1.
      99926    2    1    2    0    0 -0.14210854715E-13  0.00000000000E+00 -0.21764613247E+03  0.50237609773E+03  0.45278240314E+03 0.  0.
      99925    2    3    3    0    0 -0.89716768618E+02 -0.16143289590E+02 -0.66073516234E+02  0.28573937310E+03  0.26262439990E+03 0.  0.
         25    1    4    4    0    0 -0.76179448993E+02  0.33234747250E+01 -0.59902624809E+02  0.15827250706E+03  0.12509000000E+03 0.  0.
         25    1    4    4    0    0 -0.13537319624E+02 -0.19466764315E+02 -0.61708914255E+01  0.12746686603E+03  0.12509000000E+03 0.  0.
         25    1    3    3    0    0  0.89716768618E+02  0.16143289590E+02 -0.15157261623E+03  0.21663672464E+03  0.12509000000E+03 0.  0.
<mgrwt>
<rscale>  2 0.45278240E+03</rscale>
<asrwt>0</asrwt>
<pdfrwt beam="1">  1       21 0.20936027E-01 0.45278240E+03</pdfrwt>
<pdfrwt beam="2">  1       21 0.52942810E-01 0.45278240E+03</pdfrwt>
<totfact> 0.66262768E+04</totfact>
</mgrwt>
</event>
<event>
 7    0  0.4775379E-002  0.4499171E+03  0.7546771E-02  0.1027747E+00
         21   -1    0    0  502  501  0.00000000000E+00  0.00000000000E+00  0.52434581034E+03  0.52434581034E+03  0.00000000000E+00 0. -1.
         21   -1    0    0  501  502 -0.00000000000E+00 -0.00000000000E+00 -0.96513314411E+02  0.96513314411E+02  0.00000000000E+00 0. -1.
      99926    2    1    2    0    0  0.00000000000E+00  0.00000000000E+00  0.42783249592E+03  0.62085912475E+03  0.44991711260E+03 0.  0.
      99925    2    3    3    0    0  0.38260862336E+02 -0.82451590089E+02  0.35119377410E+03  0.44828114215E+03  0.26335671084E+03 0.  0.
         25    1    4    4    0    0 -0.32086820131E+01 -0.53878888432E+01  0.17406511066E+03  0.21444229022E+03  0.12509000000E+03 0.  0.
         25    1    4    4    0    0  0.41469544349E+02 -0.77063701246E+02  0.17712866344E+03  0.23383885193E+03  0.12509000000E+03 0.  0.
         25    1    3    3    0    0 -0.38260862336E+02  0.82451590089E+02  0.76638721823E+02  0.17257798260E+03  0.12509000000E+03 0.  0.
<mgrwt>
<rscale>  2 0.44991711E+03</rscale>
<asrwt>0</asrwt>
<pdfrwt beam="1">  1       21 0.77109677E-01 0.44991711E+03</pdfrwt>
<pdfrwt beam="2">  1       21 0.14193135E-01 0.44991711E+03</pdfrwt>
<totfact> 0.59775556E+04</totfact>
</mgrwt>
</event>
<event>
 7    0  0.4775379E-002  0.4611504E+03  0.7546771E-02  0.1024448E+00
         21   -1    0    0  502  501  0.00000000000E+00  0.00000000000E+00  0.41598189407E+03  0.41598189407E+03  0.00000000000E+00 0.  1.
         21   -1    0    0  501  502 -0.00000000000E+00 -0.00000000000E+00 -0.12780587041E+03  0.12780587041E+03  0.00000000000E+00 0.  1.
      99926    2    1    2    0    0  0.00000000000E+00  0.00000000000E+00  0.28817602366E+03  0.54378776447E+03  0.46115042250E+03 0.  0.
      99925    2    3    3    0    0  0.10547082019E+03  0.21935843422E+02  0.12117595183E+03  0.30896483707E+03  0.26300263137E+03 0.  0.
         25    1    3    3    0    0 -0.10547082019E+03 -0.21935843422E+02  0.16700007184E+03  0.23482292740E+03  0.12509000000E+03 0.  0.
         25    1    4    4    0    0  0.25138862468E+02  0.13585089935E+02  0.22320405529E+02  0.13023910963E+03  0.12509000000E+03 0.  0.
         25    1    4    4    0    0  0.80331957726E+02  0.83507534870E+01  0.98855546298E+02  0.17872572744E+03  0.12509000000E+03 0.  0.
<mgrwt>
<rscale>  2 0.46115042E+03</rscale>
<asrwt>0</asrwt>
<pdfrwt beam="1">  1       21 0.61173808E-01 0.46115042E+03</pdfrwt>
<pdfrwt beam="2">  1       21 0.18794981E-01 0.46115042E+03</pdfrwt>
<totfact> 0.59337485E+04</totfact>
</mgrwt>
</event>
<event>
 7    0  0.4775379E-002  0.4553707E+03  0.7546771E-02  0.1026132E+00
         21   -1    0    0  502  501  0.00000000000E+00  0.00000000000E+00  0.73021174388E+02  0.73021174388E+02  0.00000000000E+00 0.  1.
         21   -1    0    0  501  502 -0.00000000000E+00 -0.00000000000E+00 -0.70993954426E+03  0.70993954426E+03  0.00000000000E+00 0.  1.
      99926    2    1    2    0    0  0.00000000000E+00  0.00000000000E+00 -0.63691836988E+03  0.78296071865E+03  0.45537070291E+03 0.  0.
      99925    2    3    3    0    0  0.40540734356E+02 -0.95644316486E+02 -0.32231843993E+03  0.42882513665E+03  0.26307876137E+03 0.  0.
         25    1    3    3    0    0 -0.40540734356E+02  0.95644316486E+02 -0.31459992995E+03  0.35413558200E+03  0.12509000000E+03 0.  0.
         25    1    4    4    0    0  0.46124640106E+02 -0.50754248694E+02 -0.11856542647E+03  0.18549594238E+03  0.12509000000E+03 0.  0.
         25    1    4    4    0    0 -0.55839057503E+01 -0.44890067792E+02 -0.20375301346E+03  0.24332919427E+03  0.12509000000E+03 0.  0.
<mgrwt>
<rscale>  2 0.45537070E+03</rscale>
<asrwt>0</asrwt>
<pdfrwt beam="1">  1       21 0.10738408E-01 0.45537070E+03</pdfrwt>
<pdfrwt beam="2">  1       21 0.10440288E+00 0.45537070E+03</pdfrwt>
<totfact> 0.48458908E+04</totfact>
</mgrwt>
</event>
<event>
 7    0  0.4775379E-002  0.4394027E+03  0.7546771E-02  0.1030930E+00
         21   -1    0    0  502  501  0.00000000000E+00  0.00000000000E+00  0.57410027365E+02  0.57410027365E+02  0.00000000000E+00 0.  1.
         21   -1    0    0  501  502 -0.00000000000E+00 -0.00000000000E+00 -0.84077108051E+03  0.84077108051E+03  0.00000000000E+00 0.  1.
      99926    2    1    2    0    0  0.35527136788E-14  0.00000000000E+00 -0.78336105315E+03  0.89818110788E+03  0.43940273435E+03 0.  0.
      99925    2    3    3    0    0  0.40722947290E+01 -0.97552131464E+02 -0.53129234714E+03  0.60032352012E+03  0.26188502962E+03 0.  0.
         25    1    3    3    0    0 -0.40722947290E+01  0.97552131464E+02 -0.25206870601E+03  0.29785758776E+03  0.12509000000E+03 0.  0.
         25    1    4    4    0    0 -0.31403432446E+02 -0.69179045497E+02 -0.27219781663E+03  0.30904866184E+03  0.12509000000E+03 0.  0.
         25    1    4    4    0    0  0.35475727175E+02 -0.28373085967E+02 -0.25909453051E+03  0.29127485828E+03  0.12509000000E+03 0.  0.
<mgrwt>
<rscale>  2 0.43940273E+03</rscale>
<asrwt>0</asrwt>
<pdfrwt beam="1">  1       21 0.84426505E-02 0.43940273E+03</pdfrwt>
<pdfrwt beam="2">  1       21 0.12364281E+00 0.43940273E+03</pdfrwt>
<totfact> 0.49028875E+04</totfact>
</mgrwt>
</event>
<event>
 7    0  0.4775379E-002  0.4552738E+03  0.7546771E-02  0.1026161E+00
         21   -1    0    0  502  501  0.00000000000E+00  0.00000000000E+00  0.12914183057E+03  0.12914183057E+03  0.00000000000E+00 0. -1.
         21   -1    0    0  501  502 -0.00000000000E+00 -0.00000000000E+00 -0.40125301381E+03  0.40125301381E+03  0.00000000000E+00 0. -1.
      99926    2    1    2    0    0  0.00000000000E+00  0.00000000000E+00 -0.27211118324E+03  0.53039484439E+03  0.45527375820E+03 0.  0.
      99925    2    3    3    0    0  0.37655818843E+02 -0.89919339785E+02 -0.10346591797E+03  0.29889499135E+03  0.26292502983E+03 0.  0.
         25    1    3    3    0    0 -0.37655818843E+02  0.89919339785E+02 -0.16864526527E+03  0.23149985304E+03  0.12509000000E+03 0.  0.
         25    1    4    4    0    0 -0.14974780655E+02 -0.67264942464E+02 -0.54031468548E+02  0.15269487298E+03  0.12509000000E+03 0.  0.
         25    1    4    4    0    0  0.52630599498E+02 -0.22654397321E+02 -0.49434449422E+02  0.14620011837E+03  0.12509000000E+03 0.  0.
<mgrwt>
<rscale>  2 0.45527376E+03</rscale>
<asrwt>0</asrwt>
<pdfrwt beam="1">  1       21 0.18991446E-01 0.45527376E+03</pdfrwt>
<pdfrwt beam="2">  1       21 0.59007796E-01 0.45527376E+03</pdfrwt>
<totfact> 0.63042906E+04</totfact>
</mgrwt>
</event>
<event>
 7    0  0.4775379E-002  0.4550971E+03  0.7546771E-02  0.1026213E+00
         21   -1    0    0  502  501  0.00000000000E+00  0.00000000000E+00  0.66904999272E+02  0.66904999272E+02  0.00000000000E+00 0.  1.
         21   -1    0    0  501  502 -0.00000000000E+00 -0.00000000000E+00 -0.77390856157E+03  0.77390856157E+03  0.00000000000E+00 0.  1.
      99926    2    1    2    0    0  0.71054273576E-14  0.00000000000E+00 -0.70700356230E+03  0.84081356084E+03  0.45509714017E+03 0.  0.
      99925    2    3    3    0    0  0.41866894703E+02 -0.31631077530E+02 -0.63035234295E+03  0.68500509039E+03  0.26293447027E+03 0.  0.
         25    1    3    3    0    0 -0.41866894703E+02  0.31631077530E+02 -0.76651219351E+02  0.15580847046E+03  0.12509000000E+03 0.  0.
         25    1    4    4    0    0  0.16379145692E+02 -0.29312010052E+02 -0.41399545106E+03  0.43378244771E+03  0.12509000000E+03 0.  0.
         25    1    4    4    0    0  0.25487749011E+02 -0.23190674782E+01 -0.21635689189E+03  0.25122264267E+03  0.12509000000E+03 0.  0.
<mgrwt>
<rscale>  2 0.45509714E+03</rscale>
<asrwt>0</asrwt>
<pdfrwt beam="1">  1       21 0.98389704E-02 0.45509714E+03</pdfrwt>
<pdfrwt beam="2">  1       21 0.11381008E+00 0.45509714E+03</pdfrwt>
<totfact> 0.45818228E+04</totfact>
</mgrwt>
</event>
<event>
 7    0  0.4775379E-002  0.4362725E+03  0.7546771E-02  0.1031897E+00
         21   -1    0    0  502  501  0.00000000000E+00  0.00000000000E+00  0.17148337284E+03  0.17148337284E+03  0.00000000000E+00 0. -1.
         21   -1    0    0  501  502 -0.00000000000E+00 -0.00000000000E+00 -0.27748121469E+03  0.27748121469E+03  0.00000000000E+00 0. -1.
      99926    2    1    2    0    0  0.00000000000E+00  0.00000000000E+00 -0.10599784185E+03  0.44896458754E+03  0.43627245889E+03 0.  0.
      99925    2    3    3    0    0 -0.19399191309E+02 -0.89195365463E+02 -0.93103729410E+02  0.29357505095E+03  0.26303205939E+03 0.  0.
         25    1    3    3    0    0  0.19399191309E+02  0.89195365463E+02 -0.12894112444E+02  0.15538953658E+03  0.12509000000E+03 0.  0.
         25    1    4    4    0    0  0.96041883212E+01 -0.77737914345E+02 -0.32519442126E+02  0.15113055937E+03  0.12509000000E+03 0.  0.
         25    1    4    4    0    0 -0.29003379630E+02 -0.11457451118E+02 -0.60584287284E+02  0.14244449158E+03  0.12509000000E+03 0.  0.
<mgrwt>
<rscale>  2 0.43627246E+03</rscale>
<asrwt>0</asrwt>
<pdfrwt beam="1">  1       21 0.25218143E-01 0.43627246E+03</pdfrwt>
<pdfrwt beam="2">  1       21 0.40806060E-01 0.43627246E+03</pdfrwt>
<totfact> 0.80316420E+04</totfact>
</mgrwt>
</event>
<event>
 7    0  0.4775379E-002  0.4381011E+03  0.7546771E-02  0.1031331E+00
         21   -1    0    0  502  501  0.00000000000E+00  0.00000000000E+00  0.13677852487E+03  0.13677852487E+03  0.00000000000E+00 0. -1.
         21   -1    0    0  501  502 -0.00000000000E+00 -0.00000000000E+00 -0.35080900194E+03  0.35080900194E+03  0.00000000000E+00 0. -1.
      99926    2    1    2    0    0  0.00000000000E+00  0.00000000000E+00 -0.21403047707E+03  0.48758752680E+03  0.43810107416E+03 0.  0.
      99925    2    3    3    0    0  0.54256393229E+02  0.79609391268E+02 -0.14059758071E+03  0.31345737504E+03  0.26307115935E+03 0.  0.
         25    1    4    4    0    0  0.16791963743E+01  0.70494590382E+02 -0.82144167124E+02  0.16543119194E+03  0.12509000000E+03 0.  0.
         25    1    4    4    0    0  0.52577196854E+02  0.91148008858E+01 -0.58453413582E+02  0.14802618310E+03  0.12509000000E+03 0.  0.
         25    1    3    3    0    0 -0.54256393229E+02 -0.79609391268E+02 -0.73432896364E+02  0.17413015176E+03  0.12509000000E+03 0.  0.
<mgrwt>
<rscale>  2 0.43810107E+03</rscale>
<asrwt>0</asrwt>
<pdfrwt beam="1">  1       21 0.20114489E-01 0.43810107E+03</pdfrwt>
<pdfrwt beam="2">  1       21 0.51589558E-01 0.43810107E+03</pdfrwt>
<totfact> 0.75824254E+04</totfact>
</mgrwt>
</event>
<event>
 7    0  0.4775379E-002  0.4264309E+03  0.7546771E-02  0.1034993E+00
         21   -1    0    0  502  501  0.00000000000E+00  0.00000000000E+00  0.67324830107E+02  0.67324830107E+02  0.00000000000E+00 0.  1.
         21   -1    0    0  501  502 -0.00000000000E+00 -0.00000000000E+00 -0.67524624283E+03  0.67524624283E+03  0.00000000000E+00 0.  1.
      99926    2    1    2    0    0  0.14210854715E-13  0.35527136788E-14 -0.60792141272E+03  0.74257107294E+03  0.42643094906E+03 0.  0.
      99925    2    3    3    0    0  0.75747466518E+02  0.23981649920E+02 -0.33899656012E+03  0.43551915116E+03  0.26162084214E+03 0.  0.
         25    1    4    4    0    0  0.59878794545E+02  0.34526042715E+02 -0.21641796261E+03  0.25934872335E+03  0.12509000000E+03 0.  0.
         25    1    3    3    0    0 -0.75747466518E+02 -0.23981649920E+02 -0.26892485261E+03  0.30705192178E+03  0.12509000000E+03 0.  0.
         25    1    4    4    0    0  0.15868671974E+02 -0.10544392794E+02 -0.12257859751E+03  0.17617042782E+03  0.12509000000E+03 0.  0.
<mgrwt>
<rscale>  2 0.42643095E+03</rscale>
<asrwt>0</asrwt>
<pdfrwt beam="1">  1       21 0.99007102E-02 0.42643095E+03</pdfrwt>
<pdfrwt beam="2">  1       21 0.99300919E-01 0.42643095E+03</pdfrwt>
<totfact> 0.63822135E+04</totfact>
</mgrwt>
</event>
<event>
 7    0  0.4775379E-002  0.4574974E+03  0.7546771E-02  0.1025510E+00
         21   -1    0    0  502  501  0.00000000000E+00  0.00000000000E+00  0.89017909974E+02  0.89017909974E+02  0.00000000000E+00 0. -1.
         21   -1    0    0  501  502 -0.00000000000E+00 -0.00000000000E+00 -0.58781400574E+03  0.58781400574E+03  0.00000000000E+00 0. -1.
      99926    2    1    2    0    0 -0.35527136788E-14  0.35527136788E-14 -0.49879609577E+03  0.67683191571E+03  0.45749742838E+03 0.  0.
      99925    2    3    3    0    0  0.22790177092E+02  0.31833408212E+02 -0.15229576526E+03  0.30636903608E+03  0.26293578703E+03 0.  0.
         25    1    3    3    0    0 -0.22790177092E+02 -0.31833408212E+02 -0.34650033051E+03  0.37046287964E+03  0.12509000000E+03 0.  0.
         25    1    4    4    0    0 -0.92414487386E+01 -0.16761516634E+02 -0.88132055149E+02  0.15421128383E+03  0.12509000000E+03 0.  0.
         25    1    4    4    0    0  0.32031625830E+02  0.48594924845E+02 -0.64163710111E+02  0.15215775225E+03  0.12509000000E+03 0.  0.
<mgrwt>
<rscale>  2 0.45749743E+03</rscale>
<asrwt>0</asrwt>
<pdfrwt beam="1">  1       21 0.13090869E-01 0.45749743E+03</pdfrwt>
<pdfrwt beam="2">  1       21 0.86443240E-01 0.45749743E+03</pdfrwt>
<totfact> 0.53126068E+04</totfact>
</mgrwt>
</event>
<event>
 7    0  0.4775379E-002  0.4640821E+03  0.7546771E-02  0.1023604E+00
         21   -1    0    0  502  501  0.00000000000E+00  0.00000000000E+00  0.22718934470E+03  0.22718934470E+03  0.00000000000E+00 0. -1.
         21   -1    0    0  501  502 -0.00000000000E+00 -0.00000000000E+00 -0.23699635133E+03  0.23699635133E+03  0.00000000000E+00 0. -1.
      99926    2    1    2    0    0  0.00000000000E+00  0.00000000000E+00 -0.98070066246E+01  0.46418569603E+03  0.46408208651E+03 0.  0.
      99925    2    3    3    0    0  0.32450418502E+02 -0.66548061911E+02 -0.10246957032E+03  0.29180375668E+03  0.26299761475E+03 0.  0.
         25    1    3    3    0    0 -0.32450418502E+02  0.66548061911E+02  0.92662563691E+02  0.17238193935E+03  0.12509000000E+03 0.  0.
         25    1    4    4    0    0  0.36591512276E+02 -0.17828706492E+02 -0.84384372713E+02  0.15628509847E+03  0.12509000000E+03 0.  0.
         25    1    4    4    0    0 -0.41410937740E+01 -0.48719355419E+02 -0.18085197602E+02  0.13551865821E+03  0.12509000000E+03 0.  0.
<mgrwt>
<rscale>  2 0.46408209E+03</rscale>
<asrwt>0</asrwt>
<pdfrwt beam="1">  1       21 0.33410198E-01 0.46408209E+03</pdfrwt>
<pdfrwt beam="2">  1       21 0.34852405E-01 0.46408209E+03</pdfrwt>
<totfact> 0.63174445E+04</totfact>
</mgrwt>
</event>
<event>
 7    0  0.4775379E-002  0.4704361E+03  0.7546771E-02  0.1021797E+00
         21   -1    0    0  502  501  0.00000000000E+00  0.00000000000E+00  0.88995534786E+02  0.88995534786E+02  0.00000000000E+00 0.  1.
         21   -1    0    0  501  502 -0.00000000000E+00 -0.00000000000E+00 -0.62168883303E+03  0.62168883303E+03  0.00000000000E+00 0.  1.
      99926    2    1    2    0    0  0.00000000000E+00  0.35527136788E-14 -0.53269329824E+03  0.71068436781E+03  0.47043609626E+03 0.  0.
      99925    2    3    3    0    0 -0.65319231566E+02 -0.94529835160E+01 -0.16680919000E+03  0.31841577402E+03  0.26307287653E+03 0.  0.
         25    1    4    4    0    0 -0.25411000079E+02 -0.36579793105E+02 -0.11147069198E+03  0.17336961516E+03  0.12509000000E+03 0.  0.
         25    1    3    3    0    0  0.65319231566E+02  0.94529835160E+01 -0.36588410824E+03  0.39226859379E+03  0.12509000000E+03 0.  0.
         25    1    4    4    0    0 -0.39908231487E+02  0.27126809589E+02 -0.55338498017E+02  0.14504615887E+03  0.12509000000E+03 0.  0.
<mgrwt>
<rscale>  2 0.47043610E+03</rscale>
<asrwt>0</asrwt>
<pdfrwt beam="1">  1       21 0.13087579E-01 0.47043610E+03</pdfrwt>
<pdfrwt beam="2">  1       21 0.91424825E-01 0.47043610E+03</pdfrwt>
<totfact> 0.46425246E+04</totfact>
</mgrwt>
</event>
<event>
 7    0  0.4775379E-002  0.4561145E+03  0.7546771E-02  0.1025914E+00
         21   -1    0    0  502  501  0.00000000000E+00  0.00000000000E+00  0.31591566941E+02  0.31591566941E+02  0.00000000000E+00 0.  1.
         21   -1    0    0  501  502 -0.00000000000E+00 -0.00000000000E+00 -0.16463286161E+04  0.16463286161E+04  0.00000000000E+00 0.  1.
      99926    2    1    2    0    0  0.00000000000E+00 -0.14210854715E-13 -0.16147370492E+04  0.16779201831E+04  0.45611446232E+03 0.  0.
      99925    2    3    3    0    0 -0.78842999955E+02  0.82322744536E+02 -0.99434496614E+03  0.10348594568E+04  0.26309490808E+03 0.  0.
         25    1    4    4    0    0 -0.27048629796E+02  0.69626269201E+02 -0.61033523399E+03  0.62748390552E+03  0.12509000000E+03 0.  0.
         25    1    4    4    0    0 -0.51794370158E+02  0.12696475335E+02 -0.38400973214E+03  0.40737555124E+03  0.12509000000E+03 0.  0.
         25    1    3    3    0    0  0.78842999955E+02 -0.82322744536E+02 -0.62039208307E+03  0.64306072633E+03  0.12509000000E+03 0.  0.
<mgrwt>
<rscale>  2 0.45611446E+03</rscale>
<asrwt>0</asrwt>
<pdfrwt beam="1">  1       21 0.46458180E-02 0.45611446E+03</pdfrwt>
<pdfrwt beam="2">  1       21 0.24210718E+00 0.45611446E+03</pdfrwt>
<totfact> 0.19555200E+04</totfact>
</mgrwt>
</event>
<event>
 7    0  0.4775379E-002  0.4592319E+03  0.7546771E-02  0.1025004E+00
         21   -1    0    0  502  501  0.00000000000E+00  0.00000000000E+00  0.13734125522E+03  0.13734125522E+03  0.00000000000E+00 0.  1.
         21   -1    0    0  501  502 -0.00000000000E+00 -0.00000000000E+00 -0.38388673143E+03  0.38388673143E+03  0.00000000000E+00 0.  1.
      99926    2    1    2    0    0  0.00000000000E+00  0.00000000000E+00 -0.24654547621E+03  0.52122798665E+03  0.45923190463E+03 0.  0.
      99925    2    3    3    0    0  0.10646047120E+03  0.47317891962E+02 -0.16748340152E+03  0.33289016628E+03  0.26304440346E+03 0.  0.
         25    1    3    3    0    0 -0.10646047120E+03 -0.47317891962E+02 -0.79062074689E+02  0.18833782037E+03  0.12509000000E+03 0.  0.
         25    1    4    4    0    0  0.59490601012E+02 -0.14652876490E+02 -0.96034237518E+02  0.16918605520E+03  0.12509000000E+03 0.  0.
         25    1    4    4    0    0  0.46969870189E+02  0.61970768452E+02 -0.71449164003E+02  0.16370411108E+03  0.12509000000E+03 0.  0.
<mgrwt>
<rscale>  2 0.45923190E+03</rscale>
<asrwt>0</asrwt>
<pdfrwt beam="1">  1       21 0.20197244E-01 0.45923190E+03</pdfrwt>
<pdfrwt beam="2">  1       21 0.56453931E-01 0.45923190E+03</pdfrwt>
<totfact> 0.61705647E+04</totfact>
</mgrwt>
</event>
<event>
 7    0  0.4775379E-002  0.4462282E+03  0.7546771E-02  0.1028853E+00
         21   -1    0    0  502  501  0.00000000000E+00  0.00000000000E+00  0.33999314760E+03  0.33999314760E+03  0.00000000000E+00 0. -1.
         21   -1    0    0  501  502 -0.00000000000E+00 -0.00000000000E+00 -0.14641444558E+03  0.14641444558E+03  0.00000000000E+00 0. -1.
      99926    2    1    2    0    0  0.00000000000E+00 -0.35527136788E-14  0.19357870202E+03  0.48640759318E+03  0.44622822953E+03 0.  0.
      99925    2    3    3    0    0  0.63962218292E+02 -0.20536203122E+02  0.20909573177E+03  0.34357486822E+03  0.26421537431E+03 0.  0.
         25    1    4    4    0    0 -0.46926350031E+01  0.52880166184E+01  0.74733839345E+02  0.14588570453E+03  0.12509000000E+03 0.  0.
         25    1    3    3    0    0 -0.63962218292E+02  0.20536203122E+02 -0.15517029745E+02  0.14283272496E+03  0.12509000000E+03 0.  0.
         25    1    4    4    0    0  0.68654853295E+02 -0.25824219740E+02  0.13436189242E+03  0.19768916369E+03  0.12509000000E+03 0.  0.
<mgrwt>
<rscale>  2 0.44622823E+03</rscale>
<asrwt>0</asrwt>
<pdfrwt beam="1">  1       21 0.49998992E-01 0.44622823E+03</pdfrwt>
<pdfrwt beam="2">  1       21 0.21531536E-01 0.44622823E+03</pdfrwt>
<totfact> 0.71057273E+04</totfact>
</mgrwt>
</event>
<event>
 7    0  0.4775379E-002  0.4517862E+03  0.7546771E-02  0.1027191E+00
         21   -1    0    0  502  501  0.00000000000E+00  0.00000000000E+00  0.14307592578E+03  0.14307592578E+03  0.00000000000E+00 0.  1.
         21   -1    0    0  501  502 -0.00000000000E+00 -0.00000000000E+00 -0.35664762658E+03  0.35664762658E+03  0.00000000000E+00 0.  1.
      99926    2    1    2    0    0  0.00000000000E+00  0.14210854715E-13 -0.21357170080E+03  0.49972355236E+03  0.45178618549E+03 0.  0.
      99925    2    3    3    0    0  0.20829554493E+02 -0.93411593913E+02 -0.74390069648E+02  0.28953641962E+03  0.26294079107E+03 0.  0.
         25    1    4    4    0    0  0.13629731888E+02 -0.51580432359E+01 -0.23964474427E+02  0.12819586240E+03  0.12509000000E+03 0.  0.
         25    1    3    3    0    0 -0.20829554493E+02  0.93411593913E+02 -0.13918163116E+03  0.21018713274E+03  0.12509000000E+03 0.  0.
         25    1    4    4    0    0  0.71998226054E+01 -0.88253550677E+02 -0.50425595221E+02  0.16134055723E+03  0.12509000000E+03 0.  0.
<mgrwt>
<rscale>  2 0.45178619E+03</rscale>
<asrwt>0</asrwt>
<pdfrwt beam="1">  1       21 0.21040578E-01 0.45178619E+03</pdfrwt>
<pdfrwt beam="2">  1       21 0.52448180E-01 0.45178619E+03</pdfrwt>
<totfact> 0.66982623E+04</totfact>
</mgrwt>
</event>
<event>
 7    0  0.4775379E-002  0.4549238E+03  0.7546771E-02  0.1026264E+00
         21   -1    0    0  502  501  0.00000000000E+00  0.00000000000E+00  0.10609940489E+04  0.10609940489E+04  0.00000000000E+00 0.  1.
         21   -1    0    0  501  502 -0.00000000000E+00 -0.00000000000E+00 -0.48764559926E+02  0.48764559926E+02  0.00000000000E+00 0.  1.
      99926    2    1    2    0    0  0.00000000000E+00  0.00000000000E+00  0.10122294890E+04  0.11097586089E+04  0.45492376452E+03 0.  0.
      99925    2    3    3    0    0  0.98484513520E+02 -0.45998952709E+02  0.71334282417E+03  0.76800453124E+03  0.26297884355E+03 0.  0.
         25    1    4    4    0    0  0.23172380627E+02 -0.52256991011E+02  0.37605401716E+03  0.40041464041E+03  0.12509000000E+03 0.  0.
         25    1    3    3    0    0 -0.98484513520E+02  0.45998952709E+02  0.29888666485E+03  0.34175407763E+03  0.12509000000E+03 0.  0.
         25    1    4    4    0    0  0.75312132893E+02  0.62580383024E+01  0.33728880701E+03  0.36758989083E+03  0.12509000000E+03 0.  0.
<mgrwt>
<rscale>  2 0.45492376E+03</rscale>
<asrwt>0</asrwt>
<pdfrwt beam="1">  1       21 0.15602852E+00 0.45492376E+03</pdfrwt>
<pdfrwt beam="2">  1       21 0.71712595E-02 0.45492376E+03</pdfrwt>
<totfact> 0.35175511E+04</totfact>
</mgrwt>
</event>
<event>
 7    0  0.4775379E-002  0.4623847E+03  0.7546771E-02  0.1024092E+00
         21   -1    0    0  502  501  0.00000000000E+00  0.00000000000E+00  0.13639329779E+04  0.13639329779E+04  0.00000000000E+00 0. -1.
         21   -1    0    0  501  502 -0.00000000000E+00 -0.00000000000E+00 -0.39188063052E+02  0.39188063052E+02  0.00000000000E+00 0. -1.
      99926    2    1    2    0    0 -0.14210854715E-13  0.00000000000E+00  0.13247449149E+04  0.14031210410E+04  0.46238465172E+03 0.  0.
      99925    2    3    3    0    0 -0.10775670010E+03 -0.52698904540E+02  0.80963847975E+03  0.85964074827E+03  0.26282896955E+03 0.  0.
         25    1    4    4    0    0 -0.28198323174E+02  0.22767960107E+01  0.41998527156E+03  0.43913035156E+03  0.12509000000E+03 0.  0.
         25    1    3    3    0    0  0.10775670010E+03  0.52698904540E+02  0.51510643510E+03  0.54348029269E+03  0.12509000000E+03 0.  0.
         25    1    4    4    0    0 -0.79558376931E+02 -0.54975700550E+02  0.38965320819E+03  0.42051039671E+03  0.12509000000E+03 0.  0.
<mgrwt>
<rscale>  2 0.46238465E+03</rscale>
<asrwt>0</asrwt>
<pdfrwt beam="1">  1       21 0.20057835E+00 0.46238465E+03</pdfrwt>
<pdfrwt beam="2">  1       21 0.57629513E-02 0.46238465E+03</pdfrwt>
<totfact> 0.24795228E+04</totfact>
</mgrwt>
</event>
<event>
 7    0  0.4775379E-002  0.4613245E+03  0.7546771E-02  0.1024398E+00
         21   -1    0    0  502  501  0.00000000000E+00  0.00000000000E+00  0.96460222854E+03  0.96460222854E+03  0.00000000000E+00 0. -1.
         21   -1    0    0  501  502 -0.00000000000E+00 -0.00000000000E+00 -0.55157532772E+02  0.55157532772E+02  0.00000000000E+00 0. -1.
      99926    2    1    2    0    0  0.00000000000E+00  0.14210854715E-13  0.90944469576E+03  0.10197597613E+04  0.46132452366E+03 0.  0.
      99925    2    3    3    0    0 -0.67228884573E+02  0.98209140532E+02  0.57363789647E+03  0.64216411415E+03  0.26296302977E+03 0.  0.
         25    1    3    3    0    0  0.67228884573E+02 -0.98209140532E+02  0.33580679929E+03  0.37759564716E+03  0.12509000000E+03 0.  0.
         25    1    4    4    0    0 -0.14650941489E+02  0.56763680348E+02  0.36108348807E+03  0.38660775852E+03  0.12509000000E+03 0.  0.
         25    1    4    4    0    0 -0.52577943085E+02  0.41445460184E+02  0.21255440841E+03  0.25555635563E+03  0.12509000000E+03 0.  0.
<mgrwt>
<rscale>  2 0.46132452E+03</rscale>
<asrwt>0</asrwt>
<pdfrwt beam="1">  1       21 0.14185326E+00 0.46132452E+03</pdfrwt>
<pdfrwt beam="2">  1       21 0.81114025E-02 0.46132452E+03</pdfrwt>
<totfact> 0.36567509E+04</totfact>
</mgrwt>
</event>
<event>
 7    0  0.4775379E-002  0.4415467E+03  0.7546771E-02  0.1030273E+00
         21   -1    0    0  502  501  0.00000000000E+00  0.00000000000E+00  0.46059397793E+03  0.46059397793E+03  0.00000000000E+00 0.  1.
         21   -1    0    0  501  502 -0.00000000000E+00 -0.00000000000E+00 -0.10582179321E+03  0.10582179321E+03  0.00000000000E+00 0.  1.
      99926    2    1    2    0    0  0.00000000000E+00  0.00000000000E+00  0.35477218472E+03  0.56641577113E+03  0.44154673902E+03 0.  0.
      99925    2    3    3    0    0 -0.97708429197E+01  0.44519957522E+02  0.34053084488E+03  0.43252096224E+03  0.26274632342E+03 0.  0.
         25    1    4    4    0    0 -0.25036302103E+02  0.43566233668E+02  0.22075240431E+03  0.25865800828E+03  0.12509000000E+03 0.  0.
         25    1    3    3    0    0  0.97708429197E+01 -0.44519957522E+02  0.14241339842E+02  0.13389480890E+03  0.12509000000E+03 0.  0.
         25    1    4    4    0    0  0.15265459183E+02  0.95372385448E+00  0.11977844057E+03  0.17386295396E+03  0.12509000000E+03 0.  0.
<mgrwt>
<rscale>  2 0.44154674E+03</rscale>
<asrwt>0</asrwt>
<pdfrwt beam="1">  1       21 0.67734408E-01 0.44154674E+03</pdfrwt>
<pdfrwt beam="2">  1       21 0.15562029E-01 0.44154674E+03</pdfrwt>
<totfact> 0.67716699E+04</totfact>
</mgrwt>
</event>
<event>
 7    0  0.4775379E-002  0.4176116E+03  0.7546771E-02  0.1037846E+00
         21   -1    0    0  502  501  0.00000000000E+00  0.00000000000E+00  0.10365098074E+04  0.10365098074E+04  0.00000000000E+00 0. -1.
         21   -1    0    0  501  502 -0.00000000000E+00 -0.00000000000E+00 -0.42064115602E+02  0.42064115602E+02  0.00000000000E+00 0. -1.
      99926    2    1    2    0    0 -0.17763568394E-14  0.00000000000E+00  0.99444569184E+03  0.10785739230E+04  0.41761162993E+03 0.  0.
      99925    2    3    3    0    0 -0.11743130925E+02 -0.50899463515E+02  0.51813688356E+03  0.58335049321E+03  0.26287508690E+03 0.  0.
         25    1    3    3    0    0  0.11743130925E+02  0.50899463515E+02  0.47630880828E+03  0.49522342983E+03  0.12509000000E+03 0.  0.
         25    1    4    4    0    0  0.28521968342E+02 -0.23037318950E+02  0.30110378940E+03  0.32810855038E+03  0.12509000000E+03 0.  0.
         25    1    4    4    0    0 -0.40265099266E+02 -0.27862144565E+02  0.21703309416E+03  0.25524194283E+03  0.12509000000E+03 0.  0.
<mgrwt>
<rscale>  2 0.41761163E+03</rscale>
<asrwt>0</asrwt>
<pdfrwt beam="1">  1       21 0.15242790E+00 0.41761163E+03</pdfrwt>
<pdfrwt beam="2">  1       21 0.61859000E-02 0.41761163E+03</pdfrwt>
<totfact> 0.49074345E+04</totfact>
</mgrwt>
</event>
<event>
 7    0  0.4775379E-002  0.4583120E+03  0.7546771E-02  0.1025272E+00
         21   -1    0    0  502  501  0.00000000000E+00  0.00000000000E+00  0.19914731370E+03  0.19914731370E+03  0.00000000000E+00 0.  1.
         21   -1    0    0  501  502 -0.00000000000E+00 -0.00000000000E+00 -0.26368652304E+03  0.26368652304E+03  0.00000000000E+00 0.  1.
      99926    2    1    2    0    0  0.71054273576E-14  0.00000000000E+00 -0.64539209341E+02  0.46283383674E+03  0.45831195805E+03 0.  0.
      99925    2    3    3    0    0  0.39754829688E+02  0.53500215879E+02 -0.13670065486E+03  0.30378195243E+03  0.26297088433E+03 0.  0.
         25    1    3    3    0    0 -0.39754829688E+02 -0.53500215879E+02  0.72161445515E+02  0.15905188431E+03  0.12509000000E+03 0.  0.
         25    1    4    4    0    0  0.36027682544E+02  0.60753021243E+02 -0.92516220411E+02  0.17086744172E+03  0.12509000000E+03 0.  0.
         25    1    4    4    0    0  0.37271471445E+01 -0.72528053641E+01 -0.44184434445E+02  0.13291451072E+03  0.12509000000E+03 0.  0.
<mgrwt>
<rscale>  2 0.45831196E+03</rscale>
<asrwt>0</asrwt>
<pdfrwt beam="1">  1       21 0.29286370E-01 0.45831196E+03</pdfrwt>
<pdfrwt beam="2">  1       21 0.38777430E-01 0.45831196E+03</pdfrwt>
<totfact> 0.66208486E+04</totfact>
</mgrwt>
</event>
<event>
 7    0  0.4775379E-002  0.4520912E+03  0.7546771E-02  0.1027100E+00
         21   -1    0    0  502  501  0.00000000000E+00  0.00000000000E+00  0.57101267842E+02  0.57101267842E+02  0.00000000000E+00 0.  1.
         21   -1    0    0  501  502 -0.00000000000E+00 -0.00000000000E+00 -0.89484192575E+03  0.89484192575E+03  0.00000000000E+00 0.  1.
      99926    2    1    2    0    0  0.00000000000E+00 -0.11102230246E-14 -0.83774065790E+03  0.95194319359E+03  0.45209117876E+03 0.  0.
      99925    2    3    3    0    0  0.66409650105E+01 -0.99643171280E+00 -0.29743102226E+03  0.39730177270E+03  0.26332183787E+03 0.  0.
         25    1    4    4    0    0 -0.63295743398E+01  0.38941744171E+02 -0.15764447785E+03  0.20507513854E+03  0.12509000000E+03 0.  0.
         25    1    3    3    0    0 -0.66409650105E+01  0.99643171280E+00 -0.54030963564E+03  0.55464142089E+03  0.12509000000E+03 0.  0.
         25    1    4    4    0    0  0.12970539350E+02 -0.39938175883E+02 -0.13978654441E+03  0.19222663416E+03  0.12509000000E+03 0.  0.
<mgrwt>
<rscale>  2 0.45209118E+03</rscale>
<asrwt>0</asrwt>
<pdfrwt beam="1">  1       21 0.83972458E-02 0.45209118E+03</pdfrwt>
<pdfrwt beam="2">  1       21 0.13159439E+00 0.45209118E+03</pdfrwt>
<totfact> 0.42009660E+04</totfact>
</mgrwt>
</event>
<event>
 7    0  0.4775379E-002  0.4453826E+03  0.7546771E-02  0.1029108E+00
         21   -1    0    0  502  501  0.00000000000E+00  0.00000000000E+00  0.96879046044E+02  0.96879046044E+02  0.00000000000E+00 0. -1.
         21   -1    0    0  501  502 -0.00000000000E+00 -0.00000000000E+00 -0.51188992960E+03  0.51188992960E+03  0.00000000000E+00 0. -1.
      99926    2    1    2    0    0  0.00000000000E+00  0.00000000000E+00 -0.41501088356E+03  0.60876897564E+03  0.44538256840E+03 0.  0.
      99925    2    3    3    0    0  0.58122133154E+02 -0.58021415855E+02 -0.35062828566E+03  0.44586626213E+03  0.26289135006E+03 0.  0.
         25    1    4    4    0    0  0.27410692027E+02 -0.41900517693E+02 -0.11631916834E+03  0.17800184394E+03  0.12509000000E+03 0.  0.
         25    1    3    3    0    0 -0.58122133154E+02  0.58021415855E+02 -0.64382597895E+02  0.16290271352E+03  0.12509000000E+03 0.  0.
         25    1    4    4    0    0  0.30711441126E+02 -0.16120898161E+02 -0.23430911732E+03  0.26786441819E+03  0.12509000000E+03 0.  0.
<mgrwt>
<rscale>  2 0.44538257E+03</rscale>
<asrwt>0</asrwt>
<pdfrwt beam="1">  1       21 0.14246918E-01 0.44538257E+03</pdfrwt>
<pdfrwt beam="2">  1       21 0.75277934E-01 0.44538257E+03</pdfrwt>
<totfact> 0.62776422E+04</totfact>
</mgrwt>
</event>
<event>
 7    0  0.4775379E-002  0.4608450E+03  0.7546771E-02  0.1024536E+00
         21   -1    0    0  502  501  0.00000000000E+00  0.00000000000E+00  0.35537060504E+03  0.35537060504E+03  0.00000000000E+00 0.  1.
         21   -1    0    0  501  502 -0.00000000000E+00 -0.00000000000E+00 -0.14940605180E+03  0.14940605180E+03  0.00000000000E+00 0.  1.
      99926    2    1    2    0    0  0.00000000000E+00  0.14210854715E-13  0.20596455325E+03  0.50477665684E+03  0.46084495885E+03 0.  0.
      99925    2    3    3    0    0  0.35920700530E+02  0.91471881337E+02  0.56188262042E+02  0.28628673188E+03  0.26295545299E+03 0.  0.
         25    1    3    3    0    0 -0.35920700530E+02 -0.91471881337E+02  0.14977629120E+03  0.21848992496E+03  0.12509000000E+03 0.  0.
         25    1    4    4    0    0 -0.18387252105E+02  0.58387205979E+02  0.15170767739E+02  0.14008860466E+03  0.12509000000E+03 0.  0.
         25    1    4    4    0    0  0.54307952635E+02  0.33084675358E+02  0.41017494303E+02  0.14619812722E+03  0.12509000000E+03 0.  0.
<mgrwt>
<rscale>  2 0.46084496E+03</rscale>
<asrwt>0</asrwt>
<pdfrwt beam="1">  1       21 0.52260383E-01 0.46084496E+03</pdfrwt>
<pdfrwt beam="2">  1       21 0.21971478E-01 0.46084496E+03</pdfrwt>
<totfact> 0.62009051E+04</totfact>
</mgrwt>
</event>
<event>
 7    0  0.4775379E-002  0.4512181E+03  0.7546771E-02  0.1027359E+00
         21   -1    0    0  502  501  0.00000000000E+00  0.00000000000E+00  0.20652298416E+03  0.20652298416E+03  0.00000000000E+00 0. -1.
         21   -1    0    0  501  502 -0.00000000000E+00 -0.00000000000E+00 -0.24645902331E+03  0.24645902331E+03  0.00000000000E+00 0. -1.
      99926    2    1    2    0    0 -0.35527136788E-14  0.71054273576E-14 -0.39936039149E+02  0.45298200747E+03  0.45121814222E+03 0.  0.
      99925    2    3    3    0    0  0.87179914301E+01  0.54888499867E+02 -0.12002078886E+03  0.29439504070E+03  0.26301083521E+03 0.  0.
         25    1    4    4    0    0  0.34515090854E+02  0.88330205252E+00 -0.65850674745E+02  0.14551938422E+03  0.12509000000E+03 0.  0.
         25    1    4    4    0    0 -0.25797099424E+02  0.54005197814E+02 -0.54170114115E+02  0.14887565648E+03  0.12509000000E+03 0.  0.
         25    1    3    3    0    0 -0.87179914301E+01 -0.54888499867E+02  0.80084749711E+02  0.15858696677E+03  0.12509000000E+03 0.  0.
<mgrwt>
<rscale>  2 0.45121814E+03</rscale>
<asrwt>0</asrwt>
<pdfrwt beam="1">  1       21 0.30371027E-01 0.45121814E+03</pdfrwt>
<pdfrwt beam="2">  1       21 0.36243974E-01 0.45121814E+03</pdfrwt>
<totfact> 0.70806424E+04</totfact>
</mgrwt>
</event>
<event>
 7    0  0.4775379E-002  0.4516640E+03  0.7546771E-02  0.1027227E+00
         21   -1    0    0  502  501  0.00000000000E+00  0.00000000000E+00  0.68588817936E+03  0.68588817936E+03  0.00000000000E+00 0. -1.
         21   -1    0    0  501  502 -0.00000000000E+00 -0.00000000000E+00 -0.74356292350E+02  0.74356292350E+02  0.00000000000E+00 0. -1.
      99926    2    1    2    0    0  0.00000000000E+00 -0.35527136788E-14  0.61153188701E+03  0.76024447171E+03  0.45166404322E+03 0.  0.
      99925    2    3    3    0    0 -0.94249078985E+02  0.20095532048E+02  0.29711069532E+03  0.40839945870E+03  0.26311334685E+03 0.  0.
         25    1    4    4    0    0 -0.79694864062E+02 -0.10802877320E+02  0.18179472225E+03  0.23487188562E+03  0.12509000000E+03 0.  0.
         25    1    4    4    0    0 -0.14554214923E+02  0.30898409369E+02  0.11531597308E+03  0.17352757308E+03  0.12509000000E+03 0.  0.
         25    1    3    3    0    0  0.94249078985E+02 -0.20095532048E+02  0.31442119169E+03  0.35184501301E+03  0.12509000000E+03 0.  0.
<mgrwt>
<rscale>  2 0.45166404E+03</rscale>
<asrwt>0</asrwt>
<pdfrwt beam="1">  1       21 0.10086591E+00 0.45166404E+03</pdfrwt>
<pdfrwt beam="2">  1       21 0.10934749E-01 0.45166404E+03</pdfrwt>
<totfact> 0.51071991E+04</totfact>
</mgrwt>
</event>
<event>
 7    0  0.4775379E-002  0.4416640E+03  0.7546771E-02  0.1030237E+00
         21   -1    0    0  502  501  0.00000000000E+00  0.00000000000E+00  0.92217017091E+03  0.92217017091E+03  0.00000000000E+00 0. -1.
         21   -1    0    0  501  502 -0.00000000000E+00 -0.00000000000E+00 -0.52882615999E+02  0.52882615999E+02  0.00000000000E+00 0. -1.
      99926    2    1    2    0    0  0.00000000000E+00  0.14210854715E-13  0.86928755491E+03  0.97505278690E+03  0.44166399461E+03 0.  0.
      99925    2    3    3    0    0  0.69818036292E+02 -0.68456525643E+02  0.60136392431E+03  0.66361830900E+03  0.26303961011E+03 0.  0.
         25    1    3    3    0    0 -0.69818036292E+02  0.68456525643E+02  0.26792363059E+03  0.31143447790E+03  0.12509000000E+03 0.  0.
         25    1    4    4    0    0  0.49447510687E+02 -0.74072123154E+02  0.34197843938E+03  0.37487130704E+03  0.12509000000E+03 0.  0.
         25    1    4    4    0    0  0.20370525605E+02  0.56155975106E+01  0.25938548493E+03  0.28874700196E+03  0.12509000000E+03 0.  0.
<mgrwt>
<rscale>  2 0.44166399E+03</rscale>
<asrwt>0</asrwt>
<pdfrwt beam="1">  1       21 0.13561325E+00 0.44166399E+03</pdfrwt>
<pdfrwt beam="2">  1       21 0.77768558E-02 0.44166399E+03</pdfrwt>
<totfact> 0.44615395E+04</totfact>
</mgrwt>
</event>
<event>
 7    0  0.4775379E-002  0.4617000E+03  0.7546771E-02  0.1024289E+00
         21   -1    0    0  502  501  0.00000000000E+00  0.00000000000E+00  0.10037705774E+04  0.10037705774E+04  0.00000000000E+00 0. -1.
         21   -1    0    0  501  502 -0.00000000000E+00 -0.00000000000E+00 -0.53091545991E+02  0.53091545991E+02  0.00000000000E+00 0. -1.
      99926    2    1    2    0    0  0.00000000000E+00 -0.17763568394E-14  0.95067903143E+03  0.10568621234E+04  0.46170004018E+03 0.  0.
      99925    2    3    3    0    0 -0.13268975072E+02  0.88223654501E+01  0.86524128472E+03  0.90454332452E+03  0.26325319623E+03 0.  0.
         25    1    4    4    0    0 -0.34827046217E+02 -0.10569854758E+02  0.34754212171E+03  0.37115721661E+03  0.12509000000E+03 0.  0.
         25    1    3    3    0    0  0.13268975072E+02 -0.88223654501E+01  0.85437746707E+02  0.15231879889E+03  0.12509000000E+03 0.  0.
         25    1    4    4    0    0  0.21558071144E+02  0.19392220208E+02  0.51769916301E+03  0.53338610791E+03  0.12509000000E+03 0.  0.
<mgrwt>
<rscale>  2 0.46170004E+03</rscale>
<asrwt>0</asrwt>
<pdfrwt beam="1">  1       21 0.14761331E+00 0.46170004E+03</pdfrwt>
<pdfrwt beam="2">  1       21 0.78075809E-02 0.46170004E+03</pdfrwt>
<totfact> 0.35152129E+04</totfact>
</mgrwt>
</event>
<event>
 7    0  0.4775379E-002  0.4523994E+03  0.7546771E-02  0.1027009E+00
         21   -1    0    0  502  501  0.00000000000E+00  0.00000000000E+00  0.45284655456E+03  0.45284655456E+03  0.00000000000E+00 0.  1.
         21   -1    0    0  501  502 -0.00000000000E+00 -0.00000000000E+00 -0.11298817837E+03  0.11298817837E+03  0.00000000000E+00 0.  1.
      99926    2    1    2    0    0  0.14210854715E-13 -0.71054273576E-14  0.33985837619E+03  0.56583473293E+03  0.45239941327E+03 0.  0.
      99925    2    3    3    0    0 -0.97970089561E+02  0.40811515252E+02  0.17460854187E+03  0.33298556702E+03  0.26292114164E+03 0.  0.
         25    1    4    4    0    0 -0.44521032922E+02  0.23830394695E+01  0.12721050683E+03  0.18389622725E+03  0.12509000000E+03 0.  0.
         25    1    3    3    0    0  0.97970089561E+02 -0.40811515252E+02  0.16524983432E+03  0.23284916592E+03  0.12509000000E+03 0.  0.
         25    1    4    4    0    0 -0.53449056639E+02  0.38428475782E+02  0.47398035039E+02  0.14908933977E+03  0.12509000000E+03 0.  0.
<mgrwt>
<rscale>  2 0.45239941E+03</rscale>
<asrwt>0</asrwt>
<pdfrwt beam="1">  1       21 0.66595081E-01 0.45239941E+03</pdfrwt>
<pdfrwt beam="2">  1       21 0.16615909E-01 0.45239941E+03</pdfrwt>
<totfact> 0.62099495E+04</totfact>
</mgrwt>
</event>
<event>
 7    0  0.4775379E-002  0.4593929E+03  0.7546771E-02  0.1024957E+00
         21   -1    0    0  502  501  0.00000000000E+00  0.00000000000E+00  0.27567478760E+03  0.27567478760E+03  0.00000000000E+00 0. -1.
         21   -1    0    0  501  502 -0.00000000000E+00 -0.00000000000E+00 -0.19138659228E+03  0.19138659228E+03  0.00000000000E+00 0. -1.
      99926    2    1    2    0    0  0.00000000000E+00 -0.35527136788E-14  0.84288195323E+02  0.46706137988E+03  0.45939289580E+03 0.  0.
      99925    2    3    3    0    0  0.11349806175E+03  0.26112892774E+02  0.38123851249E+02  0.29002367782E+03  0.26286234510E+03 0.  0.
         25    1    4    4    0    0  0.33607486935E+02  0.16397215087E+02 -0.16435875729E+02  0.13159018942E+03  0.12509000000E+03 0.  0.
         25    1    3    3    0    0 -0.11349806175E+03 -0.26112892774E+02  0.46164344074E+02  0.17703770207E+03  0.12509000000E+03 0.  0.
         25    1    4    4    0    0  0.79890574814E+02  0.97156776873E+01  0.54559726978E+02  0.15843348839E+03  0.12509000000E+03 0.  0.
<mgrwt>
<rscale>  2 0.45939290E+03</rscale>
<asrwt>0</asrwt>
<pdfrwt beam="1">  1       21 0.40540410E-01 0.45939290E+03</pdfrwt>
<pdfrwt beam="2">  1       21 0.28145087E-01 0.45939290E+03</pdfrwt>
<totfact> 0.65345521E+04</totfact>
</mgrwt>
</event>
<event>
 7    0  0.4775379E-002  0.4631866E+03  0.7546771E-02  0.1023861E+00
         21   -1    0    0  502  501  0.00000000000E+00  0.00000000000E+00  0.16003293840E+03  0.16003293840E+03  0.00000000000E+00 0.  1.
         21   -1    0    0  501  502 -0.00000000000E+00 -0.00000000000E+00 -0.33515265205E+03  0.33515265205E+03  0.00000000000E+00 0.  1.
      99926    2    1    2    0    0  0.00000000000E+00  0.00000000000E+00 -0.17511971366E+03  0.49518559045E+03  0.46318663072E+03 0.  0.
      99925    2    3    3    0    0  0.96072666506E+01  0.45019040041E+00 -0.23804122567E+03  0.35483201188E+03  0.26296317098E+03 0.  0.
         25    1    4    4    0    0  0.10413600358E+01  0.27869860226E+02 -0.79359650596E+02  0.15074241534E+03  0.12509000000E+03 0.  0.
         25    1    3    3    0    0 -0.96072666506E+01 -0.45019040041E+00  0.62921512007E+02  0.14035357857E+03  0.12509000000E+03 0.  0.
         25    1    4    4    0    0  0.85659066147E+01 -0.27419669825E+02 -0.15868157507E+03  0.20408959654E+03  0.12509000000E+03 0.  0.
<mgrwt>
<rscale>  2 0.46318663E+03</rscale>
<asrwt>0</asrwt>
<pdfrwt beam="1">  1       21 0.23534256E-01 0.46318663E+03</pdfrwt>
<pdfrwt beam="2">  1       21 0.49287155E-01 0.46318663E+03</pdfrwt>
<totfact> 0.61514123E+04</totfact>
</mgrwt>
</event>
<event>
 7    0  0.4775379E-002  0.4392168E+03  0.7546771E-02  0.1030987E+00
         21   -1    0    0  502  501  0.00000000000E+00  0.00000000000E+00  0.18199342176E+03  0.18199342176E+03  0.00000000000E+00 0.  1.
         21   -1    0    0  501  502 -0.00000000000E+00 -0.00000000000E+00 -0.26499770191E+03  0.26499770191E+03  0.00000000000E+00 0.  1.
      99926    2    1    2    0    0 -0.14210854715E-13  0.00000000000E+00 -0.83004280157E+02  0.44699112367E+03  0.43921675072E+03 0.  0.
      99925    2    3    3    0    0  0.93345546652E+02  0.13170901345E+02 -0.27544794878E+02  0.28082817253E+03  0.26309481759E+03 0.  0.
         25    1    3    3    0    0 -0.93345546652E+02 -0.13170901345E+02 -0.55459485279E+02  0.16616295113E+03  0.12509000000E+03 0.  0.
         25    1    4    4    0    0  0.52009600786E+02  0.10565091153E+02 -0.54370525226E+02  0.14635669386E+03  0.12509000000E+03 0.  0.
         25    1    4    4    0    0  0.41335945866E+02  0.26058101918E+01  0.26825730348E+02  0.13447147867E+03  0.12509000000E+03 0.  0.
<mgrwt>
<rscale>  2 0.43921675E+03</rscale>
<asrwt>0</asrwt>
<pdfrwt beam="1">  1       21 0.26763739E-01 0.43921675E+03</pdfrwt>
<pdfrwt beam="2">  1       21 0.38970250E-01 0.43921675E+03</pdfrwt>
<totfact> 0.78569610E+04</totfact>
</mgrwt>
</event>
<event>
 7    0  0.4775379E-002  0.4499174E+03  0.7546771E-02  0.1027747E+00
         21   -1    0    0  502  501  0.00000000000E+00  0.00000000000E+00  0.15245920880E+04  0.15245920880E+04  0.00000000000E+00 0. -1.
         21   -1    0    0  501  502 -0.00000000000E+00 -0.00000000000E+00 -0.33193410301E+02  0.33193410301E+02  0.00000000000E+00 0. -1.
      99926    2    1    2    0    0  0.71054273576E-14  0.00000000000E+00  0.14913986777E+04  0.15577854983E+04  0.44991737338E+03 0.  0.
      99925    2    3    3    0    0  0.56079077519E+02 -0.35143463797E+02  0.64636080395E+03  0.70097954468E+03  0.26307813896E+03 0.  0.
         25    1    4    4    0    0  0.46541329691E+02 -0.21970529815E+02  0.24003046793E+03  0.27551938804E+03  0.12509000000E+03 0.  0.
         25    1    4    4    0    0  0.95377478280E+01 -0.13172933981E+02  0.40633033601E+03  0.42546015664E+03  0.12509000000E+03 0.  0.
         25    1    3    3    0    0 -0.56079077519E+02  0.35143463797E+02  0.84503787372E+03  0.85680595359E+03  0.12509000000E+03 0.  0.
<mgrwt>
<rscale>  2 0.44991737E+03</rscale>
<asrwt>0</asrwt>
<pdfrwt beam="1">  1       21 0.22420467E+00 0.44991737E+03</pdfrwt>
<pdfrwt beam="2">  1       21 0.48813849E-02 0.44991737E+03</pdfrwt>
<totfact> 0.23304209E+04</totfact>
</mgrwt>
</event>
<event>
 7    0  0.4775379E-002  0.4603277E+03  0.7546771E-02  0.1024686E+00
         21   -1    0    0  502  501  0.00000000000E+00  0.00000000000E+00  0.77347142470E+02  0.77347142470E+02  0.00000000000E+00 0.  1.
         21   -1    0    0  501  502 -0.00000000000E+00 -0.00000000000E+00 -0.68490435630E+03  0.68490435630E+03  0.00000000000E+00 0.  1.
      99926    2    1    2    0    0  0.00000000000E+00  0.00000000000E+00 -0.60755721383E+03  0.76225149877E+03  0.46032768687E+03 0.  0.
      99925    2    3    3    0    0  0.72532394075E+02  0.92856884324E+02 -0.36527040148E+03  0.46520982376E+03  0.26289611021E+03 0.  0.
         25    1    3    3    0    0 -0.72532394075E+02 -0.92856884324E+02 -0.24228681235E+03  0.29704167501E+03  0.12509000000E+03 0.  0.
         25    1    4    4    0    0  0.64355671572E+02  0.20646540334E+02 -0.15946788861E+03  0.21364795269E+03  0.12509000000E+03 0.  0.
         25    1    4    4    0    0  0.81767225034E+01  0.72210343990E+02 -0.20580251287E+03  0.25156187107E+03  0.12509000000E+03 0.  0.
<mgrwt>
<rscale>  2 0.46032769E+03</rscale>
<asrwt>0</asrwt>
<pdfrwt beam="1">  1       21 0.11374579E-01 0.46032769E+03</pdfrwt>
<pdfrwt beam="2">  1       21 0.10072123E+00 0.46032769E+03</pdfrwt>
<totfact> 0.47621186E+04</totfact>
</mgrwt>
</event>
<event>
 7    0  0.4775379E-002  0.4429058E+03  0.7546771E-02  0.1029859E+00
         21   -1    0    0  502  501  0.00000000000E+00  0.00000000000E+00  0.13429482498E+02  0.13429482498E+02  0.00000000000E+00 0.  1.
         21   -1    0    0  501  502 -0.00000000000E+00 -0.00000000000E+00 -0.36517699537E+04  0.36517699537E+04  0.00000000000E+00 0.  1.
      99926    2    1    2    0    0  0.00000000000E+00 -0.71054273576E-14 -0.36383404712E+04  0.36651994362E+04  0.44290577182E+03 0.  0.
      99925    2    3    3    0    0 -0.18143404654E+02  0.53926920140E+02 -0.16197975900E+04  0.16419841320E+04  0.26292653208E+03 0.  0.
         25    1    4    4    0    0  0.24613216298E+02  0.43070192652E+02 -0.91059268547E+03  0.92048215563E+03  0.12509000000E+03 0.  0.
         25    1    3    3    0    0  0.18143404654E+02 -0.53926920140E+02 -0.20185428811E+04  0.20232153041E+04  0.12509000000E+03 0.  0.
         25    1    4    4    0    0 -0.42756620952E+02  0.10856727489E+02 -0.70920490456E+03  0.72150197638E+03  0.12509000000E+03 0.  0.
<mgrwt>
<rscale>  2 0.44290577E+03</rscale>
<asrwt>0</asrwt>
<pdfrwt beam="1">  1       21 0.19749236E-02 0.44290577E+03</pdfrwt>
<pdfrwt beam="2">  1       21 0.53702508E+00 0.44290577E+03</pdfrwt>
<totfact> 0.10146318E+03</totfact>
</mgrwt>
</event>
<event>
 7    0  0.4775379E-002  0.4518956E+03  0.7546771E-02  0.1027158E+00
         21   -1    0    0  502  501  0.00000000000E+00  0.00000000000E+00  0.13140873296E+03  0.13140873296E+03  0.00000000000E+00 0. -1.
         21   -1    0    0  501  502 -0.00000000000E+00 -0.00000000000E+00 -0.38850080735E+03  0.38850080735E+03  0.00000000000E+00 0. -1.
      99926    2    1    2    0    0  0.71054273576E-14  0.00000000000E+00 -0.25709207439E+03  0.51990954031E+03  0.45189555806E+03 0.  0.
      99925    2    3    3    0    0  0.63101714151E+02 -0.48222162095E+02 -0.74335764768E+02  0.28463399961E+03  0.26302757378E+03 0.  0.
         25    1    4    4    0    0  0.20442057386E+02  0.70377394004E+01 -0.60772857150E+02  0.14074180528E+03  0.12509000000E+03 0.  0.
         25    1    3    3    0    0 -0.63101714151E+02  0.48222162095E+02 -0.18275630962E+03  0.23527554070E+03  0.12509000000E+03 0.  0.
         25    1    4    4    0    0  0.42659656766E+02 -0.55259901495E+02 -0.13562907618E+02  0.14389219434E+03  0.12509000000E+03 0.  0.
<mgrwt>
<rscale>  2 0.45189556E+03</rscale>
<asrwt>0</asrwt>
<pdfrwt beam="1">  1       21 0.19324814E-01 0.45189556E+03</pdfrwt>
<pdfrwt beam="2">  1       21 0.57132471E-01 0.45189556E+03</pdfrwt>
<totfact> 0.65491570E+04</totfact>
</mgrwt>
</event>
<event>
 7    0  0.4775379E-002  0.4444082E+03  0.7546771E-02  0.1029403E+00
         21   -1    0    0  502  501  0.00000000000E+00  0.00000000000E+00  0.49390762727E+02  0.49390762727E+02  0.00000000000E+00 0.  1.
         21   -1    0    0  501  502 -0.00000000000E+00 -0.00000000000E+00 -0.99967410268E+03  0.99967410268E+03  0.00000000000E+00 0.  1.
      99926    2    1    2    0    0  0.35527136788E-14  0.00000000000E+00 -0.95028333995E+03  0.10490648654E+04  0.44440821959E+03 0.  0.
      99925    2    3    3    0    0 -0.26532172350E+02  0.65034904577E+02 -0.78249460391E+03  0.82830693684E+03  0.26241395063E+03 0.  0.
         25    1    4    4    0    0  0.91931087493E+01  0.64656312446E+02 -0.43084744683E+03  0.45336738141E+03  0.12509000000E+03 0.  0.
         25    1    4    4    0    0 -0.35725281099E+02  0.37859213069E+00 -0.35164715708E+03  0.37493955543E+03  0.12509000000E+03 0.  0.
         25    1    3    3    0    0  0.26532172350E+02 -0.65034904577E+02 -0.16778873604E+03  0.22075792856E+03  0.12509000000E+03 0.  0.
<mgrwt>
<rscale>  2 0.44440822E+03</rscale>
<asrwt>0</asrwt>
<pdfrwt beam="1">  1       21 0.72633479E-02 0.44440822E+03</pdfrwt>
<pdfrwt beam="2">  1       21 0.14701089E+00 0.44440822E+03</pdfrwt>
<totfact> 0.40562774E+04</totfact>
</mgrwt>
</event>
<event>
 7    0  0.4775379E-002  0.4532481E+03  0.7546771E-02  0.1026758E+00
         21   -1    0    0  502  501  0.00000000000E+00  0.00000000000E+00  0.15703471342E+03  0.15703471342E+03  0.00000000000E+00 0. -1.
         21   -1    0    0  501  502 -0.00000000000E+00 -0.00000000000E+00 -0.32705161468E+03  0.32705161468E+03  0.00000000000E+00 0. -1.
      99926    2    1    2    0    0 -0.14210854715E-13  0.35527136788E-14 -0.17001690125E+03  0.48408632810E+03  0.45324808476E+03 0.  0.
      99925    2    3    3    0    0 -0.10015175915E+03  0.30006713087E+02 -0.65545560526E+02  0.29045640576E+03  0.26294091628E+03 0.  0.
         25    1    3    3    0    0  0.10015175915E+03 -0.30006713087E+02 -0.10447134073E+03  0.19362992234E+03  0.12509000000E+03 0.  0.
         25    1    4    4    0    0 -0.87031375000E+02  0.21259101685E+02 -0.14894470061E+02  0.15458254422E+03  0.12509000000E+03 0.  0.
         25    1    4    4    0    0 -0.13120384147E+02  0.87476114025E+01 -0.50651090465E+02  0.13587386154E+03  0.12509000000E+03 0.  0.
<mgrwt>
<rscale>  2 0.45324808E+03</rscale>
<asrwt>0</asrwt>
<pdfrwt beam="1">  1       21 0.23093341E-01 0.45324808E+03</pdfrwt>
<pdfrwt beam="2">  1       21 0.48095825E-01 0.45324808E+03</pdfrwt>
<totfact> 0.67335427E+04</totfact>
</mgrwt>
</event>
<event>
 7    0  0.4775379E-002  0.4643688E+03  0.7546771E-02  0.1023522E+00
         21   -1    0    0  502  501  0.00000000000E+00  0.00000000000E+00  0.88297798442E+02  0.88297798442E+02  0.00000000000E+00 0. -1.
         21   -1    0    0  501  502 -0.00000000000E+00 -0.00000000000E+00 -0.61054284831E+03  0.61054284831E+03  0.00000000000E+00 0. -1.
      99926    2    1    2    0    0  0.00000000000E+00  0.14210854715E-13 -0.52224504987E+03  0.69884064676E+03  0.46436877311E+03 0.  0.
      99925    2    3    3    0    0 -0.57400744613E+02 -0.92269174638E+02 -0.40840662823E+03  0.49780547468E+03  0.26307008680E+03 0.  0.
         25    1    3    3    0    0  0.57400744613E+02  0.92269174638E+02 -0.11383842165E+03  0.20103517208E+03  0.12509000000E+03 0.  0.
         25    1    4    4    0    0 -0.50364049566E+02 -0.13150366071E+02 -0.17468293845E+03  0.22106810422E+03  0.12509000000E+03 0.  0.
         25    1    4    4    0    0 -0.70366950466E+01 -0.79118808567E+02 -0.23372368978E+03  0.27673737046E+03  0.12509000000E+03 0.  0.
<mgrwt>
<rscale>  2 0.46436877E+03</rscale>
<asrwt>0</asrwt>
<pdfrwt beam="1">  1       21 0.12984971E-01 0.46436877E+03</pdfrwt>
<pdfrwt beam="2">  1       21 0.89785711E-01 0.46436877E+03</pdfrwt>
<totfact> 0.49233657E+04</totfact>
</mgrwt>
</event>
<event>
 7    0  0.4775379E-002  0.4574175E+03  0.7546771E-02  0.1025533E+00
         21   -1    0    0  502  501  0.00000000000E+00  0.00000000000E+00  0.25772788438E+03  0.25772788438E+03  0.00000000000E+00 0.  1.
         21   -1    0    0  501  502 -0.00000000000E+00 -0.00000000000E+00 -0.20295703351E+03  0.20295703351E+03  0.00000000000E+00 0.  1.
      99926    2    1    2    0    0  0.00000000000E+00  0.00000000000E+00  0.54770850868E+02  0.46068491789E+03  0.45741747613E+03 0.  0.
      99925    2    3    3    0    0 -0.13019871253E+02 -0.10170719789E+03  0.87720866235E+02  0.29561801399E+03  0.26302317136E+03 0.  0.
         25    1    4    4    0    0  0.29729079969E+02 -0.56462945704E+02  0.62202370130E+02  0.15358556372E+03  0.12509000000E+03 0.  0.
         25    1    4    4    0    0 -0.42748951222E+02 -0.45244252189E+02  0.25518496106E+02  0.14203245027E+03  0.12509000000E+03 0.  0.
         25    1    3    3    0    0  0.13019871253E+02  0.10170719789E+03 -0.32950015367E+02  0.16506690390E+03  0.12509000000E+03 0.  0.
<mgrwt>
<rscale>  2 0.45741748E+03</rscale>
<asrwt>0</asrwt>
<pdfrwt beam="1">  1       21 0.37901160E-01 0.45741748E+03</pdfrwt>
<pdfrwt beam="2">  1       21 0.29846622E-01 0.45741748E+03</pdfrwt>
<totfact> 0.66832817E+04</totfact>
</mgrwt>
</event>
<event>
 7    0  0.4775379E-002  0.4649719E+03  0.7546771E-02  0.1023349E+00
         21   -1    0    0  502  501  0.00000000000E+00  0.00000000000E+00  0.34848267272E+03  0.34848267272E+03  0.00000000000E+00 0. -1.
         21   -1    0    0  501  502 -0.00000000000E+00 -0.00000000000E+00 -0.15510016709E+03  0.15510016709E+03  0.00000000000E+00 0. -1.
      99926    2    1    2    0    0 -0.71054273576E-14 -0.26645352591E-14  0.19338250563E+03  0.50358283980E+03  0.46497191642E+03 0.  0.
      99925    2    3    3    0    0 -0.60345754597E+02 -0.57223724331E+01  0.23558688175E+03  0.35831387166E+03  0.26308419969E+03 0.  0.
         25    1    4    4    0    0 -0.27053188623E+02  0.21609094353E+02  0.73751377776E+02  0.14928362870E+03  0.12509000000E+03 0.  0.
         25    1    4    4    0    0 -0.33292565973E+02 -0.27331466786E+02  0.16183550397E+03  0.20903024296E+03  0.12509000000E+03 0.  0.
         25    1    3    3    0    0  0.60345754597E+02  0.57223724331E+01 -0.42204376112E+02  0.14526896815E+03  0.12509000000E+03 0.  0.
<mgrwt>
<rscale>  2 0.46497192E+03</rscale>
<asrwt>0</asrwt>
<pdfrwt beam="1">  1       21 0.51247452E-01 0.46497192E+03</pdfrwt>
<pdfrwt beam="2">  1       21 0.22808848E-01 0.46497192E+03</pdfrwt>
<totfact> 0.60117966E+04</totfact>
</mgrwt>
</event>
<event>
 7    0  0.4775379E-002  0.4549371E+03  0.7546771E-02  0.1026260E+00
         21   -1    0    0  502  501  0.00000000000E+00  0.00000000000E+00  0.28002362595E+03  0.28002362595E+03  0.00000000000E+00 0.  1.
         21   -1    0    0  501  502 -0.00000000000E+00 -0.00000000000E+00 -0.18477703757E+03  0.18477703757E+03  0.00000000000E+00 0.  1.
      99926    2    1    2    0    0  0.35527136788E-14  0.00000000000E+00  0.95246588379E+02  0.46480066352E+03  0.45493707720E+03 0.  0.
      99925    2    3    3    0    0  0.28332727035E+02  0.33771948793E+02  0.16625275816E+03  0.31435907288E+03  0.26313182849E+03 0.  0.
         25    1    4    4    0    0 -0.17919087939E+02 -0.51490587467E+01  0.63219046816E+02  0.14139222927E+03  0.12509000000E+03 0.  0.
         25    1    4    4    0    0  0.46251814974E+02  0.38921007539E+02  0.10303371134E+03  0.17296684361E+03  0.12509000000E+03 0.  0.
         25    1    3    3    0    0 -0.28332727035E+02 -0.33771948793E+02 -0.71006169776E+02  0.15044159064E+03  0.12509000000E+03 0.  0.
<mgrwt>
<rscale>  2 0.45493708E+03</rscale>
<asrwt>0</asrwt>
<pdfrwt beam="1">  1       21 0.41179945E-01 0.45493708E+03</pdfrwt>
<pdfrwt beam="2">  1       21 0.27173094E-01 0.45493708E+03</pdfrwt>
<totfact> 0.67858981E+04</totfact>
</mgrwt>
</event>
<event>
 7    0  0.4775379E-002  0.4540078E+03  0.7546771E-02  0.1026534E+00
         21   -1    0    0  502  501  0.00000000000E+00  0.00000000000E+00  0.96667219376E+03  0.96667219376E+03  0.00000000000E+00 0. -1.
         21   -1    0    0  501  502 -0.00000000000E+00 -0.00000000000E+00 -0.53307399032E+02  0.53307399032E+02  0.00000000000E+00 0. -1.
      99926    2    1    2    0    0  0.00000000000E+00  0.00000000000E+00  0.91336479473E+03  0.10199795928E+04  0.45400784295E+03 0.  0.
      99925    2    3    3    0    0  0.29218509503E+02 -0.60965465518E+02  0.37413028740E+03  0.46231314116E+03  0.26303889305E+03 0.  0.
         25    1    3    3    0    0 -0.29218509503E+02  0.60965465518E+02  0.53923450733E+03  0.55766645164E+03  0.12509000000E+03 0.  0.
         25    1    4    4    0    0  0.20416662374E+02 -0.29600833311E+01  0.23018323093E+03  0.26278780432E+03  0.12509000000E+03 0.  0.
         25    1    4    4    0    0  0.88018471292E+01 -0.58005382187E+02  0.14394705646E+03  0.19952533684E+03  0.12509000000E+03 0.  0.
<mgrwt>
<rscale>  2 0.45400784E+03</rscale>
<asrwt>0</asrwt>
<pdfrwt beam="1">  1       21 0.14215767E+00 0.45400784E+03</pdfrwt>
<pdfrwt beam="2">  1       21 0.78393240E-02 0.45400784E+03</pdfrwt>
<totfact> 0.38697460E+04</totfact>
</mgrwt>
</event>
<event>
 7    0  0.4775379E-002  0.4485226E+03  0.7546771E-02  0.1028164E+00
         21   -1    0    0  502  501  0.00000000000E+00  0.00000000000E+00  0.47641781221E+03  0.47641781221E+03  0.00000000000E+00 0. -1.
         21   -1    0    0  501  502 -0.00000000000E+00 -0.00000000000E+00 -0.10556518111E+03  0.10556518111E+03  0.00000000000E+00 0. -1.
      99926    2    1    2    0    0  0.00000000000E+00  0.71054273576E-14  0.37085263109E+03  0.58198299332E+03  0.44852260871E+03 0.  0.
      99925    2    3    3    0    0  0.54516095892E+02  0.39799587205E+02  0.12718562334E+03  0.29988880582E+03  0.26306102185E+03 0.  0.
         25    1    4    4    0    0  0.56672077919E+01  0.23590112413E+02  0.99866149748E+02  0.16189307154E+03  0.12509000000E+03 0.  0.
         25    1    3    3    0    0 -0.54516095892E+02 -0.39799587205E+02  0.24366700775E+03  0.28209418750E+03  0.12509000000E+03 0.  0.
         25    1    4    4    0    0  0.48848888100E+02  0.16209474791E+02  0.27319473593E+02  0.13799573428E+03  0.12509000000E+03 0.  0.
<mgrwt>
<rscale>  2 0.44852261E+03</rscale>
<asrwt>0</asrwt>
<pdfrwt beam="1">  1       21 0.70061442E-01 0.44852261E+03</pdfrwt>
<pdfrwt beam="2">  1       21 0.15524291E-01 0.44852261E+03</pdfrwt>
<totfact> 0.62963817E+04</totfact>
</mgrwt>
</event>
<event>
 7    0  0.4775379E-002  0.4705606E+03  0.7546771E-02  0.1021762E+00
         21   -1    0    0  502  501  0.00000000000E+00  0.00000000000E+00  0.13990289860E+04  0.13990289860E+04  0.00000000000E+00 0.  1.
         21   -1    0    0  501  502 -0.00000000000E+00 -0.00000000000E+00 -0.39568035568E+02  0.39568035568E+02  0.00000000000E+00 0.  1.
      99926    2    1    2    0    0  0.00000000000E+00  0.00000000000E+00  0.13594609505E+04  0.14385970216E+04  0.47056063873E+03 0.  0.
      99925    2    3    3    0    0  0.10374703180E+03 -0.42722848277E+01  0.10686428835E+04  0.11054238606E+04  0.26302585455E+03 0.  0.
         25    1    3    3    0    0 -0.10374703180E+03  0.42722848277E+01  0.29081806701E+03  0.33317316102E+03  0.12509000000E+03 0.  0.
         25    1    4    4    0    0  0.77726446899E+02 -0.22783310231E+02  0.47172369196E+03  0.49470317306E+03  0.12509000000E+03 0.  0.
         25    1    4    4    0    0  0.26020584897E+02  0.18511025403E+02  0.59691919151E+03  0.61072068754E+03  0.12509000000E+03 0.  0.
<mgrwt>
<rscale>  2 0.47056064E+03</rscale>
<asrwt>0</asrwt>
<pdfrwt beam="1">  1       21 0.20573952E+00 0.47056064E+03</pdfrwt>
<pdfrwt beam="2">  1       21 0.58188297E-02 0.47056064E+03</pdfrwt>
<totfact> 0.22478359E+04</totfact>
</mgrwt>
</event>
<event>
 7    0  0.4775379E-002  0.4581387E+03  0.7546771E-02  0.1025322E+00
         21   -1    0    0  502  501  0.00000000000E+00  0.00000000000E+00  0.37368432126E+03  0.37368432126E+03  0.00000000000E+00 0. -1.
         21   -1    0    0  501  502 -0.00000000000E+00 -0.00000000000E+00 -0.14042006023E+03  0.14042006023E+03  0.00000000000E+00 0. -1.
      99926    2    1    2    0    0  0.00000000000E+00 -0.71054273576E-14  0.23326426103E+03  0.51410438149E+03  0.45813873400E+03 0.  0.
      99925    2    3    3    0    0 -0.68342641687E+02 -0.61610798394E+02  0.22578522636E+03  0.35863717848E+03  0.26301150202E+03 0.  0.
         25    1    3    3    0    0  0.68342641687E+02  0.61610798394E+02  0.74790346690E+01  0.15546720301E+03  0.12509000000E+03 0.  0.
         25    1    4    4    0    0 -0.56294054511E+02 -0.38756798986E+02  0.16227055388E+03  0.21598692274E+03  0.12509000000E+03 0.  0.
         25    1    4    4    0    0 -0.12048587176E+02 -0.22853999408E+02  0.63514672485E+02  0.14265025574E+03  0.12509000000E+03 0.  0.
<mgrwt>
<rscale>  2 0.45813873E+03</rscale>
<asrwt>0</asrwt>
<pdfrwt beam="1">  1       21 0.54953577E-01 0.45813873E+03</pdfrwt>
<pdfrwt beam="2">  1       21 0.20650009E-01 0.45813873E+03</pdfrwt>
<totfact> 0.62714004E+04</totfact>
</mgrwt>
</event>
<event>
 7    0  0.4775379E-002  0.4584577E+03  0.7546771E-02  0.1025229E+00
         21   -1    0    0  502  501  0.00000000000E+00  0.00000000000E+00  0.24953638073E+03  0.24953638073E+03  0.00000000000E+00 0. -1.
         21   -1    0    0  501  502 -0.00000000000E+00 -0.00000000000E+00 -0.21057396858E+03  0.21057396858E+03  0.00000000000E+00 0. -1.
      99926    2    1    2    0    0  0.35527136788E-14  0.00000000000E+00  0.38962412153E+02  0.46011034930E+03  0.45845770140E+03 0.  0.
      99925    2    3    3    0    0  0.21848582613E+02  0.91936907639E+02 -0.43289095322E+02  0.28307200846E+03  0.26329842508E+03 0.  0.
         25    1    3    3    0    0 -0.21848582613E+02 -0.91936907639E+02  0.82251507476E+02  0.17703834085E+03  0.12509000000E+03 0.  0.
         25    1    4    4    0    0 -0.38424010802E+01  0.72754708627E+02 -0.51573680147E+02  0.15367291322E+03  0.12509000000E+03 0.  0.
         25    1    4    4    0    0  0.25690983694E+02  0.19182199012E+02  0.82845848248E+01  0.12939909524E+03  0.12509000000E+03 0.  0.
<mgrwt>
<rscale>  2 0.45845770E+03</rscale>
<asrwt>0</asrwt>
<pdfrwt beam="1">  1       21 0.36696527E-01 0.45845770E+03</pdfrwt>
<pdfrwt beam="2">  1       21 0.30966760E-01 0.45845770E+03</pdfrwt>
<totfact> 0.66324329E+04</totfact>
</mgrwt>
</event>
<event>
 7    0  0.4775379E-002  0.4509738E+03  0.7546771E-02  0.1027432E+00
         21   -1    0    0  502  501  0.00000000000E+00  0.00000000000E+00  0.37702700266E+03  0.37702700266E+03  0.00000000000E+00 0.  1.
         21   -1    0    0  501  502 -0.00000000000E+00 -0.00000000000E+00 -0.13485599450E+03  0.13485599450E+03  0.00000000000E+00 0.  1.
      99926    2    1    2    0    0  0.00000000000E+00  0.00000000000E+00  0.24217100816E+03  0.51188299717E+03  0.45097384137E+03 0.  0.
      99925    2    3    3    0    0  0.90632979857E+02  0.41626704487E+02  0.10182468705E+03  0.29906448878E+03  0.26291478085E+03 0.  0.
         25    1    3    3    0    0 -0.90632979857E+02 -0.41626704487E+02  0.14034632111E+03  0.21281850839E+03  0.12509000000E+03 0.  0.
         25    1    4    4    0    0  0.34730232666E+02 -0.16953286245E+02  0.33534754051E+02  0.13515062266E+03  0.12509000000E+03 0.  0.
         25    1    4    4    0    0  0.55902747191E+02  0.58579990732E+02  0.68289932999E+02  0.16391386612E+03  0.12509000000E+03 0.  0.
<mgrwt>
<rscale>  2 0.45097384E+03</rscale>
<asrwt>0</asrwt>
<pdfrwt beam="1">  1       21 0.55445147E-01 0.45097384E+03</pdfrwt>
<pdfrwt beam="2">  1       21 0.19831764E-01 0.45097384E+03</pdfrwt>
<totfact> 0.66544378E+04</totfact>
</mgrwt>
</event>
<event>
 7    0  0.4775379E-002  0.4646895E+03  0.7546771E-02  0.1023430E+00
         21   -1    0    0  502  501  0.00000000000E+00  0.00000000000E+00  0.18315630967E+03  0.18315630967E+03  0.00000000000E+00 0.  1.
         21   -1    0    0  501  502 -0.00000000000E+00 -0.00000000000E+00 -0.29474326484E+03  0.29474326484E+03  0.00000000000E+00 0.  1.
      99926    2    1    2    0    0  0.00000000000E+00  0.00000000000E+00 -0.11158695517E+03  0.47789957452E+03  0.46468952512E+03 0.  0.
      99925    2    3    3    0    0  0.47804470584E+02 -0.98174575781E+02 -0.13852185163E+02  0.28522599536E+03  0.26313204035E+03 0.  0.
         25    1    3    3    0    0 -0.47804470584E+02  0.98174575781E+02 -0.97734770007E+02  0.19267357916E+03  0.12509000000E+03 0.  0.
         25    1    4    4    0    0  0.41045065056E+02 -0.42252987069E+02 -0.43350926231E+02  0.14490280600E+03  0.12509000000E+03 0.  0.
         25    1    4    4    0    0  0.67594055275E+01 -0.55921588712E+02  0.29498741069E+02  0.14032318936E+03  0.12509000000E+03 0.  0.
<mgrwt>
<rscale>  2 0.46468953E+03</rscale>
<asrwt>0</asrwt>
<pdfrwt beam="1">  1       21 0.26934752E-01 0.46468953E+03</pdfrwt>
<pdfrwt beam="2">  1       21 0.43344597E-01 0.46468953E+03</pdfrwt>
<totfact> 0.61951740E+04</totfact>
</mgrwt>
</event>
<event>
 7    0  0.4775379E-002  0.4533326E+03  0.7546771E-02  0.1026733E+00
         21   -1    0    0  502  501  0.00000000000E+00  0.00000000000E+00  0.31787088167E+03  0.31787088167E+03  0.00000000000E+00 0. -1.
         21   -1    0    0  501  502 -0.00000000000E+00 -0.00000000000E+00 -0.16163042479E+03  0.16163042479E+03  0.00000000000E+00 0. -1.
      99926    2    1    2    0    0  0.00000000000E+00  0.00000000000E+00  0.15624045688E+03  0.47950130646E+03  0.45333257387E+03 0.  0.
      99925    2    3    3    0    0 -0.73422631442E+02  0.91511997634E+01  0.18666983964E+03  0.33101533844E+03  0.26315565353E+03 0.  0.
         25    1    4    4    0    0 -0.31116740081E+02  0.12994243759E+01  0.43408589018E+02  0.13602115173E+03  0.12509000000E+03 0.  0.
         25    1    3    3    0    0  0.73422631442E+02 -0.91511997634E+01 -0.30429382765E+02  0.14848596803E+03  0.12509000000E+03 0.  0.
         25    1    4    4    0    0 -0.42305891361E+02  0.78517753875E+01  0.14326125062E+03  0.19499418671E+03  0.12509000000E+03 0.  0.
<mgrwt>
<rscale>  2 0.45333257E+03</rscale>
<asrwt>0</asrwt>
<pdfrwt beam="1">  1       21 0.46745718E-01 0.45333257E+03</pdfrwt>
<pdfrwt beam="2">  1       21 0.23769180E-01 0.45333257E+03</pdfrwt>
<totfact> 0.67627058E+04</totfact>
</mgrwt>
</event>
<event>
 7    0  0.4775379E-002  0.4451626E+03  0.7546771E-02  0.1029174E+00
         21   -1    0    0  502  501  0.00000000000E+00  0.00000000000E+00  0.20407403934E+03  0.20407403934E+03  0.00000000000E+00 0. -1.
         21   -1    0    0  501  502 -0.00000000000E+00 -0.00000000000E+00 -0.24276699255E+03  0.24276699255E+03  0.00000000000E+00 0. -1.
      99926    2    1    2    0    0  0.00000000000E+00  0.00000000000E+00 -0.38692953205E+02  0.44684103189E+03  0.44516262551E+03 0.  0.
      99925    2    3    3    0    0 -0.52728139804E+02  0.70644791406E+02  0.30166242443E+02  0.27903149639E+03  0.26301640731E+03 0.  0.
         25    1    4    4    0    0 -0.47793605675E+01  0.36327536561E+02  0.49434275224E+02  0.13940512138E+03  0.12509000000E+03 0.  0.
         25    1    3    3    0    0  0.52728139804E+02 -0.70644791406E+02 -0.68859195648E+02  0.16780953550E+03  0.12509000000E+03 0.  0.
         25    1    4    4    0    0 -0.47948779236E+02  0.34317254845E+02 -0.19268032781E+02  0.13962637501E+03  0.12509000000E+03 0.  0.
<mgrwt>
<rscale>  2 0.44516263E+03</rscale>
<asrwt>0</asrwt>
<pdfrwt beam="1">  1       21 0.30010888E-01 0.44516263E+03</pdfrwt>
<pdfrwt beam="2">  1       21 0.35701028E-01 0.44516263E+03</pdfrwt>
<totfact> 0.74852534E+04</totfact>
</mgrwt>
</event>
<event>
 7    0  0.4775379E-002  0.4564466E+03  0.7546771E-02  0.1025817E+00
         21   -1    0    0  502  501  0.00000000000E+00  0.00000000000E+00  0.15597044379E+04  0.15597044379E+04  0.00000000000E+00 0.  1.
         21   -1    0    0  501  502 -0.00000000000E+00 -0.00000000000E+00 -0.33394703695E+02  0.33394703695E+02  0.00000000000E+00 0.  1.
      99926    2    1    2    0    0  0.00000000000E+00  0.88817841970E-15  0.15263097342E+04  0.15930991416E+04  0.45644656885E+03 0.  0.
      99925    2    3    3    0    0  0.14768136289E+02  0.32955215457E+01  0.13553564686E+04  0.13807280384E+04  0.26303954266E+03 0.  0.
         25    1    4    4    0    0 -0.11693101467E+02  0.14604097381E+02  0.84830923472E+03  0.85768646608E+03  0.12509000000E+03 0.  0.
         25    1    3    3    0    0 -0.14768136289E+02 -0.32955215457E+01  0.17095326562E+03  0.21237110311E+03  0.12509000000E+03 0.  0.
         25    1    4    4    0    0  0.26461237756E+02 -0.11308575835E+02  0.50704723383E+03  0.52304157237E+03  0.12509000000E+03 0.  0.
<mgrwt>
<rscale>  2 0.45644657E+03</rscale>
<asrwt>0</asrwt>
<pdfrwt beam="1">  1       21 0.22936825E+00 0.45644657E+03</pdfrwt>
<pdfrwt beam="2">  1       21 0.49109869E-02 0.45644657E+03</pdfrwt>
<totfact> 0.21345401E+04</totfact>
</mgrwt>
</event>
<event>
 7    0  0.4775379E-002  0.4549321E+03  0.7546771E-02  0.1026261E+00
         21   -1    0    0  502  501  0.00000000000E+00  0.00000000000E+00  0.16504517156E+03  0.16504517156E+03  0.00000000000E+00 0.  1.
         21   -1    0    0  501  502 -0.00000000000E+00 -0.00000000000E+00 -0.31349486489E+03  0.31349486489E+03  0.00000000000E+00 0.  1.
      99926    2    1    2    0    0 -0.14210854715E-13  0.00000000000E+00 -0.14844969333E+03  0.47854003644E+03  0.45493214332E+03 0.  0.
      99925    2    3    3    0    0 -0.10448311699E+03  0.41247368970E+02 -0.79715377528E+02  0.29690859244E+03  0.26302491073E+03 0.  0.
         25    1    3    3    0    0  0.10448311699E+03 -0.41247368970E+02 -0.68734315802E+02  0.18163144401E+03  0.12509000000E+03 0.  0.
         25    1    4    4    0    0 -0.44767255624E+02 -0.16568537579E+02 -0.54798341067E+02  0.14466855186E+03  0.12509000000E+03 0.  0.
         25    1    4    4    0    0 -0.59715861367E+02  0.57815906549E+02 -0.24917036462E+02  0.15224004058E+03  0.12509000000E+03 0.  0.
<mgrwt>
<rscale>  2 0.45493214E+03</rscale>
<asrwt>0</asrwt>
<pdfrwt beam="1">  1       21 0.24271349E-01 0.45493214E+03</pdfrwt>
<pdfrwt beam="2">  1       21 0.46102185E-01 0.45493214E+03</pdfrwt>
<totfact> 0.66842517E+04</totfact>
</mgrwt>
</event>
<event>
 7    0  0.4775379E-002  0.4206714E+03  0.7546771E-02  0.1036848E+00
         21   -1    0    0  502  501  0.00000000000E+00  0.00000000000E+00  0.19258732731E+03  0.19258732731E+03  0.00000000000E+00 0.  1.
         21   -1    0    0  501  502 -0.00000000000E+00 -0.00000000000E+00 -0.22971967145E+03  0.22971967145E+03  0.00000000000E+00 0.  1.
      99926    2    1    2    0    0  0.00000000000E+00  0.26645352591E-14 -0.37132344138E+02  0.42230699876E+03  0.42067135655E+03 0.  0.
      99925    2    3    3    0    0  0.74892008265E+02  0.36011225240E+01 -0.11816895300E+02  0.27428618592E+03  0.26357445207E+03 0.  0.
         25    1    3    3    0    0 -0.74892008265E+02 -0.36011225240E+01 -0.25315448838E+02  0.14802081284E+03  0.12509000000E+03 0.  0.
         25    1    4    4    0    0  0.52113951082E+02 -0.25106515149E+02  0.22148520631E+02  0.13958605255E+03  0.12509000000E+03 0.  0.
         25    1    4    4    0    0  0.22778057183E+02  0.28707637673E+02 -0.33965415931E+02  0.13470013337E+03  0.12509000000E+03 0.  0.
<mgrwt>
<rscale>  2 0.42067136E+03</rscale>
<asrwt>0</asrwt>
<pdfrwt beam="1">  1       21 0.28321666E-01 0.42067136E+03</pdfrwt>
<pdfrwt beam="2">  1       21 0.33782305E-01 0.42067136E+03</pdfrwt>
<totfact> 0.94314444E+04</totfact>
</mgrwt>
</event>
<event>
 7    0  0.4775379E-002  0.4524241E+03  0.7546771E-02  0.1027002E+00
         21   -1    0    0  502  501  0.00000000000E+00  0.00000000000E+00  0.10879326464E+03  0.10879326464E+03  0.00000000000E+00 0.  1.
         21   -1    0    0  501  502 -0.00000000000E+00 -0.00000000000E+00 -0.47035896804E+03  0.47035896804E+03  0.00000000000E+00 0.  1.
      99926    2    1    2    0    0 -0.71054273576E-14  0.71054273576E-14 -0.36156570341E+03  0.57915223268E+03  0.45242408284E+03 0.  0.
      99925    2    3    3    0    0 -0.45189784243E+02  0.37606311950E+02 -0.10796264193E+03  0.29032984403E+03  0.26301926732E+03 0.  0.
         25    1    4    4    0    0  0.93580305851E+01 -0.29921342199E+01 -0.66660028892E+02  0.14208305020E+03  0.12509000000E+03 0.  0.
         25    1    4    4    0    0 -0.54547814828E+02  0.40598446170E+02 -0.41302613042E+02  0.14824679382E+03  0.12509000000E+03 0.  0.
         25    1    3    3    0    0  0.45189784243E+02 -0.37606311950E+02 -0.25360306147E+03  0.28882238865E+03  0.12509000000E+03 0.  0.
<mgrwt>
<rscale>  2 0.45242408E+03</rscale>
<asrwt>0</asrwt>
<pdfrwt beam="1">  1       21 0.15999009E-01 0.45242408E+03</pdfrwt>
<pdfrwt beam="2">  1       21 0.69170437E-01 0.45242408E+03</pdfrwt>
<totfact> 0.61217392E+04</totfact>
</mgrwt>
</event>
<event>
 7    0  0.4775379E-002  0.4572434E+03  0.7546771E-02  0.1025584E+00
         21   -1    0    0  502  501  0.00000000000E+00  0.00000000000E+00  0.70142964563E+02  0.70142964563E+02  0.00000000000E+00 0.  1.
         21   -1    0    0  501  502 -0.00000000000E+00 -0.00000000000E+00 -0.74516218536E+03  0.74516218536E+03  0.00000000000E+00 0.  1.
      99926    2    1    2    0    0  0.00000000000E+00  0.00000000000E+00 -0.67501922080E+03  0.81530514993E+03  0.45724341334E+03 0.  0.
      99925    2    3    3    0    0 -0.59986178412E+02  0.96745110813E+02 -0.39142630848E+03  0.48510762406E+03  0.26297698357E+03 0.  0.
         25    1    4    4    0    0 -0.37808621030E+02  0.23241148927E+02 -0.13293305181E+03  0.18785192890E+03  0.12509000000E+03 0.  0.
         25    1    4    4    0    0 -0.22177557382E+02  0.73503961886E+02 -0.25849325667E+03  0.29725569516E+03  0.12509000000E+03 0.  0.
         25    1    3    3    0    0  0.59986178412E+02 -0.96745110813E+02 -0.28359291232E+03  0.33019752587E+03  0.12509000000E+03 0.  0.
<mgrwt>
<rscale>  2 0.45724341E+03</rscale>
<asrwt>0</asrwt>
<pdfrwt beam="1">  1       21 0.10315143E-01 0.45724341E+03</pdfrwt>
<pdfrwt beam="2">  1       21 0.10958267E+00 0.45724341E+03</pdfrwt>
<totfact> 0.46214475E+04</totfact>
</mgrwt>
</event>
<event>
 7    0  0.4775379E-002  0.4840014E+03  0.7546771E-02  0.1018041E+00
         21   -1    0    0  502  501  0.00000000000E+00  0.00000000000E+00  0.76214959241E+03  0.76214959241E+03  0.00000000000E+00 0.  1.
         21   -1    0    0  501  502 -0.00000000000E+00 -0.00000000000E+00 -0.76840997002E+02  0.76840997002E+02  0.00000000000E+00 0.  1.
      99926    2    1    2    0    0  0.00000000000E+00  0.00000000000E+00  0.68530859541E+03  0.83899058941E+03  0.48400138242E+03 0.  0.
      99925    2    3    3    0    0 -0.49250764466E+02  0.97680074666E+02  0.56872856895E+03  0.63599934463E+03  0.26282303257E+03 0.  0.
         25    1    4    4    0    0 -0.27280974412E+02  0.63972222474E+01  0.24846668379E+03  0.27958608168E+03  0.12509000000E+03 0.  0.
         25    1    3    3    0    0  0.49250764466E+02 -0.97680074666E+02  0.11658002645E+03  0.20299124478E+03  0.12509000000E+03 0.  0.
         25    1    4    4    0    0 -0.21969790053E+02  0.91282852419E+02  0.32026188516E+03  0.35641326295E+03  0.12509000000E+03 0.  0.
<mgrwt>
<rscale>  2 0.48400138E+03</rscale>
<asrwt>0</asrwt>
<pdfrwt beam="1">  1       21 0.11208082E+00 0.48400138E+03</pdfrwt>
<pdfrwt beam="2">  1       21 0.11300147E-01 0.48400138E+03</pdfrwt>
<totfact> 0.36816093E+04</totfact>
</mgrwt>
</event>
<event>
 7    0  0.4775379E-002  0.4571902E+03  0.7546771E-02  0.1025599E+00
         21   -1    0    0  502  501  0.00000000000E+00  0.00000000000E+00  0.64745507395E+03  0.64745507395E+03  0.00000000000E+00 0. -1.
         21   -1    0    0  501  502 -0.00000000000E+00 -0.00000000000E+00 -0.80709397106E+02  0.80709397106E+02  0.00000000000E+00 0. -1.
      99926    2    1    2    0    0  0.00000000000E+00 -0.14210854715E-13  0.56674567684E+03  0.72816447105E+03  0.45719015156E+03 0.  0.
      99925    2    3    3    0    0 -0.12904063685E+02 -0.10859011698E+03  0.41388341709E+03  0.50239311122E+03  0.26294681381E+03 0.  0.
         25    1    3    3    0    0  0.12904063685E+02  0.10859011698E+03  0.15286225975E+03  0.22577135983E+03  0.12509000000E+03 0.  0.
         25    1    4    4    0    0 -0.15083262719E+02 -0.30740852886E+02  0.13642079836E+03  0.18823030355E+03  0.12509000000E+03 0.  0.
         25    1    4    4    0    0  0.21791990338E+01 -0.77849264091E+02  0.27746261873E+03  0.31416280767E+03  0.12509000000E+03 0.  0.
<mgrwt>
<rscale>  2 0.45719015E+03</rscale>
<asrwt>0</asrwt>
<pdfrwt beam="1">  1       21 0.95213979E-01 0.45719015E+03</pdfrwt>
<pdfrwt beam="2">  1       21 0.11869029E-01 0.45719015E+03</pdfrwt>
<totfact> 0.50524549E+04</totfact>
</mgrwt>
</event>
<event>
 7    0  0.4775379E-002  0.4499389E+03  0.7546771E-02  0.1027740E+00
         21   -1    0    0  502  501  0.00000000000E+00  0.00000000000E+00  0.69130802586E+03  0.69130802586E+03  0.00000000000E+00 0.  1.
         21   -1    0    0  501  502 -0.00000000000E+00 -0.00000000000E+00 -0.73210873366E+02  0.73210873366E+02  0.00000000000E+00 0.  1.
      99926    2    1    2    0    0  0.00000000000E+00  0.00000000000E+00  0.61809715250E+03  0.76451889923E+03  0.44993894847E+03 0.  0.
      99925    2    3    3    0    0 -0.71844543293E+02  0.19423838584E+02  0.25707192152E+03  0.37525594259E+03  0.26304396156E+03 0.  0.
         25    1    3    3    0    0  0.71844543293E+02 -0.19423838584E+02  0.36102523098E+03  0.38926295663E+03  0.12509000000E+03 0.  0.
         25    1    4    4    0    0 -0.38557814945E+01  0.35346118998E+02  0.11825378083E+03  0.17577166996E+03  0.12509000000E+03 0.  0.
         25    1    4    4    0    0 -0.67988761798E+02 -0.15922280414E+02  0.13881814069E+03  0.19948427263E+03  0.12509000000E+03 0.  0.
<mgrwt>
<rscale>  2 0.44993895E+03</rscale>
<asrwt>0</asrwt>
<pdfrwt beam="1">  1       21 0.10166294E+00 0.44993895E+03</pdfrwt>
<pdfrwt beam="2">  1       21 0.10766305E-01 0.44993895E+03</pdfrwt>
<totfact> 0.51546451E+04</totfact>
</mgrwt>
</event>
<event>
 7    0  0.4775379E-002  0.4762902E+03  0.7546771E-02  0.1020160E+00
         21   -1    0    0  502  501  0.00000000000E+00  0.00000000000E+00  0.98400391042E+02  0.98400391042E+02  0.00000000000E+00 0.  1.
         21   -1    0    0  501  502 -0.00000000000E+00 -0.00000000000E+00 -0.57635028245E+03  0.57635028245E+03  0.00000000000E+00 0.  1.
      99926    2    1    2    0    0  0.28421709430E-13 -0.88817841970E-15 -0.47794989140E+03  0.67475067349E+03  0.47629021896E+03 0.  0.
      99925    2    3    3    0    0 -0.13030441921E+03 -0.55564338786E+01 -0.26480499034E+03  0.39530770512E+03  0.26293798355E+03 0.  0.
         25    1    3    3    0    0  0.13030441921E+03  0.55564338786E+01 -0.21314490106E+03  0.27944296837E+03  0.12509000000E+03 0.  0.
         25    1    4    4    0    0 -0.24253894641E+02 -0.70162522177E+00 -0.93021543557E+02  0.15776330165E+03  0.12509000000E+03 0.  0.
         25    1    4    4    0    0 -0.10605052457E+03 -0.48548086568E+01 -0.17178344679E+03  0.23754440347E+03  0.12509000000E+03 0.  0.
<mgrwt>
<rscale>  2 0.47629022E+03</rscale>
<asrwt>0</asrwt>
<pdfrwt beam="1">  1       21 0.14470646E-01 0.47629022E+03</pdfrwt>
<pdfrwt beam="2">  1       21 0.84757393E-01 0.47629022E+03</pdfrwt>
<totfact> 0.46063808E+04</totfact>
</mgrwt>
</event>
<event>
 7    0  0.4775379E-002  0.4540183E+03  0.7546771E-02  0.1026530E+00
         21   -1    0    0  502  501  0.00000000000E+00  0.00000000000E+00  0.29318573224E+03  0.29318573224E+03  0.00000000000E+00 0.  1.
         21   -1    0    0  501  502 -0.00000000000E+00 -0.00000000000E+00 -0.17576968292E+03  0.17576968292E+03  0.00000000000E+00 0.  1.
      99926    2    1    2    0    0  0.00000000000E+00  0.00000000000E+00  0.11741604932E+03  0.46895541516E+03  0.45401833968E+03 0.  0.
      99925    2    3    3    0    0 -0.85822770634E+02  0.67629317075E+02  0.99445575281E+02  0.30189339516E+03  0.26326968514E+03 0.  0.
         25    1    4    4    0    0 -0.45057822168E+02  0.19267288024E+02  0.81115034355E+01  0.13459101127E+03  0.12509000000E+03 0.  0.
         25    1    3    3    0    0  0.85822770634E+02 -0.67629317075E+02  0.17970474039E+02  0.16706201999E+03  0.12509000000E+03 0.  0.
         25    1    4    4    0    0 -0.40764948467E+02  0.48362029051E+02  0.91334071846E+02  0.16730238390E+03  0.12509000000E+03 0.  0.
<mgrwt>
<rscale>  2 0.45401834E+03</rscale>
<asrwt>0</asrwt>
<pdfrwt beam="1">  1       21 0.43115549E-01 0.45401834E+03</pdfrwt>
<pdfrwt beam="2">  1       21 0.25848483E-01 0.45401834E+03</pdfrwt>
<totfact> 0.68041820E+04</totfact>
</mgrwt>
</event>
<event>
 7    0  0.4775379E-002  0.4728238E+03  0.7546771E-02  0.1021126E+00
         21   -1    0    0  502  501  0.00000000000E+00  0.00000000000E+00  0.81402790350E+03  0.81402790350E+03  0.00000000000E+00 0.  1.
         21   -1    0    0  501  502 -0.00000000000E+00 -0.00000000000E+00 -0.68659314401E+02  0.68659314401E+02  0.00000000000E+00 0.  1.
      99926    2    1    2    0    0  0.00000000000E+00  0.00000000000E+00  0.74536858910E+03  0.88268721790E+03  0.47282384778E+03 0.  0.
      99925    2    3    3    0    0  0.64877938788E+02  0.88891874746E+02  0.33561580497E+03  0.44035729065E+03  0.26299365496E+03 0.  0.
         25    1    3    3    0    0 -0.64877938788E+02 -0.88891874746E+02  0.40975278413E+03  0.44232992725E+03  0.12509000000E+03 0.  0.
         25    1    4    4    0    0  0.46766016260E+02  0.85336521404E+02  0.19405185403E+03  0.25054542964E+03  0.12509000000E+03 0.  0.
         25    1    4    4    0    0  0.18111922528E+02  0.35553533425E+01  0.14156395094E+03  0.18981186101E+03  0.12509000000E+03 0.  0.
<mgrwt>
<rscale>  2 0.47282385E+03</rscale>
<asrwt>0</asrwt>
<pdfrwt beam="1">  1       21 0.11970998E+00 0.47282385E+03</pdfrwt>
<pdfrwt beam="2">  1       21 0.10096959E-01 0.47282385E+03</pdfrwt>
<totfact> 0.38350446E+04</totfact>
</mgrwt>
</event>
<event>
 7    0  0.4775379E-002  0.4531631E+03  0.7546771E-02  0.1026783E+00
         21   -1    0    0  502  501  0.00000000000E+00  0.00000000000E+00  0.27070544862E+02  0.27070544862E+02  0.00000000000E+00 0.  1.
         21   -1    0    0  501  502 -0.00000000000E+00 -0.00000000000E+00 -0.18964965610E+04  0.18964965610E+04  0.00000000000E+00 0.  1.
      99926    2    1    2    0    0 -0.52180482157E-14  0.00000000000E+00 -0.18694260162E+04  0.19235671059E+04  0.45316308427E+03 0.  0.
      99925    2    3    3    0    0  0.99641114334E+00  0.10306884984E+03 -0.13580736982E+04  0.13871410795E+04  0.26300574888E+03 0.  0.
         25    1    4    4    0    0 -0.34020053650E+02  0.74007558590E+02 -0.73637703220E+03  0.75135419373E+03  0.12509000000E+03 0.  0.
         25    1    4    4    0    0  0.35016464793E+02  0.29061291251E+02 -0.62169666601E+03  0.63578688575E+03  0.12509000000E+03 0.  0.
         25    1    3    3    0    0 -0.99641114334E+00 -0.10306884984E+03 -0.51135231797E+03  0.53642602643E+03  0.12509000000E+03 0.  0.
<mgrwt>
<rscale>  2 0.45316308E+03</rscale>
<asrwt>0</asrwt>
<pdfrwt beam="1">  1       21 0.39809618E-02 0.45316308E+03</pdfrwt>
<pdfrwt beam="2">  1       21 0.27889660E+00 0.45316308E+03</pdfrwt>
<totfact> 0.15213782E+04</totfact>
</mgrwt>
</event>
<event>
 7    0  0.4775379E-002  0.4264320E+03  0.7546771E-02  0.1034993E+00
         21   -1    0    0  502  501  0.00000000000E+00  0.00000000000E+00  0.58533483823E+02  0.58533483823E+02  0.00000000000E+00 0. -1.
         21   -1    0    0  501  502 -0.00000000000E+00 -0.00000000000E+00 -0.77666754832E+03  0.77666754832E+03  0.00000000000E+00 0. -1.
      99926    2    1    2    0    0  0.00000000000E+00  0.00000000000E+00 -0.71813406450E+03  0.83520103215E+03  0.42643197524E+03 0.  0.
      99925    2    3    3    0    0  0.73488430902E+02  0.31540806602E+02 -0.41681453833E+03  0.49928982824E+03  0.26298403234E+03 0.  0.
         25    1    4    4    0    0  0.77279528964E+02  0.25992391663E+02 -0.23800428601E+03  0.28096490578E+03  0.12509000000E+03 0.  0.
         25    1    4    4    0    0 -0.37910980618E+01  0.55484149397E+01 -0.17881025232E+03  0.21832492246E+03  0.12509000000E+03 0.  0.
         25    1    3    3    0    0 -0.73488430902E+02 -0.31540806602E+02 -0.30131952617E+03  0.33591120391E+03  0.12509000000E+03 0.  0.
<mgrwt>
<rscale>  2 0.42643198E+03</rscale>
<asrwt>0</asrwt>
<pdfrwt beam="1">  1       21 0.86078657E-02 0.42643198E+03</pdfrwt>
<pdfrwt beam="2">  1       21 0.11421581E+00 0.42643198E+03</pdfrwt>
<totfact> 0.58068637E+04</totfact>
</mgrwt>
</event>
<event>
 7    0  0.4775379E-002  0.4510002E+03  0.7546771E-02  0.1027424E+00
         21   -1    0    0  502  501  0.00000000000E+00  0.00000000000E+00  0.57557971707E+03  0.57557971707E+03  0.00000000000E+00 0.  1.
         21   -1    0    0  501  502 -0.00000000000E+00 -0.00000000000E+00 -0.88346213139E+02  0.88346213139E+02  0.00000000000E+00 0.  1.
      99926    2    1    2    0    0  0.00000000000E+00  0.00000000000E+00  0.48723350393E+03  0.66392593021E+03  0.45100017012E+03 0.  0.
      99925    2    3    3    0    0 -0.94232306784E+02  0.43707006619E+02  0.25735739157E+03  0.38235788301E+03  0.26301082418E+03 0.  0.
         25    1    3    3    0    0  0.94232306784E+02 -0.43707006619E+02  0.22987611236E+03  0.28156804720E+03  0.12509000000E+03 0.  0.
         25    1    4    4    0    0 -0.50324551587E+01  0.11863175853E+02  0.10882501121E+03  0.16630229016E+03  0.12509000000E+03 0.  0.
         25    1    4    4    0    0 -0.89199851625E+02  0.31843830766E+02  0.14853238036E+03  0.21605559285E+03  0.12509000000E+03 0.  0.
<mgrwt>
<rscale>  2 0.45100017E+03</rscale>
<asrwt>0</asrwt>
<pdfrwt beam="1">  1       21 0.84644074E-01 0.45100017E+03</pdfrwt>
<pdfrwt beam="2">  1       21 0.12992090E-01 0.45100017E+03</pdfrwt>
<totfact> 0.56671566E+04</totfact>
</mgrwt>
</event>
<event>
 7    0  0.4775379E-002  0.4733684E+03  0.7546771E-02  0.1020974E+00
         21   -1    0    0  502  501  0.00000000000E+00  0.00000000000E+00  0.50933614424E+03  0.50933614424E+03  0.00000000000E+00 0.  1.
         21   -1    0    0  501  502 -0.00000000000E+00 -0.00000000000E+00 -0.10998515037E+03  0.10998515037E+03  0.00000000000E+00 0.  1.
      99926    2    1    2    0    0  0.14210854715E-13  0.71054273576E-14  0.39935099387E+03  0.61932129461E+03  0.47336840796E+03 0.  0.
      99925    2    3    3    0    0  0.10518848655E+03  0.43974729608E+02  0.32820950641E+03  0.43572659457E+03  0.26294065978E+03 0.  0.
         25    1    4    4    0    0  0.30485852025E+02  0.27891271858E+02  0.10395045167E+03  0.16781094935E+03  0.12509000000E+03 0.  0.
         25    1    4    4    0    0  0.74702634521E+02  0.16083457750E+02  0.22425905474E+03  0.26791564522E+03  0.12509000000E+03 0.  0.
         25    1    3    3    0    0 -0.10518848655E+03 -0.43974729608E+02  0.71141487459E+02  0.18359470004E+03  0.12509000000E+03 0.  0.
<mgrwt>
<rscale>  2 0.47336841E+03</rscale>
<asrwt>0</asrwt>
<pdfrwt beam="1">  1       21 0.74902373E-01 0.47336841E+03</pdfrwt>
<pdfrwt beam="2">  1       21 0.16174287E-01 0.47336841E+03</pdfrwt>
<totfact> 0.49867045E+04</totfact>
</mgrwt>
</event>
<event>
 7    0  0.4775379E-002  0.4579425E+03  0.7546771E-02  0.1025380E+00
         21   -1    0    0  502  501  0.00000000000E+00  0.00000000000E+00  0.96950446795E+02  0.96950446795E+02  0.00000000000E+00 0.  1.
         21   -1    0    0  501  502 -0.00000000000E+00 -0.00000000000E+00 -0.54076949473E+03  0.54076949473E+03  0.00000000000E+00 0.  1.
      99926    2    1    2    0    0  0.00000000000E+00  0.00000000000E+00 -0.44381904794E+03  0.63771994153E+03  0.45794254717E+03 0.  0.
      99925    2    3    3    0    0  0.10234885296E+03  0.44977967667E+02 -0.23549662870E+03  0.37024275795E+03  0.26291202408E+03 0.  0.
         25    1    3    3    0    0 -0.10234885296E+03 -0.44977967667E+02 -0.20832241923E+03  0.26747718358E+03  0.12509000000E+03 0.  0.
         25    1    4    4    0    0  0.52984769067E+02  0.27350829153E+02 -0.17088514329E+03  0.22001066771E+03  0.12509000000E+03 0.  0.
         25    1    4    4    0    0  0.49364083897E+02  0.17627138514E+02 -0.64611485414E+02  0.15023209024E+03  0.12509000000E+03 0.  0.
<mgrwt>
<rscale>  2 0.45794255E+03</rscale>
<asrwt>0</asrwt>
<pdfrwt beam="1">  1       21 0.14257418E-01 0.45794255E+03</pdfrwt>
<pdfrwt beam="2">  1       21 0.79524927E-01 0.45794255E+03</pdfrwt>
<totfact> 0.55123196E+04</totfact>
</mgrwt>
</event>
<event>
 7    0  0.4775379E-002  0.4545991E+03  0.7546771E-02  0.1026359E+00
         21   -1    0    0  502  501  0.00000000000E+00  0.00000000000E+00  0.83655098401E+02  0.83655098401E+02  0.00000000000E+00 0. -1.
         21   -1    0    0  501  502 -0.00000000000E+00 -0.00000000000E+00 -0.61759646224E+03  0.61759646224E+03  0.00000000000E+00 0. -1.
      99926    2    1    2    0    0  0.00000000000E+00  0.00000000000E+00 -0.53394136384E+03  0.70125156064E+03  0.45459913251E+03 0.  0.
      99925    2    3    3    0    0 -0.89735683994E+02  0.39254620040E+02 -0.24971775609E+03  0.37563831540E+03  0.26296723771E+03 0.  0.
         25    1    3    3    0    0  0.89735683994E+02 -0.39254620040E+02 -0.28422360774E+03  0.32561324524E+03  0.12509000000E+03 0.  0.
         25    1    4    4    0    0 -0.24703784494E+02  0.34279885444E+02 -0.77806839892E+02  0.15325403730E+03  0.12509000000E+03 0.  0.
         25    1    4    4    0    0 -0.65031899501E+02  0.49747345959E+01 -0.17191091620E+03  0.22238427810E+03  0.12509000000E+03 0.  0.
<mgrwt>
<rscale>  2 0.45459913E+03</rscale>
<asrwt>0</asrwt>
<pdfrwt beam="1">  1       21 0.12302220E-01 0.45459913E+03</pdfrwt>
<pdfrwt beam="2">  1       21 0.90823012E-01 0.45459913E+03</pdfrwt>
<totfact> 0.53002058E+04</totfact>
</mgrwt>
</event>
<event>
 7    0  0.4775379E-002  0.4487036E+03  0.7546771E-02  0.1028109E+00
         21   -1    0    0  502  501  0.00000000000E+00  0.00000000000E+00  0.57062528443E+03  0.57062528443E+03  0.00000000000E+00 0. -1.
         21   -1    0    0  501  502 -0.00000000000E+00 -0.00000000000E+00 -0.88208033167E+02  0.88208033167E+02  0.00000000000E+00 0. -1.
      99926    2    1    2    0    0  0.00000000000E+00  0.14210854715E-13  0.48241725127E+03  0.65883331760E+03  0.44870361717E+03 0.  0.
      99925    2    3    3    0    0  0.36888550317E+02  0.70229314857E+02  0.41057930891E+03  0.49420913993E+03  0.26339017309E+03 0.  0.
         25    1    4    4    0    0  0.31284986309E+02  0.68995063403E+02  0.18096438811E+03  0.23266862059E+03  0.12509000000E+03 0.  0.
         25    1    3    3    0    0 -0.36888550317E+02 -0.70229314857E+02  0.71837942356E+02  0.16462417766E+03  0.12509000000E+03 0.  0.
         25    1    4    4    0    0  0.56035640076E+01  0.12342514537E+01  0.22961492080E+03  0.26154051934E+03  0.12509000000E+03 0.  0.
<mgrwt>
<rscale>  2 0.44870362E+03</rscale>
<asrwt>0</asrwt>
<pdfrwt beam="1">  1       21 0.83915481E-01 0.44870362E+03</pdfrwt>
<pdfrwt beam="2">  1       21 0.12971770E-01 0.44870362E+03</pdfrwt>
<totfact> 0.58022743E+04</totfact>
</mgrwt>
</event>
<event>
 7    0  0.4775379E-002  0.4570239E+03  0.7546771E-02  0.1025648E+00
         21   -1    0    0  502  501  0.00000000000E+00  0.00000000000E+00  0.15631638009E+04  0.15631638009E+04  0.00000000000E+00 0. -1.
         21   -1    0    0  501  502 -0.00000000000E+00 -0.00000000000E+00 -0.33405144203E+02  0.33405144203E+02  0.00000000000E+00 0. -1.
      99926    2    1    2    0    0  0.00000000000E+00 -0.35527136788E-14  0.15297586567E+04  0.15965689451E+04  0.45702390389E+03 0.  0.
      99925    2    3    3    0    0  0.11144391253E+03 -0.27595866696E+02  0.98410615456E+03  0.10251099014E+04  0.26306673851E+03 0.  0.
         25    1    4    4    0    0  0.96499987272E+02 -0.24718786017E+00  0.52664723726E+03  0.54983372874E+03  0.12509000000E+03 0.  0.
         25    1    4    4    0    0  0.14943925254E+02 -0.27348678836E+02  0.45745891730E+03  0.47527617261E+03  0.12509000000E+03 0.  0.
         25    1    3    3    0    0 -0.11144391253E+03  0.27595866696E+02  0.54565250215E+03  0.57145904377E+03  0.12509000000E+03 0.  0.
<mgrwt>
<rscale>  2 0.45702390E+03</rscale>
<asrwt>0</asrwt>
<pdfrwt beam="1">  1       21 0.22987698E+00 0.45702390E+03</pdfrwt>
<pdfrwt beam="2">  1       21 0.49125222E-02 0.45702390E+03</pdfrwt>
<totfact> 0.21172734E+04</totfact>
</mgrwt>
</event>
<event>
 7    0  0.4775379E-002  0.4582296E+03  0.7546771E-02  0.1025296E+00
         21   -1    0    0  502  501  0.00000000000E+00  0.00000000000E+00  0.82341698287E+03  0.82341698287E+03  0.00000000000E+00 0. -1.
         21   -1    0    0  501  502 -0.00000000000E+00 -0.00000000000E+00 -0.63750912522E+02  0.63750912522E+02  0.00000000000E+00 0. -1.
      99926    2    1    2    0    0  0.00000000000E+00  0.00000000000E+00  0.75966607035E+03  0.88716789539E+03  0.45822956711E+03 0.  0.
      99925    2    3    3    0    0 -0.20771398848E+02 -0.23700724409E+02  0.25978268963E+03  0.37090819547E+03  0.26285484262E+03 0.  0.
         25    1    3    3    0    0  0.20771398848E+02  0.23700724409E+02  0.49988338072E+03  0.51625969992E+03  0.12509000000E+03 0.  0.
         25    1    4    4    0    0 -0.11140716799E+02 -0.49714941937E+02  0.15325037295E+03  0.20427646936E+03  0.12509000000E+03 0.  0.
         25    1    4    4    0    0 -0.96306820485E+01  0.26014217529E+02  0.10653231668E+03  0.16663172611E+03  0.12509000000E+03 0.  0.
<mgrwt>
<rscale>  2 0.45822957E+03</rscale>
<asrwt>0</asrwt>
<pdfrwt beam="1">  1       21 0.12109073E+00 0.45822957E+03</pdfrwt>
<pdfrwt beam="2">  1       21 0.93751347E-02 0.45822957E+03</pdfrwt>
<totfact> 0.42702889E+04</totfact>
</mgrwt>
</event>
<event>
 7    0  0.4775379E-002  0.4564099E+03  0.7546771E-02  0.1025828E+00
         21   -1    0    0  502  501  0.00000000000E+00  0.00000000000E+00  0.20026596133E+03  0.20026596133E+03  0.00000000000E+00 0.  1.
         21   -1    0    0  501  502 -0.00000000000E+00 -0.00000000000E+00 -0.26004167786E+03  0.26004167786E+03  0.00000000000E+00 0.  1.
      99926    2    1    2    0    0  0.00000000000E+00  0.71054273576E-14 -0.59775716535E+02  0.46030763919E+03  0.45640988860E+03 0.  0.
      99925    2    3    3    0    0 -0.79864502738E+02  0.40223739266E+02  0.34470190645E+02  0.27995773728E+03  0.26304344246E+03 0.  0.
         25    1    3    3    0    0  0.79864502738E+02 -0.40223739266E+02 -0.94245907180E+02  0.18034990191E+03  0.12509000000E+03 0.  0.
         25    1    4    4    0    0 -0.16286227262E+01  0.36136378021E+02  0.14720534509E+02  0.13104462013E+03  0.12509000000E+03 0.  0.
         25    1    4    4    0    0 -0.78235880012E+02  0.40873612449E+01  0.19749656136E+02  0.14891311715E+03  0.12509000000E+03 0.  0.
<mgrwt>
<rscale>  2 0.45640989E+03</rscale>
<asrwt>0</asrwt>
<pdfrwt beam="1">  1       21 0.29450877E-01 0.45640989E+03</pdfrwt>
<pdfrwt beam="2">  1       21 0.38241423E-01 0.45640989E+03</pdfrwt>
<totfact> 0.67397160E+04</totfact>
</mgrwt>
</event>
<event>
 7    0  0.4775379E-002  0.4572742E+03  0.7546771E-02  0.1025575E+00
         21   -1    0    0  502  501  0.00000000000E+00  0.00000000000E+00  0.47925222636E+03  0.47925222636E+03  0.00000000000E+00 0. -1.
         21   -1    0    0  501  502 -0.00000000000E+00 -0.00000000000E+00 -0.10907601139E+03  0.10907601139E+03  0.00000000000E+00 0. -1.
      99926    2    1    2    0    0  0.00000000000E+00 -0.35527136788E-14  0.37017621496E+03  0.58832823775E+03  0.45727419041E+03 0.  0.
      99925    2    3    3    0    0  0.94537976651E+02 -0.20097758300E+02  0.31359636182E+03  0.42042905134E+03  0.26282420007E+03 0.  0.
         25    1    4    4    0    0  0.31656347177E+02 -0.23173370559E+02  0.99416499007E+02  0.16453047680E+03  0.12509000000E+03 0.  0.
         25    1    3    3    0    0 -0.94537976651E+02  0.20097758300E+02  0.56579853140E+02  0.16789918642E+03  0.12509000000E+03 0.  0.
         25    1    4    4    0    0  0.62881629474E+02  0.30756122591E+01  0.21417986282E+03  0.25589857454E+03  0.12509000000E+03 0.  0.
<mgrwt>
<rscale>  2 0.45727419E+03</rscale>
<asrwt>0</asrwt>
<pdfrwt beam="1">  1       21 0.70478268E-01 0.45727419E+03</pdfrwt>
<pdfrwt beam="2">  1       21 0.16040590E-01 0.45727419E+03</pdfrwt>
<totfact> 0.58346625E+04</totfact>
</mgrwt>
</event>
<event>
 7    0  0.4775379E-002  0.4555450E+03  0.7546771E-02  0.1026081E+00
         21   -1    0    0  502  501  0.00000000000E+00  0.00000000000E+00  0.97519946528E+02  0.97519946528E+02  0.00000000000E+00 0.  1.
         21   -1    0    0  501  502 -0.00000000000E+00 -0.00000000000E+00 -0.53199697172E+03  0.53199697172E+03  0.00000000000E+00 0.  1.
      99926    2    1    2    0    0 -0.71054273576E-14 -0.14210854715E-13 -0.43447702519E+03  0.62951691824E+03  0.45554501966E+03 0.  0.
      99925    2    3    3    0    0  0.58485200946E+02  0.92205519580E+02 -0.22943268035E+03  0.36567403314E+03  0.26297484125E+03 0.  0.
         25    1    3    3    0    0 -0.58485200946E+02 -0.92205519580E+02 -0.20504434483E+03  0.26384288510E+03  0.12509000000E+03 0.  0.
         25    1    4    4    0    0 -0.11012878998E+01  0.20605197986E+02 -0.12454975518E+03  0.17772432764E+03  0.12509000000E+03 0.  0.
         25    1    4    4    0    0  0.59586488845E+02  0.71600321595E+02 -0.10488292517E+03  0.18794970550E+03  0.12509000000E+03 0.  0.
<mgrwt>
<rscale>  2 0.45554502E+03</rscale>
<asrwt>0</asrwt>
<pdfrwt beam="1">  1       21 0.14341168E-01 0.45554502E+03</pdfrwt>
<pdfrwt beam="2">  1       21 0.78234850E-01 0.45554502E+03</pdfrwt>
<totfact> 0.56653087E+04</totfact>
</mgrwt>
</event>
<event>
 7    0  0.4775379E-002  0.4394481E+03  0.7546771E-02  0.1030916E+00
         21   -1    0    0  502  501  0.00000000000E+00  0.00000000000E+00  0.72844275095E+02  0.72844275095E+02  0.00000000000E+00 0. -1.
         21   -1    0    0  501  502 -0.00000000000E+00 -0.00000000000E+00 -0.66276516365E+03  0.66276516365E+03  0.00000000000E+00 0. -1.
      99926    2    1    2    0    0 -0.13322676296E-14  0.00000000000E+00 -0.58992088856E+03  0.73560943875E+03  0.43944805338E+03 0.  0.
      99925    2    3    3    0    0 -0.29452638646E+01 -0.88586163592E+02 -0.30735269793E+03  0.41413086495E+03  0.26302568205E+03 0.  0.
         25    1    4    4    0    0 -0.17961678701E+02 -0.77922765740E+02 -0.13727870634E+03  0.20220665330E+03  0.12509000000E+03 0.  0.
         25    1    4    4    0    0  0.15016414837E+02 -0.10663397852E+02 -0.17007399159E+03  0.21192421165E+03  0.12509000000E+03 0.  0.
         25    1    3    3    0    0  0.29452638646E+01  0.88586163592E+02 -0.28256819062E+03  0.32147857380E+03  0.12509000000E+03 0.  0.
<mgrwt>
<rscale>  2 0.43944805E+03</rscale>
<asrwt>0</asrwt>
<pdfrwt beam="1">  1       21 0.10712393E-01 0.43944805E+03</pdfrwt>
<pdfrwt beam="2">  1       21 0.97465468E-01 0.43944805E+03</pdfrwt>
<totfact> 0.57756631E+04</totfact>
</mgrwt>
</event>
<event>
 7    0  0.4775379E-002  0.4560095E+03  0.7546771E-02  0.1025945E+00
         21   -1    0    0  502  501  0.00000000000E+00  0.00000000000E+00  0.95641995715E+02  0.95641995715E+02  0.00000000000E+00 0.  1.
         21   -1    0    0  501  502 -0.00000000000E+00 -0.00000000000E+00 -0.54354963352E+03  0.54354963352E+03  0.00000000000E+00 0.  1.
      99926    2    1    2    0    0  0.14210854715E-13  0.00000000000E+00 -0.44790763780E+03  0.63919162923E+03  0.45600952499E+03 0.  0.
      99925    2    3    3    0    0 -0.99395247006E+02  0.44140241631E+02 -0.23202898640E+03  0.36701728017E+03  0.26274789695E+03 0.  0.
         25    1    3    3    0    0  0.99395247006E+02 -0.44140241631E+02 -0.21587865140E+03  0.27217434907E+03  0.12509000000E+03 0.  0.
         25    1    4    4    0    0 -0.11260585159E+02  0.23878843119E+02 -0.12778314529E+03  0.18075685394E+03  0.12509000000E+03 0.  0.
         25    1    4    4    0    0 -0.88134661847E+02  0.20261398512E+02 -0.10424584111E+03  0.18626042623E+03  0.12509000000E+03 0.  0.
<mgrwt>
<rscale>  2 0.45600952E+03</rscale>
<asrwt>0</asrwt>
<pdfrwt beam="1">  1       21 0.14065000E-01 0.45600952E+03</pdfrwt>
<pdfrwt beam="2">  1       21 0.79933768E-01 0.45600952E+03</pdfrwt>
<totfact> 0.55881950E+04</totfact>
</mgrwt>
</event>
<event>
 7    0  0.4775379E-002  0.4573452E+03  0.7546771E-02  0.1025554E+00
         21   -1    0    0  502  501  0.00000000000E+00  0.00000000000E+00  0.31842928724E+03  0.31842928724E+03  0.00000000000E+00 0.  1.
         21   -1    0    0  501  502 -0.00000000000E+00 -0.00000000000E+00 -0.16421592937E+03  0.16421592937E+03  0.00000000000E+00 0.  1.
      99926    2    1    2    0    0  0.00000000000E+00  0.00000000000E+00  0.15421335787E+03  0.48264521662E+03  0.45734521467E+03 0.  0.
      99925    2    3    3    0    0  0.45575236939E+02  0.10410662474E+03  0.11692394181E+03  0.30957499911E+03  0.26315429005E+03 0.  0.
         25    1    4    4    0    0  0.45999302274E+02  0.18831865036E+02  0.44645578670E+02  0.14181435310E+03  0.12509000000E+03 0.  0.
         25    1    4    4    0    0 -0.42406533447E+00  0.85274759701E+02  0.72278363137E+02  0.16776064601E+03  0.12509000000E+03 0.  0.
         25    1    3    3    0    0 -0.45575236939E+02 -0.10410662474E+03  0.37289416063E+02  0.17307021750E+03  0.12509000000E+03 0.  0.
<mgrwt>
<rscale>  2 0.45734521E+03</rscale>
<asrwt>0</asrwt>
<pdfrwt beam="1">  1       21 0.46827836E-01 0.45734521E+03</pdfrwt>
<pdfrwt beam="2">  1       21 0.24149401E-01 0.45734521E+03</pdfrwt>
<totfact> 0.65284244E+04</totfact>
</mgrwt>
</event>
<event>
 6    0  0.4775379E-002  0.4534217E+03  0.7546771E-02  0.1026707E+00
         21   -1    0    0  502  501  0.00000000000E+00  0.00000000000E+00  0.12080571819E+03  0.12080571819E+03  0.00000000000E+00 0. -1.
         21   -1    0    0  501  502 -0.00000000000E+00 -0.00000000000E+00 -0.42545849564E+03  0.42545849564E+03  0.00000000000E+00 0. -1.
      99926    2    1    2    0    0 -0.17763568394E-14  0.00000000000E+00 -0.30465277745E+03  0.54626421382E+03  0.45342174242E+03 0.  0.
         25    1    3    3    0    0 -0.47140668549E+02 -0.36963005086E+02 -0.19212465851E+03  0.23695547869E+03  0.12509000000E+03 0.  0.
         25    1    3    3    0    0  0.15958690682E+02  0.55878700759E+02 -0.12118895710E+01  0.13793507815E+03  0.12509000000E+03 0.  0.
         25    1    3    3    0    0  0.31181977867E+02 -0.18915695673E+02 -0.11131622937E+03  0.17137365698E+03  0.12509000000E+03 0.  0.
<mgrwt>
<rscale>  2 0.45342174E+03</rscale>
<asrwt>0</asrwt>
<pdfrwt beam="1">  1       21 0.17765547E-01 0.45342174E+03</pdfrwt>
<pdfrwt beam="2">  1       21 0.62567425E-01 0.45342174E+03</pdfrwt>
<totfact> 0.62895834E+04</totfact>
</mgrwt>
</event>
<event>
 7    0  0.4775379E-002  0.4572192E+03  0.7546771E-02  0.1025591E+00
         21   -1    0    0  502  501  0.00000000000E+00  0.00000000000E+00  0.58939845977E+03  0.58939845977E+03  0.00000000000E+00 0.  1.
         21   -1    0    0  501  502 -0.00000000000E+00 -0.00000000000E+00 -0.88670672656E+02  0.88670672656E+02  0.00000000000E+00 0.  1.
      99926    2    1    2    0    0  0.00000000000E+00  0.88817841970E-15  0.50072778711E+03  0.67806913242E+03  0.45721923796E+03 0.  0.
      99925    2    3    3    0    0  0.70717856234E+02 -0.63475691116E+01  0.44885700860E+03  0.52516591929E+03  0.26322105119E+03 0.  0.
         25    1    4    4    0    0  0.22275896161E+02 -0.29971699373E+02  0.27408622525E+03  0.30358736022E+03  0.12509000000E+03 0.  0.
         25    1    4    4    0    0  0.48441960073E+02  0.23624130261E+02  0.17477078335E+03  0.22157855907E+03  0.12509000000E+03 0.  0.
         25    1    3    3    0    0 -0.70717856234E+02  0.63475691116E+01  0.51870778513E+02  0.15290321314E+03  0.12509000000E+03 0.  0.
<mgrwt>
<rscale>  2 0.45721924E+03</rscale>
<asrwt>0</asrwt>
<pdfrwt beam="1">  1       21 0.86676242E-01 0.45721924E+03</pdfrwt>
<pdfrwt beam="2">  1       21 0.13039805E-01 0.45721924E+03</pdfrwt>
<totfact> 0.53174407E+04</totfact>
</mgrwt>
</event>
<event>
 7    0  0.4775379E-002  0.5368966E+03  0.7546771E-02  0.1004573E+00
         21   -1    0    0  502  501  0.00000000000E+00  0.00000000000E+00  0.11296519916E+03  0.11296519916E+03  0.00000000000E+00 0. -1.
         21   -1    0    0  501  502 -0.00000000000E+00 -0.00000000000E+00 -0.63793531500E+03  0.63793531500E+03  0.00000000000E+00 0. -1.
      99926    2    1    2    0    0  0.00000000000E+00 -0.17763568394E-14 -0.52497011585E+03  0.75090051416E+03  0.53689660050E+03 0.  0.
      99925    2    3    3    0    0 -0.51525442391E+01  0.12534442825E+02 -0.61111017388E+02  0.27027963208E+03  0.26293128779E+03 0.  0.
         25    1    3    3    0    0  0.51525442391E+01 -0.12534442825E+02 -0.46385909846E+03  0.48062088208E+03  0.12509000000E+03 0.  0.
         25    1    4    4    0    0 -0.22766603901E+02  0.52977014811E+01  0.53267971417E+01  0.12736666268E+03  0.12509000000E+03 0.  0.
         25    1    4    4    0    0  0.17614059662E+02  0.72367413434E+01 -0.66437814530E+02  0.14291296940E+03  0.12509000000E+03 0.  0.
<mgrwt>
<rscale>  2 0.53689660E+03</rscale>
<asrwt>0</asrwt>
<pdfrwt beam="1">  1       21 0.16612529E-01 0.53689660E+03</pdfrwt>
<pdfrwt beam="2">  1       21 0.93814018E-01 0.53689660E+03</pdfrwt>
<totfact> 0.27635478E+04</totfact>
</mgrwt>
</event>
<event>
 7    0  0.4775379E-002  0.4608704E+03  0.7546771E-02  0.1024529E+00
         21   -1    0    0  502  501  0.00000000000E+00  0.00000000000E+00  0.29323979969E+03  0.29323979969E+03  0.00000000000E+00 0. -1.
         21   -1    0    0  501  502 -0.00000000000E+00 -0.00000000000E+00 -0.18108176246E+03  0.18108176246E+03  0.00000000000E+00 0. -1.
      99926    2    1    2    0    0  0.00000000000E+00  0.00000000000E+00  0.11215803722E+03  0.47432156215E+03  0.46087039285E+03 0.  0.
      99925    2    3    3    0    0 -0.73266210462E+02 -0.89644972694E+02  0.96614646429E+02  0.30316881218E+03  0.26300718631E+03 0.  0.
         25    1    4    4    0    0 -0.26101189001E+02 -0.83805932660E+02  0.40690350904E+02  0.15813892365E+03  0.12509000000E+03 0.  0.
         25    1    4    4    0    0 -0.47165021461E+02 -0.58390400339E+01  0.55924295524E+02  0.14502988853E+03  0.12509000000E+03 0.  0.
         25    1    3    3    0    0  0.73266210462E+02  0.89644972694E+02  0.15543390795E+02  0.17115274997E+03  0.12509000000E+03 0.  0.
<mgrwt>
<rscale>  2 0.46087039E+03</rscale>
<asrwt>0</asrwt>
<pdfrwt beam="1">  1       21 0.43123500E-01 0.46087039E+03</pdfrwt>
<pdfrwt beam="2">  1       21 0.26629671E-01 0.46087039E+03</pdfrwt>
<totfact> 0.64079107E+04</totfact>
</mgrwt>
</event>
<event>
 7    0  0.4775379E-002  0.4592955E+03  0.7546771E-02  0.1024986E+00
         21   -1    0    0  502  501  0.00000000000E+00  0.00000000000E+00  0.14318550989E+03  0.14318550989E+03  0.00000000000E+00 0. -1.
         21   -1    0    0  501  502 -0.00000000000E+00 -0.00000000000E+00 -0.36832000739E+03  0.36832000739E+03  0.00000000000E+00 0. -1.
      99926    2    1    2    0    0  0.14210854715E-13  0.66613381478E-15 -0.22513449750E+03  0.51150551727E+03  0.45929549556E+03 0.  0.
      99925    2    3    3    0    0 -0.92606041966E+02 -0.54434846604E+00 -0.62374310469E+02  0.28630657876E+03  0.26363749186E+03 0.  0.
         25    1    4    4    0    0 -0.96568536794E+01 -0.10381377408E+02 -0.49741112499E+02  0.13536142062E+03  0.12509000000E+03 0.  0.
         25    1    4    4    0    0 -0.82949188286E+02  0.98370289416E+01 -0.12633197970E+02  0.15094515814E+03  0.12509000000E+03 0.  0.
         25    1    3    3    0    0  0.92606041966E+02  0.54434846604E+00 -0.16276018703E+03  0.22519893851E+03  0.12509000000E+03 0.  0.
<mgrwt>
<rscale>  2 0.45929550E+03</rscale>
<asrwt>0</asrwt>
<pdfrwt beam="1">  1       21 0.21056693E-01 0.45929550E+03</pdfrwt>
<pdfrwt beam="2">  1       21 0.54164707E-01 0.45929550E+03</pdfrwt>
<totfact> 0.62317944E+04</totfact>
</mgrwt>
</event>
<event>
 7    0  0.4775379E-002  0.4531529E+03  0.7546771E-02  0.1026786E+00
         21   -1    0    0  502  501  0.00000000000E+00  0.00000000000E+00  0.17561046630E+03  0.17561046630E+03  0.00000000000E+00 0. -1.
         21   -1    0    0  501  502 -0.00000000000E+00 -0.00000000000E+00 -0.29233389524E+03  0.29233389524E+03  0.00000000000E+00 0. -1.
      99926    2    1    2    0    0  0.00000000000E+00  0.00000000000E+00 -0.11672342894E+03  0.46794436154E+03  0.45315291749E+03 0.  0.
      99925    2    3    3    0    0  0.91366597001E+02  0.62284660538E+01 -0.80458673940E+01  0.27861668443E+03  0.26301306436E+03 0.  0.
         25    1    4    4    0    0  0.17391049978E+02 -0.77618412059E+00  0.26569555771E+02  0.12906006538E+03  0.12509000000E+03 0.  0.
         25    1    3    3    0    0 -0.91366597001E+02 -0.62284660538E+01 -0.10867756154E+03  0.18932767711E+03  0.12509000000E+03 0.  0.
         25    1    4    4    0    0  0.73975547023E+02  0.70046501744E+01 -0.34615423165E+02  0.14955661905E+03  0.12509000000E+03 0.  0.
<mgrwt>
<rscale>  2 0.45315292E+03</rscale>
<asrwt>0</asrwt>
<pdfrwt beam="1">  1       21 0.25825069E-01 0.45315292E+03</pdfrwt>
<pdfrwt beam="2">  1       21 0.42990278E-01 0.45315292E+03</pdfrwt>
<totfact> 0.68588425E+04</totfact>
</mgrwt>
</event>
<event>
 7    0  0.4775379E-002  0.4590189E+03  0.7546771E-02  0.1025066E+00
         21   -1    0    0  502  501  0.00000000000E+00  0.00000000000E+00  0.81117996376E+03  0.81117996376E+03  0.00000000000E+00 0.  1.
         21   -1    0    0  501  502 -0.00000000000E+00 -0.00000000000E+00 -0.64935752977E+02  0.64935752977E+02  0.00000000000E+00 0.  1.
      99926    2    1    2    0    0  0.71054273576E-14  0.00000000000E+00  0.74624421079E+03  0.87611571674E+03  0.45901887433E+03 0.  0.
      99925    2    3    3    0    0  0.32214661120E+02  0.95278211285E+02  0.35422778575E+03  0.45251200153E+03  0.26300962986E+03 0.  0.
         25    1    3    3    0    0 -0.32214661120E+02 -0.95278211285E+02  0.39201642504E+03  0.42360371521E+03  0.12509000000E+03 0.  0.
         25    1    4    4    0    0 -0.89568564929E+01  0.43984381319E+02  0.12059466346E+03  0.17945871958E+03  0.12509000000E+03 0.  0.
         25    1    4    4    0    0  0.41171517613E+02  0.51293829967E+02  0.23363312229E+03  0.27305328195E+03  0.12509000000E+03 0.  0.
<mgrwt>
<rscale>  2 0.45901887E+03</rscale>
<asrwt>0</asrwt>
<pdfrwt beam="1">  1       21 0.11929117E+00 0.45901887E+03</pdfrwt>
<pdfrwt beam="2">  1       21 0.95493759E-02 0.45901887E+03</pdfrwt>
<totfact> 0.42915594E+04</totfact>
</mgrwt>
</event>
<event>
 7    0  0.4775379E-002  0.4568668E+03  0.7546771E-02  0.1025694E+00
         21   -1    0    0  502  501  0.00000000000E+00  0.00000000000E+00  0.51645954484E+02  0.51645954484E+02  0.00000000000E+00 0. -1.
         21   -1    0    0  501  502 -0.00000000000E+00 -0.00000000000E+00 -0.10103756928E+04  0.10103756928E+04  0.00000000000E+00 0. -1.
      99926    2    1    2    0    0  0.00000000000E+00  0.17763568394E-14 -0.95872973829E+03  0.10620216473E+04  0.45686679477E+03 0.  0.
      99925    2    3    3    0    0  0.37113493127E+02 -0.62240827576E+01 -0.34997268658E+03  0.43940715443E+03  0.26302398261E+03 0.  0.
         25    1    3    3    0    0 -0.37113493127E+02  0.62240827576E+01 -0.60875705171E+03  0.62261449283E+03  0.12509000000E+03 0.  0.
         25    1    4    4    0    0  0.25007698275E+01 -0.31228013508E+02 -0.21347936585E+03  0.24940407058E+03  0.12509000000E+03 0.  0.
         25    1    4    4    0    0  0.34612723299E+02  0.25003930750E+02 -0.13649332073E+03  0.19000308384E+03  0.12509000000E+03 0.  0.
<mgrwt>
<rscale>  2 0.45686679E+03</rscale>
<asrwt>0</asrwt>
<pdfrwt beam="1">  1       21 0.75949934E-02 0.45686679E+03</pdfrwt>
<pdfrwt beam="2">  1       21 0.14858466E+00 0.45686679E+03</pdfrwt>
<totfact> 0.36307495E+04</totfact>
</mgrwt>
</event>
<event>
 7    0  0.4775379E-002  0.4567482E+03  0.7546771E-02  0.1025729E+00
         21   -1    0    0  502  501  0.00000000000E+00  0.00000000000E+00  0.62826758535E+02  0.62826758535E+02  0.00000000000E+00 0. -1.
         21   -1    0    0  501  502 -0.00000000000E+00 -0.00000000000E+00 -0.83013546922E+03  0.83013546922E+03  0.00000000000E+00 0. -1.
      99926    2    1    2    0    0  0.14210854715E-13  0.14210854715E-13 -0.76730871068E+03  0.89296222775E+03  0.45674816114E+03 0.  0.
      99925    2    3    3    0    0 -0.55668450874E+02 -0.78510508944E+02 -0.60453480573E+03  0.66623391309E+03  0.26294946125E+03 0.  0.
         25    1    4    4    0    0 -0.68014576262E+02 -0.44805321605E+02 -0.34467107054E+03  0.37560505108E+03  0.12509000000E+03 0.  0.
         25    1    3    3    0    0  0.55668450874E+02  0.78510508944E+02 -0.16277390495E+03  0.22672831466E+03  0.12509000000E+03 0.  0.
         25    1    4    4    0    0  0.12346125388E+02 -0.33705187339E+02 -0.25986373519E+03  0.29062886201E+03  0.12509000000E+03 0.  0.
<mgrwt>
<rscale>  2 0.45674816E+03</rscale>
<asrwt>0</asrwt>
<pdfrwt beam="1">  1       21 0.92392293E-02 0.45674816E+03</pdfrwt>
<pdfrwt beam="2">  1       21 0.12207874E+00 0.45674816E+03</pdfrwt>
<totfact> 0.42948442E+04</totfact>
</mgrwt>
</event>
<event>
 7    0  0.4775379E-002  0.4525251E+03  0.7546771E-02  0.1026972E+00
         21   -1    0    0  502  501  0.00000000000E+00  0.00000000000E+00  0.32814663180E+02  0.32814663180E+02  0.00000000000E+00 0.  1.
         21   -1    0    0  501  502 -0.00000000000E+00 -0.00000000000E+00 -0.15601179020E+04  0.15601179020E+04  0.00000000000E+00 0.  1.
      99926    2    1    2    0    0 -0.14210854715E-13  0.00000000000E+00 -0.15273032389E+04  0.15929325652E+04  0.45252510859E+03 0.  0.
      99925    2    3    3    0    0 -0.64914660093E+02 -0.60568134383E+02 -0.11964332549E+04  0.12282342428E+04  0.26310532060E+03 0.  0.
         25    1    4    4    0    0  0.18513187725E+01 -0.44690280583E+02 -0.50087194484E+03  0.51818998619E+03  0.12509000000E+03 0.  0.
         25    1    4    4    0    0 -0.66765978866E+02 -0.15877853800E+02 -0.69556131010E+03  0.71004425663E+03  0.12509000000E+03 0.  0.
         25    1    3    3    0    0  0.64914660093E+02  0.60568134383E+02 -0.33086998392E+03  0.36469832240E+03  0.12509000000E+03 0.  0.
<mgrwt>
<rscale>  2 0.45252511E+03</rscale>
<asrwt>0</asrwt>
<pdfrwt beam="1">  1       21 0.48256844E-02 0.45252511E+03</pdfrwt>
<pdfrwt beam="2">  1       21 0.22942917E+00 0.45252511E+03</pdfrwt>
<totfact> 0.22009894E+04</totfact>
</mgrwt>
</event>
<event>
 7    0  0.4775379E-002  0.4596304E+03  0.7546771E-02  0.1024888E+00
         21   -1    0    0  502  501  0.00000000000E+00  0.00000000000E+00  0.11972090385E+03  0.11972090385E+03  0.00000000000E+00 0. -1.
         21   -1    0    0  501  502 -0.00000000000E+00 -0.00000000000E+00 -0.44115133195E+03  0.44115133195E+03  0.00000000000E+00 0. -1.
      99926    2    1    2    0    0 -0.71054273576E-14  0.00000000000E+00 -0.32143042809E+03  0.56087223580E+03  0.45963044371E+03 0.  0.
      99925    2    3    3    0    0 -0.53940311669E+02  0.54380534750E+02 -0.31014156820E+03  0.41376089620E+03  0.26295149194E+03 0.  0.
         25    1    4    4    0    0  0.70970049341E+00  0.29252685968E+02 -0.10420665581E+03  0.16541692334E+03  0.12509000000E+03 0.  0.
         25    1    3    3    0    0  0.53940311669E+02 -0.54380534750E+02 -0.11288859890E+02  0.14711133960E+03  0.12509000000E+03 0.  0.
         25    1    4    4    0    0 -0.54650012162E+02  0.25127848782E+02 -0.20593491239E+03  0.24834397286E+03  0.12509000000E+03 0.  0.
<mgrwt>
<rscale>  2 0.45963044E+03</rscale>
<asrwt>0</asrwt>
<pdfrwt beam="1">  1       21 0.17606015E-01 0.45963044E+03</pdfrwt>
<pdfrwt beam="2">  1       21 0.64875195E-01 0.45963044E+03</pdfrwt>
<totfact> 0.58964257E+04</totfact>
</mgrwt>
</event>
<event>
 7    0  0.4775379E-002  0.4415546E+03  0.7546771E-02  0.1030271E+00
         21   -1    0    0  502  501  0.00000000000E+00  0.00000000000E+00  0.47508696855E+02  0.47508696855E+02  0.00000000000E+00 0. -1.
         21   -1    0    0  501  502 -0.00000000000E+00 -0.00000000000E+00 -0.10259726046E+04  0.10259726046E+04  0.00000000000E+00 0. -1.
      99926    2    1    2    0    0  0.00000000000E+00  0.71054273576E-14 -0.97846390778E+03  0.10734813015E+04  0.44155462382E+03 0.  0.
      99925    2    3    3    0    0  0.31212955386E+02 -0.59403249644E+02 -0.80385640967E+03  0.84845178976E+03  0.26302531728E+03 0.  0.
         25    1    4    4    0    0  0.37315011833E+02 -0.26714111954E+02 -0.51435541816E+03  0.53133328352E+03  0.12509000000E+03 0.  0.
         25    1    3    3    0    0 -0.31212955386E+02  0.59403249644E+02 -0.17460749811E+03  0.22502951173E+03  0.12509000000E+03 0.  0.
         25    1    4    4    0    0 -0.61020564472E+01 -0.32689137690E+02 -0.28950099150E+03  0.31711850624E+03  0.12509000000E+03 0.  0.
<mgrwt>
<rscale>  2 0.44155462E+03</rscale>
<asrwt>0</asrwt>
<pdfrwt beam="1">  1       21 0.69865738E-02 0.44155462E+03</pdfrwt>
<pdfrwt beam="2">  1       21 0.15087831E+00 0.44155462E+03</pdfrwt>
<totfact> 0.40514040E+04</totfact>
</mgrwt>
</event>
<event>
 7    0  0.4775379E-002  0.4516317E+03  0.7546771E-02  0.1027237E+00
         21   -1    0    0  502  501  0.00000000000E+00  0.00000000000E+00  0.54856172154E+02  0.54856172154E+02  0.00000000000E+00 0.  1.
         21   -1    0    0  501  502 -0.00000000000E+00 -0.00000000000E+00 -0.92957277403E+03  0.92957277403E+03  0.00000000000E+00 0.  1.
      99926    2    1    2    0    0  0.00000000000E+00  0.00000000000E+00 -0.87471660187E+03  0.98442894618E+03  0.45163172662E+03 0.  0.
      99925    2    3    3    0    0  0.47105597374E+02 -0.98774082615E+02 -0.57666303950E+03  0.64316850188E+03  0.26296426371E+03 0.  0.
         25    1    4    4    0    0  0.22247785012E+02 -0.11386627058E+02 -0.21756121770E+03  0.25220033854E+03  0.12509000000E+03 0.  0.
         25    1    3    3    0    0 -0.47105597374E+02  0.98774082615E+02 -0.29805356237E+03  0.34126044430E+03  0.12509000000E+03 0.  0.
         25    1    4    4    0    0  0.24857812362E+02 -0.87387455557E+02 -0.35910182181E+03  0.39096816334E+03  0.12509000000E+03 0.  0.
<mgrwt>
<rscale>  2 0.45163173E+03</rscale>
<asrwt>0</asrwt>
<pdfrwt beam="1">  1       21 0.80670847E-02 0.45163173E+03</pdfrwt>
<pdfrwt beam="2">  1       21 0.13670187E+00 0.45163173E+03</pdfrwt>
<totfact> 0.40841674E+04</totfact>
</mgrwt>
</event>
<event>
 7    0  0.4775379E-002  0.4554944E+03  0.7546771E-02  0.1026096E+00
         21   -1    0    0  502  501  0.00000000000E+00  0.00000000000E+00  0.66305881109E+03  0.66305881109E+03  0.00000000000E+00 0.  1.
         21   -1    0    0  501  502 -0.00000000000E+00 -0.00000000000E+00 -0.78226540470E+02  0.78226540470E+02  0.00000000000E+00 0.  1.
      99926    2    1    2    0    0 -0.71054273576E-14  0.00000000000E+00  0.58483227062E+03  0.74128535156E+03  0.45549444308E+03 0.  0.
      99925    2    3    3    0    0  0.41857241151E+02  0.30224806102E+02  0.20306592035E+03  0.33624384525E+03  0.26298020442E+03 0.  0.
         25    1    4    4    0    0  0.53635839899E+02  0.16160522660E+02  0.74796881323E+02  0.15614111364E+03  0.12509000000E+03 0.  0.
         25    1    4    4    0    0 -0.11778598748E+02  0.14064283442E+02  0.12826903903E+03  0.18010273160E+03  0.12509000000E+03 0.  0.
         25    1    3    3    0    0 -0.41857241151E+02 -0.30224806102E+02  0.38176635027E+03  0.40504150632E+03  0.12509000000E+03 0.  0.
<mgrwt>
<rscale>  2 0.45549444E+03</rscale>
<asrwt>0</asrwt>
<pdfrwt beam="1">  1       21 0.97508646E-01 0.45549444E+03</pdfrwt>
<pdfrwt beam="2">  1       21 0.11503903E-01 0.45549444E+03</pdfrwt>
<totfact> 0.50521428E+04</totfact>
</mgrwt>
</event>
<event>
 7    0  0.4775379E-002  0.4514272E+03  0.7546771E-02  0.1027297E+00
         21   -1    0    0  502  501  0.00000000000E+00  0.00000000000E+00  0.11611241680E+04  0.11611241680E+04  0.00000000000E+00 0. -1.
         21   -1    0    0  501  502 -0.00000000000E+00 -0.00000000000E+00 -0.43876995118E+02  0.43876995118E+02  0.00000000000E+00 0. -1.
      99926    2    1    2    0    0  0.00000000000E+00  0.00000000000E+00  0.11172471729E+04  0.12050011631E+04  0.45142724530E+03 0.  0.
      99925    2    3    3    0    0  0.72364998117E+02  0.79392158368E+02  0.64475133076E+03  0.70456171954E+03  0.26298884076E+03 0.  0.
         25    1    4    4    0    0  0.70459569421E+02  0.23038428751E+02  0.29590145615E+03  0.32969758867E+03  0.12509000000E+03 0.  0.
         25    1    4    4    0    0  0.19054286961E+01  0.56353729618E+02  0.34884987461E+03  0.37486413087E+03  0.12509000000E+03 0.  0.
         25    1    3    3    0    0 -0.72364998117E+02 -0.79392158368E+02  0.47249584209E+03  0.50043944355E+03  0.12509000000E+03 0.  0.
<mgrwt>
<rscale>  2 0.45142725E+03</rscale>
<asrwt>0</asrwt>
<pdfrwt beam="1">  1       21 0.17075353E+00 0.45142725E+03</pdfrwt>
<pdfrwt beam="2">  1       21 0.64525000E-02 0.45142725E+03</pdfrwt>
<totfact> 0.32904075E+04</totfact>
</mgrwt>
</event>
<event>
 7    0  0.4775379E-002  0.4600240E+03  0.7546771E-02  0.1024774E+00
         21   -1    0    0  502  501  0.00000000000E+00  0.00000000000E+00  0.14011225970E+03  0.14011225970E+03  0.00000000000E+00 0. -1.
         21   -1    0    0  501  502 -0.00000000000E+00 -0.00000000000E+00 -0.37759387773E+03  0.37759387773E+03  0.00000000000E+00 0. -1.
      99926    2    1    2    0    0  0.00000000000E+00  0.00000000000E+00 -0.23748161803E+03  0.51770613743E+03  0.46002404919E+03 0.  0.
      99925    2    3    3    0    0 -0.54104598818E+02  0.37720257701E+02 -0.38743172340E+02  0.27379098139E+03  0.26288846044E+03 0.  0.
         25    1    4    4    0    0 -0.57375739013E+02  0.39028751688E+02 -0.40389190342E+02  0.14864055194E+03  0.12509000000E+03 0.  0.
         25    1    3    3    0    0  0.54104598818E+02 -0.37720257701E+02 -0.19873844569E+03  0.24391515605E+03  0.12509000000E+03 0.  0.
         25    1    4    4    0    0  0.32711401950E+01 -0.13084939873E+01  0.16460180017E+01  0.12515042944E+03  0.12509000000E+03 0.  0.
<mgrwt>
<rscale>  2 0.46002405E+03</rscale>
<asrwt>0</asrwt>
<pdfrwt beam="1">  1       21 0.20604745E-01 0.46002405E+03</pdfrwt>
<pdfrwt beam="2">  1       21 0.55528510E-01 0.46002405E+03</pdfrwt>
<totfact> 0.61553071E+04</totfact>
</mgrwt>
</event>
<event>
 7    0  0.4775379E-002  0.4529994E+03  0.7546771E-02  0.1026831E+00
         21   -1    0    0  502  501  0.00000000000E+00  0.00000000000E+00  0.13487169644E+03  0.13487169644E+03  0.00000000000E+00 0.  1.
         21   -1    0    0  501  502 -0.00000000000E+00 -0.00000000000E+00 -0.38037716863E+03  0.38037716863E+03  0.00000000000E+00 0.  1.
      99926    2    1    2    0    0  0.17763568394E-14  0.14210854715E-13 -0.24550547218E+03  0.51524886507E+03  0.45299939965E+03 0.  0.
      99925    2    3    3    0    0 -0.11663138847E+02  0.99964296295E+02 -0.20878637034E+03  0.35055311564E+03  0.26299591081E+03 0.  0.
         25    1    4    4    0    0 -0.20254375167E+02  0.11634770989E+02 -0.10921099925E+03  0.16769066184E+03  0.12509000000E+03 0.  0.
         25    1    4    4    0    0  0.85912363197E+01  0.88329525306E+02 -0.99575371088E+02  0.18286245380E+03  0.12509000000E+03 0.  0.
         25    1    3    3    0    0  0.11663138847E+02 -0.99964296295E+02 -0.36719101843E+02  0.16469574943E+03  0.12509000000E+03 0.  0.
<mgrwt>
<rscale>  2 0.45299940E+03</rscale>
<asrwt>0</asrwt>
<pdfrwt beam="1">  1       21 0.19834073E-01 0.45299940E+03</pdfrwt>
<pdfrwt beam="2">  1       21 0.55937820E-01 0.45299940E+03</pdfrwt>
<totfact> 0.65241648E+04</totfact>
</mgrwt>
</event>
<event>
 7    0  0.4775379E-002  0.4563630E+03  0.7546771E-02  0.1025841E+00
         21   -1    0    0  502  501  0.00000000000E+00  0.00000000000E+00  0.16192500902E+03  0.16192500902E+03  0.00000000000E+00 0. -1.
         21   -1    0    0  501  502 -0.00000000000E+00 -0.00000000000E+00 -0.32154886996E+03  0.32154886996E+03  0.00000000000E+00 0. -1.
      99926    2    1    2    0    0  0.00000000000E+00  0.00000000000E+00 -0.15962386094E+03  0.48347387898E+03  0.45636302948E+03 0.  0.
      99925    2    3    3    0    0  0.70622650308E+02  0.50936327661E+02 -0.21770865465E+02  0.27796712806E+03  0.26307733747E+03 0.  0.
         25    1    4    4    0    0  0.72693037101E+02  0.25619162083E+02  0.70973239794E+01  0.14710030325E+03  0.12509000000E+03 0.  0.
         25    1    3    3    0    0 -0.70622650308E+02 -0.50936327661E+02 -0.13785299548E+03  0.20550675092E+03  0.12509000000E+03 0.  0.
         25    1    4    4    0    0 -0.20703867931E+01  0.25317165578E+02 -0.28868189444E+02  0.13086682481E+03  0.12509000000E+03 0.  0.
<mgrwt>
<rscale>  2 0.45636303E+03</rscale>
<asrwt>0</asrwt>
<pdfrwt beam="1">  1       21 0.23812501E-01 0.45636303E+03</pdfrwt>
<pdfrwt beam="2">  1       21 0.47286598E-01 0.45636303E+03</pdfrwt>
<totfact> 0.65733977E+04</totfact>
</mgrwt>
</event>
<event>
 7    0  0.4775379E-002  0.4390736E+03  0.7546771E-02  0.1031031E+00
         21   -1    0    0  502  501  0.00000000000E+00  0.00000000000E+00  0.30262138058E+02  0.30262138058E+02  0.00000000000E+00 0.  1.
         21   -1    0    0  501  502 -0.00000000000E+00 -0.00000000000E+00 -0.15926305801E+04  0.15926305801E+04  0.00000000000E+00 0.  1.
      99926    2    1    2    0    0  0.00000000000E+00  0.35527136788E-14 -0.15623684420E+04  0.16228927181E+04  0.43907359970E+03 0.  0.
      99925    2    3    3    0    0 -0.12871470683E+02  0.19913732549E+02 -0.64857396798E+03  0.70027140883E+03  0.26300118361E+03 0.  0.
         25    1    3    3    0    0  0.12871470683E+02 -0.19913732549E+02 -0.91379447403E+03  0.92262130930E+03  0.12509000000E+03 0.  0.
         25    1    4    4    0    0 -0.24593218596E+02  0.44986104721E+02 -0.35954589525E+03  0.38412151061E+03  0.12509000000E+03 0.  0.
         25    1    4    4    0    0  0.11721747912E+02 -0.25072372172E+02 -0.28902807273E+03  0.31614989822E+03  0.12509000000E+03 0.  0.
<mgrwt>
<rscale>  2 0.43907360E+03</rscale>
<asrwt>0</asrwt>
<pdfrwt beam="1">  1       21 0.44503141E-02 0.43907360E+03</pdfrwt>
<pdfrwt beam="2">  1       21 0.23421040E+00 0.43907360E+03</pdfrwt>
<totfact> 0.23717663E+04</totfact>
</mgrwt>
</event>
<event>
 7    0  0.4775379E-002  0.4515473E+03  0.7546771E-02  0.1027262E+00
         21   -1    0    0  502  501  0.00000000000E+00  0.00000000000E+00  0.10140051989E+04  0.10140051989E+04  0.00000000000E+00 0.  1.
         21   -1    0    0  501  502 -0.00000000000E+00 -0.00000000000E+00 -0.50269708469E+02  0.50269708469E+02  0.00000000000E+00 0.  1.
      99926    2    1    2    0    0  0.17763568394E-14  0.00000000000E+00  0.96373549046E+03  0.10642749074E+04  0.45154732083E+03 0.  0.
      99925    2    3    3    0    0  0.14055904991E+02  0.75131411202E+02  0.79445729939E+03  0.84034431216E+03  0.26300924889E+03 0.  0.
         25    1    4    4    0    0 -0.15211827961E+02  0.24665487137E+01  0.34774054574E+03  0.36987630206E+03  0.12509000000E+03 0.  0.
         25    1    4    4    0    0  0.29267732951E+02  0.72664862488E+02  0.44671675365E+03  0.47046801009E+03  0.12509000000E+03 0.  0.
         25    1    3    3    0    0 -0.14055904991E+02 -0.75131411202E+02  0.16927819107E+03  0.22393059525E+03  0.12509000000E+03 0.  0.
<mgrwt>
<rscale>  2 0.45154732E+03</rscale>
<asrwt>0</asrwt>
<pdfrwt beam="1">  1       21 0.14911840E+00 0.45154732E+03</pdfrwt>
<pdfrwt beam="2">  1       21 0.73926048E-02 0.45154732E+03</pdfrwt>
<totfact> 0.37765291E+04</totfact>
</mgrwt>
</event>
<event>
 7    0  0.4775379E-002  0.4521852E+03  0.7546771E-02  0.1027072E+00
         21   -1    0    0  502  501  0.00000000000E+00  0.00000000000E+00  0.74498456897E+03  0.74498456897E+03  0.00000000000E+00 0.  1.
         21   -1    0    0  501  502 -0.00000000000E+00 -0.00000000000E+00 -0.68615996099E+02  0.68615996099E+02  0.00000000000E+00 0.  1.
      99926    2    1    2    0    0  0.00000000000E+00  0.00000000000E+00  0.67636857287E+03  0.81360056507E+03  0.45218517569E+03 0.  0.
      99925    2    3    3    0    0 -0.18556692191E+02  0.69693461773E+02  0.27610438828E+03  0.38808857346E+03  0.26301630783E+03 0.  0.
         25    1    4    4    0    0  0.14410987435E+02  0.60153491858E+00  0.12113973692E+03  0.17472945477E+03  0.12509000000E+03 0.  0.
         25    1    3    3    0    0  0.18556692191E+02 -0.69693461773E+02  0.40026418460E+03  0.42551199162E+03  0.12509000000E+03 0.  0.
         25    1    4    4    0    0 -0.32967679626E+02  0.69091926854E+02  0.15496465136E+03  0.21335911869E+03  0.12509000000E+03 0.  0.
<mgrwt>
<rscale>  2 0.45218518E+03</rscale>
<asrwt>0</asrwt>
<pdfrwt beam="1">  1       21 0.10955655E+00 0.45218518E+03</pdfrwt>
<pdfrwt beam="2">  1       21 0.10090588E-01 0.45218518E+03</pdfrwt>
<totfact> 0.48169177E+04</totfact>
</mgrwt>
</event>
<event>
 7    0  0.4775379E-002  0.4533221E+03  0.7546771E-02  0.1026736E+00
         21   -1    0    0  502  501  0.00000000000E+00  0.00000000000E+00  0.44630462822E+03  0.44630462822E+03  0.00000000000E+00 0.  1.
         21   -1    0    0  501  502 -0.00000000000E+00 -0.00000000000E+00 -0.11511249490E+03  0.11511249490E+03  0.00000000000E+00 0.  1.
      99926    2    1    2    0    0  0.00000000000E+00 -0.14210854715E-13  0.33119213333E+03  0.56141712312E+03  0.45332213376E+03 0.  0.
      99925    2    3    3    0    0 -0.85322818097E+02 -0.67993980872E+02  0.17998475782E+03  0.33688573727E+03  0.26304813667E+03 0.  0.
         25    1    4    4    0    0 -0.48772416199E+02 -0.74149153068E+02  0.11079485414E+03  0.18920849158E+03  0.12509000000E+03 0.  0.
         25    1    3    3    0    0  0.85322818097E+02  0.67993980872E+02  0.15120737551E+03  0.22453138585E+03  0.12509000000E+03 0.  0.
         25    1    4    4    0    0 -0.36550401899E+02  0.61551721964E+01  0.69189903684E+02  0.14767724569E+03  0.12509000000E+03 0.  0.
<mgrwt>
<rscale>  2 0.45332213E+03</rscale>
<asrwt>0</asrwt>
<pdfrwt beam="1">  1       21 0.65633033E-01 0.45332213E+03</pdfrwt>
<pdfrwt beam="2">  1       21 0.16928308E-01 0.45332213E+03</pdfrwt>
<totfact> 0.61936189E+04</totfact>
</mgrwt>
</event>
<event>
 6    0  0.4775379E-002  0.4553982E+03  0.7546771E-02  0.1026124E+00
         21   -1    0    0  502  501  0.00000000000E+00  0.00000000000E+00  0.11689829522E+04  0.11689829522E+04  0.00000000000E+00 0. -1.
         21   -1    0    0  501  502 -0.00000000000E+00 -0.00000000000E+00 -0.44352126851E+02  0.44352126851E+02  0.00000000000E+00 0. -1.
      99926    2    1    2    0    0 -0.14210854715E-13  0.00000000000E+00  0.11246308254E+04  0.12133350791E+04  0.45539820019E+03 0.  0.
         25    1    3    3    0    0 -0.13341386969E+02  0.53059455874E+02  0.35363515223E+03  0.37907601804E+03  0.12509000000E+03 0.  0.
         25    1    3    3    0    0  0.90049236996E+02  0.14197197277E+02  0.42942130637E+03  0.45646532394E+03  0.12509000000E+03 0.  0.
         25    1    3    3    0    0 -0.76707850027E+02 -0.67256653151E+02  0.34157436676E+03  0.37779373708E+03  0.12509000000E+03 0.  0.
<mgrwt>
<rscale>  2 0.45539820E+03</rscale>
<asrwt>0</asrwt>
<pdfrwt beam="1">  1       21 0.17190924E+00 0.45539820E+03</pdfrwt>
<pdfrwt beam="2">  1       21 0.65223723E-02 0.45539820E+03</pdfrwt>
<totfact> 0.31637899E+04</totfact>
</mgrwt>
</event>
<event>
 7    0  0.4775379E-002  0.4575669E+03  0.7546771E-02  0.1025489E+00
         21   -1    0    0  502  501  0.00000000000E+00  0.00000000000E+00  0.72166846483E+02  0.72166846483E+02  0.00000000000E+00 0. -1.
         21   -1    0    0  501  502 -0.00000000000E+00 -0.00000000000E+00 -0.72528955030E+03  0.72528955030E+03  0.00000000000E+00 0. -1.
      99926    2    1    2    0    0  0.35527136788E-14  0.14210854715E-13 -0.65312270381E+03  0.79745639678E+03  0.45756686782E+03 0.  0.
      99925    2    3    3    0    0 -0.11485764311E+02 -0.91904644424E+02 -0.53048196797E+03  0.59929826639E+03  0.26299982380E+03 0.  0.
         25    1    3    3    0    0  0.11485764311E+02  0.91904644424E+02 -0.12264073585E+03  0.19815813039E+03  0.12509000000E+03 0.  0.
         25    1    4    4    0    0 -0.37837269864E+02 -0.72000733138E+02 -0.29668071449E+03  0.33208842047E+03  0.12509000000E+03 0.  0.
         25    1    4    4    0    0  0.26351505554E+02 -0.19903911286E+02 -0.23380125348E+03  0.26720984592E+03  0.12509000000E+03 0.  0.
<mgrwt>
<rscale>  2 0.45756687E+03</rscale>
<asrwt>0</asrwt>
<pdfrwt beam="1">  1       21 0.10612772E-01 0.45756687E+03</pdfrwt>
<pdfrwt beam="2">  1       21 0.10666022E+00 0.45756687E+03</pdfrwt>
<totfact> 0.46935426E+04</totfact>
</mgrwt>
</event>
<event>
 7    0  0.4775379E-002  0.4563686E+03  0.7546771E-02  0.1025840E+00
         21   -1    0    0  502  501  0.00000000000E+00  0.00000000000E+00  0.54596392289E+03  0.54596392289E+03  0.00000000000E+00 0.  1.
         21   -1    0    0  501  502 -0.00000000000E+00 -0.00000000000E+00 -0.95369058279E+02  0.95369058279E+02  0.00000000000E+00 0.  1.
      99926    2    1    2    0    0  0.00000000000E+00  0.00000000000E+00  0.45059486461E+03  0.64133298117E+03  0.45636855799E+03 0.  0.
      99925    2    3    3    0    0 -0.93007954049E+01 -0.10453670817E+03  0.21841670089E+03  0.35748683278E+03  0.26282418502E+03 0.  0.
         25    1    3    3    0    0  0.93007954049E+01  0.10453670817E+03  0.23217816372E+03  0.28384614839E+03  0.12509000000E+03 0.  0.
         25    1    4    4    0    0 -0.27436789588E+02 -0.50329084386E+02  0.67363932261E+02  0.15320313844E+03  0.12509000000E+03 0.  0.
         25    1    4    4    0    0  0.18135994183E+02 -0.54207623780E+02  0.15105276863E+03  0.20428369434E+03  0.12509000000E+03 0.  0.
<mgrwt>
<rscale>  2 0.45636856E+03</rscale>
<asrwt>0</asrwt>
<pdfrwt beam="1">  1       21 0.80288811E-01 0.45636856E+03</pdfrwt>
<pdfrwt beam="2">  1       21 0.14024862E-01 0.45636856E+03</pdfrwt>
<totfact> 0.55600669E+04</totfact>
</mgrwt>
</event>
<event>
 7    0  0.4775379E-002  0.4536203E+03  0.7546771E-02  0.1026648E+00
         21   -1    0    0  502  501  0.00000000000E+00  0.00000000000E+00  0.48272079620E+03  0.48272079620E+03  0.00000000000E+00 0. -1.
         21   -1    0    0  501  502 -0.00000000000E+00 -0.00000000000E+00 -0.10656854061E+03  0.10656854061E+03  0.00000000000E+00 0. -1.
      99926    2    1    2    0    0  0.00000000000E+00  0.00000000000E+00  0.37615225560E+03  0.58928933681E+03  0.45362032923E+03 0.  0.
      99925    2    3    3    0    0  0.67693025567E+02  0.37468360550E+02  0.13212956778E+03  0.30436688417E+03  0.26304895693E+03 0.  0.
         25    1    3    3    0    0 -0.67693025567E+02 -0.37468360550E+02  0.24402268781E+03  0.28492245264E+03  0.12509000000E+03 0.  0.
         25    1    4    4    0    0  0.29181014374E+02  0.12969571105E+02  0.10953145239E+03  0.16930560693E+03  0.12509000000E+03 0.  0.
         25    1    4    4    0    0  0.38512011193E+02  0.24498789445E+02  0.22598115397E+02  0.13506127724E+03  0.12509000000E+03 0.  0.
<mgrwt>
<rscale>  2 0.45362033E+03</rscale>
<asrwt>0</asrwt>
<pdfrwt beam="1">  1       21 0.70988352E-01 0.45362033E+03</pdfrwt>
<pdfrwt beam="2">  1       21 0.15671844E-01 0.45362033E+03</pdfrwt>
<totfact> 0.59993953E+04</totfact>
</mgrwt>
</event>
<event>
 7    0  0.4775379E-002  0.4573073E+03  0.7546771E-02  0.1025565E+00
         21   -1    0    0  502  501  0.00000000000E+00  0.00000000000E+00  0.13714121279E+03  0.13714121279E+03  0.00000000000E+00 0.  1.
         21   -1    0    0  501  502 -0.00000000000E+00 -0.00000000000E+00 -0.38123115284E+03  0.38123115284E+03  0.00000000000E+00 0.  1.
      99926    2    1    2    0    0  0.35527136788E-14  0.00000000000E+00 -0.24408994006E+03  0.51837236563E+03  0.45730734808E+03 0.  0.
      99925    2    3    3    0    0  0.30439246624E+02  0.88339617464E+02 -0.76702928043E+02  0.28946986315E+03  0.26301906158E+03 0.  0.
         25    1    3    3    0    0 -0.30439246624E+02 -0.88339617464E+02 -0.16738701201E+03  0.22890250248E+03  0.12509000000E+03 0.  0.
         25    1    4    4    0    0 -0.15497514553E+02  0.67578906712E+02 -0.25858095620E+02  0.14533833217E+03  0.12509000000E+03 0.  0.
         25    1    4    4    0    0  0.45936761177E+02  0.20760710751E+02 -0.50844832423E+02  0.14413153098E+03  0.12509000000E+03 0.  0.
<mgrwt>
<rscale>  2 0.45730735E+03</rscale>
<asrwt>0</asrwt>
<pdfrwt beam="1">  1       21 0.20167825E-01 0.45730735E+03</pdfrwt>
<pdfrwt beam="2">  1       21 0.56063406E-01 0.45730735E+03</pdfrwt>
<totfact> 0.62839935E+04</totfact>
</mgrwt>
</event>
<event>
 7    0  0.4775379E-002  0.4514562E+03  0.7546771E-02  0.1027289E+00
         21   -1    0    0  502  501  0.00000000000E+00  0.00000000000E+00  0.62788537623E+02  0.62788537623E+02  0.00000000000E+00 0.  1.
         21   -1    0    0  501  502 -0.00000000000E+00 -0.00000000000E+00 -0.81150430690E+03  0.81150430690E+03  0.00000000000E+00 0.  1.
      99926    2    1    2    0    0  0.00000000000E+00 -0.14210854715E-13 -0.74871576927E+03  0.87429284452E+03  0.45145617154E+03 0.  0.
      99925    2    3    3    0    0  0.13786280102E+02  0.70946871092E+02 -0.31264129471E+03  0.41491067736E+03  0.26302617929E+03 0.  0.
         25    1    4    4    0    0  0.34542447500E+02  0.66659397525E+02 -0.16911328652E+03  0.22334607168E+03  0.12509000000E+03 0.  0.
         25    1    4    4    0    0 -0.20756167398E+02  0.42874735663E+01 -0.14352800819E+03  0.19156460568E+03  0.12509000000E+03 0.  0.
         25    1    3    3    0    0 -0.13786280102E+02 -0.70946871092E+02 -0.43607447456E+03  0.45938216716E+03  0.12509000000E+03 0.  0.
<mgrwt>
<rscale>  2 0.45145617E+03</rscale>
<asrwt>0</asrwt>
<pdfrwt beam="1">  1       21 0.92336090E-02 0.45145617E+03</pdfrwt>
<pdfrwt beam="2">  1       21 0.11933886E+00 0.45145617E+03</pdfrwt>
<totfact> 0.45616968E+04</totfact>
</mgrwt>
</event>
<event>
 7    0  0.4775379E-002  0.4464530E+03  0.7546771E-02  0.1028785E+00
         21   -1    0    0  502  501  0.00000000000E+00  0.00000000000E+00  0.97172384222E+03  0.97172384222E+03  0.00000000000E+00 0. -1.
         21   -1    0    0  501  502 -0.00000000000E+00 -0.00000000000E+00 -0.51280080428E+02  0.51280080428E+02  0.00000000000E+00 0. -1.
      99926    2    1    2    0    0  0.00000000000E+00 -0.17763568394E-14  0.92044376179E+03  0.10230039227E+04  0.44645302903E+03 0.  0.
      99925    2    3    3    0    0  0.41738768957E+02  0.10485084403E+02  0.80312639971E+03  0.84619065003E+03  0.26301053298E+03 0.  0.
         25    1    3    3    0    0 -0.41738768957E+02 -0.10485084403E+02  0.11731736209E+03  0.17681327262E+03  0.12509000000E+03 0.  0.
         25    1    4    4    0    0 -0.57534502955E+01  0.20165527072E+02  0.47640652956E+03  0.49300146062E+03  0.12509000000E+03 0.  0.
         25    1    4    4    0    0  0.47492219253E+02 -0.96804426690E+01  0.32671987015E+03  0.35318918940E+03  0.12509000000E+03 0.  0.
<mgrwt>
<rscale>  2 0.44645303E+03</rscale>
<asrwt>0</asrwt>
<pdfrwt beam="1">  1       21 0.14290055E+00 0.44645303E+03</pdfrwt>
<pdfrwt beam="2">  1       21 0.75411889E-02 0.44645303E+03</pdfrwt>
<totfact> 0.40948855E+04</totfact>
</mgrwt>
</event>
<event>
 7    0  0.4775379E-002  0.4266064E+03  0.7546771E-02  0.1034937E+00
         21   -1    0    0  502  501  0.00000000000E+00  0.00000000000E+00  0.21228492319E+03  0.21228492319E+03  0.00000000000E+00 0. -1.
         21   -1    0    0  501  502 -0.00000000000E+00 -0.00000000000E+00 -0.21432638366E+03  0.21432638366E+03  0.00000000000E+00 0. -1.
      99926    2    1    2    0    0  0.00000000000E+00  0.00000000000E+00 -0.20414604706E+01  0.42661130684E+03  0.42660642232E+03 0.  0.
      99925    2    3    3    0    0  0.92590979449E+01  0.82041990118E+02  0.13343090056E+02  0.27594342197E+03  0.26296409458E+03 0.  0.
         25    1    4    4    0    0  0.29720661308E+02  0.81772106877E+01  0.96414924104E+01  0.12919230224E+03  0.12509000000E+03 0.  0.
         25    1    4    4    0    0 -0.20461563363E+02  0.73864779430E+02  0.37015976451E+01  0.14675111973E+03  0.12509000000E+03 0.  0.
         25    1    3    3    0    0 -0.92590979449E+01 -0.82041990118E+02 -0.15384550526E+02  0.15066788487E+03  0.12509000000E+03 0.  0.
<mgrwt>
<rscale>  2 0.42660642E+03</rscale>
<asrwt>0</asrwt>
<pdfrwt beam="1">  1       21 0.31218371E-01 0.42660642E+03</pdfrwt>
<pdfrwt beam="2">  1       21 0.31518586E-01 0.42660642E+03</pdfrwt>
<totfact> 0.89246703E+04</totfact>
</mgrwt>
</event>
<event>
 7    0  0.4775379E-002  0.4566216E+03  0.7546771E-02  0.1025766E+00
         21   -1    0    0  502  501  0.00000000000E+00  0.00000000000E+00  0.45581906941E+02  0.45581906941E+02  0.00000000000E+00 0.  1.
         21   -1    0    0  501  502 -0.00000000000E+00 -0.00000000000E+00 -0.11435636627E+04  0.11435636627E+04  0.00000000000E+00 0.  1.
      99926    2    1    2    0    0  0.00000000000E+00  0.00000000000E+00 -0.10979817557E+04  0.11891455696E+04  0.45662156083E+03 0.  0.
      99925    2    3    3    0    0 -0.45778452701E+02  0.10117443608E+03 -0.76328913083E+03  0.81498170910E+03  0.26315956316E+03 0.  0.
         25    1    4    4    0    0 -0.52634940695E+02  0.48966332147E+02 -0.47334473537E+03  0.49484430407E+03  0.12509000000E+03 0.  0.
         25    1    4    4    0    0  0.68564879949E+01  0.52208103935E+02 -0.28994439546E+03  0.32013740504E+03  0.12509000000E+03 0.  0.
         25    1    3    3    0    0  0.45778452701E+02 -0.10117443608E+03 -0.33469262490E+03  0.37416386051E+03  0.12509000000E+03 0.  0.
<mgrwt>
<rscale>  2 0.45662156E+03</rscale>
<asrwt>0</asrwt>
<pdfrwt beam="1">  1       21 0.67032220E-02 0.45662156E+03</pdfrwt>
<pdfrwt beam="2">  1       21 0.16817112E+00 0.45662156E+03</pdfrwt>
<totfact> 0.32094498E+04</totfact>
</mgrwt>
</event>
<event>
 7    0  0.4775379E-002  0.4619744E+03  0.7546771E-02  0.1024210E+00
         21   -1    0    0  502  501  0.00000000000E+00  0.00000000000E+00  0.63619308955E+03  0.63619308955E+03  0.00000000000E+00 0. -1.
         21   -1    0    0  501  502 -0.00000000000E+00 -0.00000000000E+00 -0.83866175948E+02  0.83866175948E+02  0.00000000000E+00 0. -1.
      99926    2    1    2    0    0  0.00000000000E+00 -0.66613381478E-15  0.55232691360E+03  0.72005926550E+03  0.46197437845E+03 0.  0.
      99925    2    3    3    0    0  0.11666227110E+03 -0.17411155197E+01  0.38636334913E+03  0.48172225660E+03  0.26299539534E+03 0.  0.
         25    1    3    3    0    0 -0.11666227110E+03  0.17411155197E+01  0.16596356447E+03  0.23833700890E+03  0.12509000000E+03 0.  0.
         25    1    4    4    0    0  0.42918696582E+02  0.25629521693E+02  0.13886149241E+03  0.19346552425E+03  0.12509000000E+03 0.  0.
         25    1    4    4    0    0  0.73743574513E+02 -0.27370637212E+02  0.24750185672E+03  0.28825673235E+03  0.12509000000E+03 0.  0.
<mgrwt>
<rscale>  2 0.46197438E+03</rscale>
<asrwt>0</asrwt>
<pdfrwt beam="1">  1       21 0.93557805E-01 0.46197438E+03</pdfrwt>
<pdfrwt beam="2">  1       21 0.12333261E-01 0.46197438E+03</pdfrwt>
<totfact> 0.49079076E+04</totfact>
</mgrwt>
</event>
<event>
 7    0  0.4775379E-002  0.4546162E+03  0.7546771E-02  0.1026354E+00
         21   -1    0    0  502  501  0.00000000000E+00  0.00000000000E+00  0.15009675186E+02  0.15009675186E+02  0.00000000000E+00 0. -1.
         21   -1    0    0  501  502 -0.00000000000E+00 -0.00000000000E+00 -0.34423784368E+04  0.34423784368E+04  0.00000000000E+00 0. -1.
      99926    2    1    2    0    0  0.00000000000E+00 -0.71054273576E-14 -0.34273687616E+04  0.34573881120E+04  0.45461624346E+03 0.  0.
      99925    2    3    3    0    0  0.88356489579E+02  0.40394218670E+02 -0.25935940815E+04  0.26087030777E+04  0.26298845177E+03 0.  0.
         25    1    4    4    0    0  0.26355813617E+02  0.56285381787E+02 -0.13379434014E+04  0.13452147511E+04  0.12509000000E+03 0.  0.
         25    1    4    4    0    0  0.62000675962E+02 -0.15891163116E+02 -0.12556506801E+04  0.12634883266E+04  0.12509000000E+03 0.  0.
         25    1    3    3    0    0 -0.88356489579E+02 -0.40394218670E+02 -0.83377468010E+03  0.84868503429E+03  0.12509000000E+03 0.  0.
<mgrwt>
<rscale>  2 0.45461624E+03</rscale>
<asrwt>0</asrwt>
<pdfrwt beam="1">  1       21 0.22073065E-02 0.45461624E+03</pdfrwt>
<pdfrwt beam="2">  1       21 0.50623182E+00 0.45461624E+03</pdfrwt>
<totfact> 0.14052297E+03</totfact>
</mgrwt>
</event>
<event>
 7    0  0.4775379E-002  0.4553656E+03  0.7546771E-02  0.1026134E+00
         21   -1    0    0  502  501  0.00000000000E+00  0.00000000000E+00  0.23352231103E+03  0.23352231103E+03  0.00000000000E+00 0. -1.
         21   -1    0    0  501  502 -0.00000000000E+00 -0.00000000000E+00 -0.22198929106E+03  0.22198929106E+03  0.00000000000E+00 0. -1.
      99926    2    1    2    0    0 -0.35527136788E-14  0.14210854715E-13  0.11533019969E+02  0.45551160209E+03  0.45536557741E+03 0.  0.
      99925    2    3    3    0    0 -0.26759374727E+02 -0.10958462430E+03 -0.85093728457E+01  0.28588241938E+03  0.26254807991E+03 0.  0.
         25    1    4    4    0    0 -0.65503466972E+01 -0.96490722981E+02  0.12602502654E+01  0.15812167149E+03  0.12509000000E+03 0.  0.
         25    1    3    3    0    0  0.26759374727E+02  0.10958462430E+03  0.20042392814E+02  0.16962918272E+03  0.12509000000E+03 0.  0.
         25    1    4    4    0    0 -0.20209028029E+02 -0.13093901323E+02 -0.97696231111E+01  0.12776074789E+03  0.12509000000E+03 0.  0.
<mgrwt>
<rscale>  2 0.45536558E+03</rscale>
<asrwt>0</asrwt>
<pdfrwt beam="1">  1       21 0.34341517E-01 0.45536558E+03</pdfrwt>
<pdfrwt beam="2">  1       21 0.32645484E-01 0.45536558E+03</pdfrwt>
<totfact> 0.68308867E+04</totfact>
</mgrwt>
</event>
<event>
 7    0  0.4775379E-002  0.4547556E+03  0.7546771E-02  0.1026313E+00
         21   -1    0    0  502  501  0.00000000000E+00  0.00000000000E+00  0.11219255414E+03  0.11219255414E+03  0.00000000000E+00 0.  1.
         21   -1    0    0  501  502 -0.00000000000E+00 -0.00000000000E+00 -0.46082089183E+03  0.46082089183E+03  0.00000000000E+00 0.  1.
      99926    2    1    2    0    0  0.00000000000E+00  0.14210854715E-13 -0.34862833769E+03  0.57301344597E+03  0.45475563924E+03 0.  0.
      99925    2    3    3    0    0  0.74070399765E+01 -0.95983910233E+02 -0.14501936411E+03  0.31538600665E+03  0.26300179080E+03 0.  0.
         25    1    4    4    0    0  0.41149145493E+01 -0.90815094599E+02 -0.74296077864E+02  0.17155678131E+03  0.12509000000E+03 0.  0.
         25    1    4    4    0    0  0.32921254273E+01 -0.51688156336E+01 -0.70723286245E+02  0.14382922534E+03  0.12509000000E+03 0.  0.
         25    1    3    3    0    0 -0.74070399765E+01  0.95983910233E+02 -0.20360897358E+03  0.25762743931E+03  0.12509000000E+03 0.  0.
<mgrwt>
<rscale>  2 0.45475564E+03</rscale>
<asrwt>0</asrwt>
<pdfrwt beam="1">  1       21 0.16498905E-01 0.45475564E+03</pdfrwt>
<pdfrwt beam="2">  1       21 0.67767780E-01 0.45475564E+03</pdfrwt>
<totfact> 0.60487679E+04</totfact>
</mgrwt>
</event>
<event>
 7    0  0.4775379E-002  0.4456082E+03  0.7546771E-02  0.1029040E+00
         21   -1    0    0  502  501  0.00000000000E+00  0.00000000000E+00  0.11065150139E+03  0.11065150139E+03  0.00000000000E+00 0.  1.
         21   -1    0    0  501  502 -0.00000000000E+00 -0.00000000000E+00 -0.44863084119E+03  0.44863084119E+03  0.00000000000E+00 0.  1.
      99926    2    1    2    0    0  0.00000000000E+00 -0.71054273576E-14 -0.33797933981E+03  0.55928234258E+03  0.44560824116E+03 0.  0.
      99925    2    3    3    0    0  0.97545807296E+02 -0.29919287420E+02 -0.18826890249E+03  0.33912087587E+03  0.26295900922E+03 0.  0.
         25    1    4    4    0    0  0.72664807936E+02  0.90984739886E+01 -0.12542470709E+03  0.19168156351E+03  0.12509000000E+03 0.  0.
         25    1    3    3    0    0 -0.97545807296E+02  0.29919287420E+02 -0.14971043732E+03  0.22016146671E+03  0.12509000000E+03 0.  0.
         25    1    4    4    0    0  0.24880999360E+02 -0.39017761409E+02 -0.62844195394E+02  0.14743931236E+03  0.12509000000E+03 0.  0.
<mgrwt>
<rscale>  2 0.44560824E+03</rscale>
<asrwt>0</asrwt>
<pdfrwt beam="1">  1       21 0.16272280E-01 0.44560824E+03</pdfrwt>
<pdfrwt beam="2">  1       21 0.65975123E-01 0.44560824E+03</pdfrwt>
<totfact> 0.66027272E+04</totfact>
</mgrwt>
</event>
<event>
 7    0  0.4775379E-002  0.4553648E+03  0.7546771E-02  0.1026134E+00
         21   -1    0    0  502  501  0.00000000000E+00  0.00000000000E+00  0.10090974359E+03  0.10090974359E+03  0.00000000000E+00 0. -1.
         21   -1    0    0  501  502 -0.00000000000E+00 -0.00000000000E+00 -0.51371920198E+03  0.51371920198E+03  0.00000000000E+00 0. -1.
      99926    2    1    2    0    0  0.00000000000E+00  0.00000000000E+00 -0.41280945839E+03  0.61462894557E+03  0.45536478980E+03 0.  0.
      99925    2    3    3    0    0  0.18755344524E+02  0.31775089645E+02 -0.11537874917E+03  0.28986140693E+03  0.26333621132E+03 0.  0.
         25    1    4    4    0    0 -0.17822895147E+02  0.18195518184E+02 -0.90512825519E+02  0.15648901609E+03  0.12509000000E+03 0.  0.
         25    1    3    3    0    0 -0.18755344524E+02 -0.31775089645E+02 -0.29743070922E+03  0.32476753864E+03  0.12509000000E+03 0.  0.
         25    1    4    4    0    0  0.36578239671E+02  0.13579571461E+02 -0.24865923656E+02  0.13337239084E+03  0.12509000000E+03 0.  0.
<mgrwt>
<rscale>  2 0.45536479E+03</rscale>
<asrwt>0</asrwt>
<pdfrwt beam="1">  1       21 0.14839668E-01 0.45536479E+03</pdfrwt>
<pdfrwt beam="2">  1       21 0.75546941E-01 0.45536479E+03</pdfrwt>
<totfact> 0.57620549E+04</totfact>
</mgrwt>
</event>
<event>
 7    0  0.4775379E-002  0.4507293E+03  0.7546771E-02  0.1027505E+00
         21   -1    0    0  502  501  0.00000000000E+00  0.00000000000E+00  0.37802697357E+03  0.37802697357E+03  0.00000000000E+00 0.  1.
         21   -1    0    0  501  502 -0.00000000000E+00 -0.00000000000E+00 -0.13435344015E+03  0.13435344015E+03  0.00000000000E+00 0.  1.
      99926    2    1    2    0    0  0.00000000000E+00  0.00000000000E+00  0.24367353342E+03  0.51238041372E+03  0.45072929512E+03 0.  0.
      99925    2    3    3    0    0 -0.77993697268E+02  0.65878675913E+02  0.19785370862E+03  0.34454126096E+03  0.26294405059E+03 0.  0.
         25    1    4    4    0    0 -0.28442339049E+02  0.94965830213E+01  0.53517665535E+02  0.13932264842E+03  0.12509000000E+03 0.  0.
         25    1    4    4    0    0 -0.49551358219E+02  0.56382092892E+02  0.14433604308E+03  0.20521861254E+03  0.12509000000E+03 0.  0.
         25    1    3    3    0    0  0.77993697268E+02 -0.65878675913E+02  0.45819824801E+02  0.16783915276E+03  0.12509000000E+03 0.  0.
<mgrwt>
<rscale>  2 0.45072930E+03</rscale>
<asrwt>0</asrwt>
<pdfrwt beam="1">  1       21 0.55592202E-01 0.45072930E+03</pdfrwt>
<pdfrwt beam="2">  1       21 0.19757859E-01 0.45072930E+03</pdfrwt>
<totfact> 0.66639194E+04</totfact>
</mgrwt>
</event>
<event>
 7    0  0.4775379E-002  0.4267517E+03  0.7546771E-02  0.1034891E+00
         21   -1    0    0  502  501  0.00000000000E+00  0.00000000000E+00  0.53207029280E+03  0.53207029280E+03  0.00000000000E+00 0. -1.
         21   -1    0    0  501  502 -0.00000000000E+00 -0.00000000000E+00 -0.85570002208E+02  0.85570002208E+02  0.00000000000E+00 0. -1.
      99926    2    1    2    0    0  0.00000000000E+00  0.00000000000E+00  0.44650029059E+03  0.61764029501E+03  0.42675171297E+03 0.  0.
      99925    2    3    3    0    0  0.41117617485E+02  0.56086034578E+02  0.22007259267E+03  0.34977220764E+03  0.26281618948E+03 0.  0.
         25    1    4    4    0    0  0.55689529460E+02  0.14297670182E+02  0.93683176434E+02  0.16652264924E+03  0.12509000000E+03 0.  0.
         25    1    4    4    0    0 -0.14571911975E+02  0.41788364396E+02  0.12638941624E+03  0.18324955840E+03  0.12509000000E+03 0.  0.
         25    1    3    3    0    0 -0.41117617485E+02 -0.56086034578E+02  0.22642769792E+03  0.26786808737E+03  0.12509000000E+03 0.  0.
<mgrwt>
<rscale>  2 0.42675171E+03</rscale>
<asrwt>0</asrwt>
<pdfrwt beam="1">  1       21 0.78245630E-01 0.42675171E+03</pdfrwt>
<pdfrwt beam="2">  1       21 0.12583824E-01 0.42675171E+03</pdfrwt>
<totfact> 0.72463086E+04</totfact>
</mgrwt>
</event>
<event>
 7    0  0.4775379E-002  0.4547856E+03  0.7546771E-02  0.1026304E+00
         21   -1    0    0  502  501  0.00000000000E+00  0.00000000000E+00  0.74389662248E+03  0.74389662248E+03  0.00000000000E+00 0.  1.
         21   -1    0    0  501  502 -0.00000000000E+00 -0.00000000000E+00 -0.69508960293E+02  0.69508960293E+02  0.00000000000E+00 0.  1.
      99926    2    1    2    0    0  0.00000000000E+00  0.00000000000E+00  0.67438766218E+03  0.81340558277E+03  0.45478557934E+03 0.  0.
      99925    2    3    3    0    0 -0.97327160807E+02  0.49244938262E+02  0.47722103842E+03  0.55568514159E+03  0.26296086572E+03 0.  0.
         25    1    4    4    0    0 -0.28841224162E+02  0.54911023253E+02  0.20048692205E+03  0.24431445045E+03  0.12509000000E+03 0.  0.
         25    1    3    3    0    0  0.97327160807E+02 -0.49244938262E+02  0.19716662376E+03  0.25772044118E+03  0.12509000000E+03 0.  0.
         25    1    4    4    0    0 -0.68485936645E+02 -0.56660849913E+01  0.27673411637E+03  0.31137069114E+03  0.12509000000E+03 0.  0.
<mgrwt>
<rscale>  2 0.45478558E+03</rscale>
<asrwt>0</asrwt>
<pdfrwt beam="1">  1       21 0.10939656E+00 0.45478558E+03</pdfrwt>
<pdfrwt beam="2">  1       21 0.10221906E-01 0.45478558E+03</pdfrwt>
<totfact> 0.47202599E+04</totfact>
</mgrwt>
</event>
<event>
 7    0  0.4775379E-002  0.4139201E+03  0.7546771E-02  0.1039063E+00
         21   -1    0    0  502  501  0.00000000000E+00  0.00000000000E+00  0.13545482323E+04  0.13545482323E+04  0.00000000000E+00 0.  1.
         21   -1    0    0  501  502 -0.00000000000E+00 -0.00000000000E+00 -0.31621210571E+02  0.31621210571E+02  0.00000000000E+00 0.  1.
      99926    2    1    2    0    0  0.00000000000E+00  0.00000000000E+00  0.13229270217E+04  0.13861694428E+04  0.41392006418E+03 0.  0.
      99925    2    3    3    0    0  0.17796299948E+02  0.25597520338E+02  0.10698506787E+04  0.11021499279E+04  0.26302480432E+03 0.  0.
         25    1    4    4    0    0 -0.48993549674E+01 -0.19500919465E+02  0.43220883793E+03  0.45039568962E+03  0.12509000000E+03 0.  0.
         25    1    4    4    0    0  0.22695654916E+02  0.45098439803E+02  0.63764184073E+03  0.65175423833E+03  0.12509000000E+03 0.  0.
         25    1    3    3    0    0 -0.17796299948E+02 -0.25597520338E+02  0.25307634304E+03  0.28401951491E+03  0.12509000000E+03 0.  0.
<mgrwt>
<rscale>  2 0.41392006E+03</rscale>
<asrwt>0</asrwt>
<pdfrwt beam="1">  1       21 0.19919823E+00 0.41392006E+03</pdfrwt>
<pdfrwt beam="2">  1       21 0.46501789E-02 0.41392006E+03</pdfrwt>
<totfact> 0.37251647E+04</totfact>
</mgrwt>
</event>
<event>
 7    0  0.4775379E-002  0.4570553E+03  0.7546771E-02  0.1025639E+00
         21   -1    0    0  502  501  0.00000000000E+00  0.00000000000E+00  0.72356265228E+03  0.72356265228E+03  0.00000000000E+00 0. -1.
         21   -1    0    0  501  502 -0.00000000000E+00 -0.00000000000E+00 -0.72177426794E+02  0.72177426794E+02  0.00000000000E+00 0. -1.
      99926    2    1    2    0    0 -0.14210854715E-13  0.35527136788E-14  0.65138522548E+03  0.79574007907E+03  0.45705531554E+03 0.  0.
      99925    2    3    3    0    0 -0.85454327475E+02  0.11938917905E+02  0.27630432886E+03  0.39104492595E+03  0.26292027712E+03 0.  0.
         25    1    3    3    0    0  0.85454327475E+02 -0.11938917905E+02  0.37508089662E+03  0.40469515312E+03  0.12509000000E+03 0.  0.
         25    1    4    4    0    0 -0.40696214100E+02  0.33610312465E+02  0.97119863432E+02  0.16692995812E+03  0.12509000000E+03 0.  0.
         25    1    4    4    0    0 -0.44758113375E+02 -0.21671394559E+02  0.17918446543E+03  0.22411496783E+03  0.12509000000E+03 0.  0.
<mgrwt>
<rscale>  2 0.45705532E+03</rscale>
<asrwt>0</asrwt>
<pdfrwt beam="1">  1       21 0.10640627E+00 0.45705532E+03</pdfrwt>
<pdfrwt beam="2">  1       21 0.10614328E-01 0.45705532E+03</pdfrwt>
<totfact> 0.47205499E+04</totfact>
</mgrwt>
</event>
<event>
 7    0  0.4775379E-002  0.4533855E+03  0.7546771E-02  0.1026717E+00
         21   -1    0    0  502  501  0.00000000000E+00  0.00000000000E+00  0.33303224729E+03  0.33303224729E+03  0.00000000000E+00 0. -1.
         21   -1    0    0  501  502 -0.00000000000E+00 -0.00000000000E+00 -0.15430816515E+03  0.15430816515E+03  0.00000000000E+00 0. -1.
      99926    2    1    2    0    0  0.00000000000E+00  0.00000000000E+00  0.17872408214E+03  0.48734041245E+03  0.45338546522E+03 0.  0.
      99925    2    3    3    0    0 -0.85852796376E+02  0.12834840066E+02  0.37052161465E+02  0.27936474807E+03  0.26293794711E+03 0.  0.
         25    1    4    4    0    0 -0.48489267975E+02  0.89020878126E+01 -0.21620152908E+02  0.13618147961E+03  0.12509000000E+03 0.  0.
         25    1    4    4    0    0 -0.37363528400E+02  0.39327522538E+01  0.58672314373E+02  0.14318326847E+03  0.12509000000E+03 0.  0.
         25    1    3    3    0    0  0.85852796376E+02 -0.12834840066E+02  0.14167192067E+03  0.20797566438E+03  0.12509000000E+03 0.  0.
<mgrwt>
<rscale>  2 0.45338547E+03</rscale>
<asrwt>0</asrwt>
<pdfrwt beam="1">  1       21 0.48975331E-01 0.45338547E+03</pdfrwt>
<pdfrwt beam="2">  1       21 0.22692377E-01 0.45338547E+03</pdfrwt>
<totfact> 0.67024486E+04</totfact>
</mgrwt>
</event>
<event>
 7    0  0.4775379E-002  0.4567197E+03  0.7546771E-02  0.1025737E+00
         21   -1    0    0  502  501  0.00000000000E+00  0.00000000000E+00  0.78300812019E+02  0.78300812019E+02  0.00000000000E+00 0.  1.
         21   -1    0    0  501  502 -0.00000000000E+00 -0.00000000000E+00 -0.66599854753E+03  0.66599854753E+03  0.00000000000E+00 0.  1.
      99926    2    1    2    0    0 -0.14210854715E-13  0.71054273576E-14 -0.58769773551E+03  0.74429935955E+03  0.45671972620E+03 0.  0.
      99925    2    3    3    0    0 -0.89497304883E+02  0.52578702534E+02 -0.28931452086E+03  0.40451363527E+03  0.26297167451E+03 0.  0.
         25    1    3    3    0    0  0.89497304883E+02 -0.52578702534E+02 -0.29838321465E+03  0.33978572428E+03  0.12509000000E+03 0.  0.
         25    1    4    4    0    0 -0.64442604359E+02  0.51235654844E+02 -0.11662430224E+03  0.18980694813E+03  0.12509000000E+03 0.  0.
         25    1    4    4    0    0 -0.25054700524E+02  0.13430476898E+01 -0.17269021862E+03  0.21470668714E+03  0.12509000000E+03 0.  0.
<mgrwt>
<rscale>  2 0.45671973E+03</rscale>
<asrwt>0</asrwt>
<pdfrwt beam="1">  1       21 0.11514825E-01 0.45671973E+03</pdfrwt>
<pdfrwt beam="2">  1       21 0.97940963E-01 0.45671973E+03</pdfrwt>
<totfact> 0.49885116E+04</totfact>
</mgrwt>
</event>
<event>
 7    0  0.4775379E-002  0.4638671E+03  0.7546771E-02  0.1023666E+00
         21   -1    0    0  502  501  0.00000000000E+00  0.00000000000E+00  0.82217881585E+02  0.82217881585E+02  0.00000000000E+00 0.  1.
         21   -1    0    0  501  502 -0.00000000000E+00 -0.00000000000E+00 -0.65427591585E+03  0.65427591585E+03  0.00000000000E+00 0.  1.
      99926    2    1    2    0    0  0.00000000000E+00  0.00000000000E+00 -0.57205803427E+03  0.73649379744E+03  0.46386713517E+03 0.  0.
      99925    2    3    3    0    0 -0.43975008893E+02  0.11318817349E+03 -0.36465611167E+03  0.46555389705E+03  0.26271845625E+03 0.  0.
         25    1    4    4    0    0 -0.24192678091E+02  0.59434531147E+02 -0.24842948876E+03  0.28545134113E+03  0.12509000000E+03 0.  0.
         25    1    4    4    0    0 -0.19782330802E+02  0.53753642343E+02 -0.11622662291E+03  0.18010255593E+03  0.12509000000E+03 0.  0.
         25    1    3    3    0    0  0.43975008893E+02 -0.11318817349E+03 -0.20740192260E+03  0.27093990039E+03  0.12509000000E+03 0.  0.
<mgrwt>
<rscale>  2 0.46386714E+03</rscale>
<asrwt>0</asrwt>
<pdfrwt beam="1">  1       21 0.12090865E-01 0.46386714E+03</pdfrwt>
<pdfrwt beam="2">  1       21 0.96217048E-01 0.46386714E+03</pdfrwt>
<totfact> 0.47562344E+04</totfact>
</mgrwt>
</event>
<event>
 7    0  0.4775379E-002  0.4537736E+03  0.7546771E-02  0.1026603E+00
         21   -1    0    0  502  501  0.00000000000E+00  0.00000000000E+00  0.16268321675E+04  0.16268321675E+04  0.00000000000E+00 0. -1.
         21   -1    0    0  501  502 -0.00000000000E+00 -0.00000000000E+00 -0.31642853863E+02  0.31642853863E+02  0.00000000000E+00 0. -1.
      99926    2    1    2    0    0  0.00000000000E+00  0.00000000000E+00  0.15951893136E+04  0.16584750213E+04  0.45377356704E+03 0.  0.
      99925    2    3    3    0    0  0.10057655686E+03 -0.46916037870E+02  0.10601309192E+04  0.10978934021E+04  0.26301254330E+03 0.  0.
         25    1    4    4    0    0  0.28938683553E+02 -0.29180042160E+02  0.37233257957E+03  0.39492781641E+03  0.12509000000E+03 0.  0.
         25    1    3    3    0    0 -0.10057655686E+03  0.46916037870E+02  0.53505839435E+03  0.56058161927E+03  0.12509000000E+03 0.  0.
         25    1    4    4    0    0  0.71637873303E+02 -0.17735995710E+02  0.68779833968E+03  0.70296558565E+03  0.12509000000E+03 0.  0.
<mgrwt>
<rscale>  2 0.45377357E+03</rscale>
<asrwt>0</asrwt>
<pdfrwt beam="1">  1       21 0.23923997E+00 0.45377357E+03</pdfrwt>
<pdfrwt beam="2">  1       21 0.46533619E-02 0.45377357E+03</pdfrwt>
<totfact> 0.20333020E+04</totfact>
</mgrwt>
</event>
<event>
 7    0  0.4775379E-002  0.4547130E+03  0.7546771E-02  0.1026326E+00
         21   -1    0    0  502  501  0.00000000000E+00  0.00000000000E+00  0.15996769989E+03  0.15996769989E+03  0.00000000000E+00 0. -1.
         21   -1    0    0  501  502 -0.00000000000E+00 -0.00000000000E+00 -0.32313380374E+03  0.32313380374E+03  0.00000000000E+00 0. -1.
      99926    2    1    2    0    0  0.00000000000E+00 -0.35527136788E-14 -0.16316610385E+03  0.48310150363E+03  0.45471297031E+03 0.  0.
      99925    2    3    3    0    0  0.42561207702E+02 -0.30661581288E+02  0.34749739003E+01  0.26823329784E+03  0.26303124844E+03 0.  0.
         25    1    4    4    0    0  0.45394820222E+02 -0.20731228307E+02 -0.30733654107E+02  0.13813956394E+03  0.12509000000E+03 0.  0.
         25    1    3    3    0    0 -0.42561207702E+02  0.30661581288E+02 -0.16664107775E+03  0.21486820579E+03  0.12509000000E+03 0.  0.
         25    1    4    4    0    0 -0.28336125194E+01 -0.99303529809E+01  0.34208628007E+02  0.13009373390E+03  0.12509000000E+03 0.  0.
<mgrwt>
<rscale>  2 0.45471297E+03</rscale>
<asrwt>0</asrwt>
<pdfrwt beam="1">  1       21 0.23524662E-01 0.45471297E+03</pdfrwt>
<pdfrwt beam="2">  1       21 0.47519677E-01 0.45471297E+03</pdfrwt>
<totfact> 0.66626698E+04</totfact>
</mgrwt>
</event>
<event>
 7    0  0.4775379E-002  0.4598614E+03  0.7546771E-02  0.1024821E+00
         21   -1    0    0  502  501  0.00000000000E+00  0.00000000000E+00  0.47527998124E+03  0.47527998124E+03  0.00000000000E+00 0.  1.
         21   -1    0    0  501  502 -0.00000000000E+00 -0.00000000000E+00 -0.11123575690E+03  0.11123575690E+03  0.00000000000E+00 0.  1.
      99926    2    1    2    0    0  0.00000000000E+00  0.00000000000E+00  0.36404422434E+03  0.58651573815E+03  0.45986140718E+03 0.  0.
      99925    2    3    3    0    0 -0.96543646239E+02 -0.21636513287E+02  0.14700527803E+03  0.31717909628E+03  0.26306503571E+03 0.  0.
         25    1    4    4    0    0 -0.44467626614E+02 -0.82544529361E+01  0.11834134785E+03  0.17803844675E+03  0.12509000000E+03 0.  0.
         25    1    4    4    0    0 -0.52076019624E+02 -0.13382060351E+02  0.28663930184E+02  0.13914064953E+03  0.12509000000E+03 0.  0.
         25    1    3    3    0    0  0.96543646239E+02  0.21636513287E+02  0.21703894631E+03  0.26933664186E+03  0.12509000000E+03 0.  0.
<mgrwt>
<rscale>  2 0.45986141E+03</rscale>
<asrwt>0</asrwt>
<pdfrwt beam="1">  1       21 0.69894114E-01 0.45986141E+03</pdfrwt>
<pdfrwt beam="2">  1       21 0.16358200E-01 0.45986141E+03</pdfrwt>
<totfact> 0.57282898E+04</totfact>
</mgrwt>
</event>
<event>
 7    0  0.4775379E-002  0.4575368E+03  0.7546771E-02  0.1025498E+00
         21   -1    0    0  502  501  0.00000000000E+00  0.00000000000E+00  0.47167926734E+03  0.47167926734E+03  0.00000000000E+00 0. -1.
         21   -1    0    0  501  502 -0.00000000000E+00 -0.00000000000E+00 -0.11095461045E+03  0.11095461045E+03  0.00000000000E+00 0. -1.
      99926    2    1    2    0    0  0.00000000000E+00  0.71054273576E-14  0.36072465689E+03  0.58263387779E+03  0.45753683728E+03 0.  0.
      99925    2    3    3    0    0 -0.77687930466E+02 -0.55534955046E+02  0.14339153178E+03  0.31430433946E+03  0.26288122916E+03 0.  0.
         25    1    4    4    0    0 -0.41939135120E+02  0.79558650855E+01  0.90470786454E+02  0.16017071563E+03  0.12509000000E+03 0.  0.
         25    1    3    3    0    0  0.77687930466E+02  0.55534955046E+02  0.21733312510E+03  0.26832953833E+03  0.12509000000E+03 0.  0.
         25    1    4    4    0    0 -0.35748795346E+02 -0.63490820131E+02  0.52920745328E+02  0.15413362383E+03  0.12509000000E+03 0.  0.
<mgrwt>
<rscale>  2 0.45753684E+03</rscale>
<asrwt>0</asrwt>
<pdfrwt beam="1">  1       21 0.69364597E-01 0.45753684E+03</pdfrwt>
<pdfrwt beam="2">  1       21 0.16316855E-01 0.45753684E+03</pdfrwt>
<totfact> 0.58576559E+04</totfact>
</mgrwt>
</event>
<event>
 7    0  0.4775379E-002  0.4469963E+03  0.7546771E-02  0.1028622E+00
         21   -1    0    0  502  501  0.00000000000E+00  0.00000000000E+00  0.78219130276E+02  0.78219130276E+02  0.00000000000E+00 0. -1.
         21   -1    0    0  501  502 -0.00000000000E+00 -0.00000000000E+00 -0.63860891668E+03  0.63860891668E+03  0.00000000000E+00 0. -1.
      99926    2    1    2    0    0  0.14210854715E-13  0.00000000000E+00 -0.56038978641E+03  0.71682804696E+03  0.44699634920E+03 0.  0.
      99925    2    3    3    0    0 -0.86935016503E+02 -0.45671334310E+02 -0.29358322911E+03  0.40622087545E+03  0.26302227923E+03 0.  0.
         25    1    4    4    0    0 -0.24003055767E+02 -0.15449859040E+02 -0.87741240049E+02  0.15543769857E+03  0.12509000000E+03 0.  0.
         25    1    4    4    0    0 -0.62931960737E+02 -0.30221475270E+02 -0.20584198906E+03  0.25078317689E+03  0.12509000000E+03 0.  0.
         25    1    3    3    0    0  0.86935016503E+02  0.45671334310E+02 -0.26680655730E+03  0.31060717150E+03  0.12509000000E+03 0.  0.
<mgrwt>
<rscale>  2 0.44699635E+03</rscale>
<asrwt>0</asrwt>
<pdfrwt beam="1">  1       21 0.11502813E-01 0.44699635E+03</pdfrwt>
<pdfrwt beam="2">  1       21 0.93913075E-01 0.44699635E+03</pdfrwt>
<totfact> 0.55405525E+04</totfact>
</mgrwt>
</event>
<event>
 7    0  0.4775379E-002  0.4628196E+03  0.7546771E-02  0.1023967E+00
         21   -1    0    0  502  501  0.00000000000E+00  0.00000000000E+00  0.16363682443E+04  0.16363682443E+04  0.00000000000E+00 0. -1.
         21   -1    0    0  501  502 -0.00000000000E+00 -0.00000000000E+00 -0.32725206177E+02  0.32725206177E+02  0.00000000000E+00 0. -1.
      99926    2    1    2    0    0  0.14210854715E-13  0.71054273576E-14  0.16036430381E+04  0.16690934505E+04  0.46281956820E+03 0.  0.
      99925    2    3    3    0    0  0.10151831565E+03 -0.54892837859E+02  0.87728544867E+03  0.92306258790E+03  0.26286040149E+03 0.  0.
         25    1    4    4    0    0  0.82636690282E+02 -0.24206377070E+01  0.44206945473E+03  0.46680573366E+03  0.12509000000E+03 0.  0.
         25    1    3    3    0    0 -0.10151831565E+03  0.54892837859E+02  0.72635758945E+03  0.74603086257E+03  0.12509000000E+03 0.  0.
         25    1    4    4    0    0  0.18881625370E+02 -0.52472200152E+02  0.43521599394E+03  0.45625685425E+03  0.12509000000E+03 0.  0.
<mgrwt>
<rscale>  2 0.46281957E+03</rscale>
<asrwt>0</asrwt>
<pdfrwt beam="1">  1       21 0.24064233E+00 0.46281957E+03</pdfrwt>
<pdfrwt beam="2">  1       21 0.48125314E-02 0.46281957E+03</pdfrwt>
<totfact> 0.18748229E+04</totfact>
</mgrwt>
</event>
<event>
 7    0  0.4775379E-002  0.4281217E+03  0.7546771E-02  0.1034455E+00
         21   -1    0    0  502  501  0.00000000000E+00  0.00000000000E+00  0.29319978619E+02  0.29319978619E+02  0.00000000000E+00 0.  1.
         21   -1    0    0  501  502 -0.00000000000E+00 -0.00000000000E+00 -0.15628267702E+04  0.15628267702E+04  0.00000000000E+00 0.  1.
      99926    2    1    2    0    0  0.14210854715E-13  0.71054273576E-14 -0.15335067916E+04  0.15921467488E+04  0.42812169993E+03 0.  0.
      99925    2    3    3    0    0 -0.68946656816E+02 -0.49802527720E+02 -0.95580255208E+03  0.99496701901E+03  0.26299604010E+03 0.  0.
         25    1    4    4    0    0 -0.53373416123E+02 -0.31475683820E+02 -0.36958620512E+03  0.39507076751E+03  0.12509000000E+03 0.  0.
         25    1    4    4    0    0 -0.15573240693E+02 -0.18326843900E+02 -0.58621634695E+03  0.59989625150E+03  0.12509000000E+03 0.  0.
         25    1    3    3    0    0  0.68946656816E+02  0.49802527720E+02 -0.57770423952E+03  0.59717972982E+03  0.12509000000E+03 0.  0.
<mgrwt>
<rscale>  2 0.42812170E+03</rscale>
<asrwt>0</asrwt>
<pdfrwt beam="1">  1       21 0.43117620E-02 0.42812170E+03</pdfrwt>
<pdfrwt beam="2">  1       21 0.22982744E+00 0.42812170E+03</pdfrwt>
<totfact> 0.26775537E+04</totfact>
</mgrwt>
</event>
<event>
 7    0  0.4775379E-002  0.4694762E+03  0.7546771E-02  0.1022068E+00
         21   -1    0    0  502  501  0.00000000000E+00  0.00000000000E+00  0.23324406296E+03  0.23324406296E+03  0.00000000000E+00 0. -1.
         21   -1    0    0  501  502 -0.00000000000E+00 -0.00000000000E+00 -0.23624166873E+03  0.23624166873E+03  0.00000000000E+00 0. -1.
      99926    2    1    2    0    0 -0.35527136788E-14  0.00000000000E+00 -0.29976057619E+01  0.46948573169E+03  0.46947616193E+03 0.  0.
      99925    2    3    3    0    0  0.93848350316E+01  0.11377367992E+01 -0.12761964164E+03  0.29265946244E+03  0.26319843930E+03 0.  0.
         25    1    3    3    0    0 -0.93848350316E+01 -0.11377367992E+01  0.12462203587E+03  0.17682626926E+03  0.12509000000E+03 0.  0.
         25    1    4    4    0    0  0.44470968701E+02  0.65643343571E+01 -0.72724059477E+02  0.15151585551E+03  0.12509000000E+03 0.  0.
         25    1    4    4    0    0 -0.35086133669E+02 -0.54265975578E+01 -0.54895582158E+02  0.14114360693E+03  0.12509000000E+03 0.  0.
<mgrwt>
<rscale>  2 0.46947616E+03</rscale>
<asrwt>0</asrwt>
<pdfrwt beam="1">  1       21 0.34300598E-01 0.46947616E+03</pdfrwt>
<pdfrwt beam="2">  1       21 0.34741422E-01 0.46947616E+03</pdfrwt>
<totfact> 0.60233599E+04</totfact>
</mgrwt>
</event>
<event>
 7    0  0.4775379E-002  0.4541582E+03  0.7546771E-02  0.1026489E+00
         21   -1    0    0  502  501  0.00000000000E+00  0.00000000000E+00  0.78175523878E+02  0.78175523878E+02  0.00000000000E+00 0.  1.
         21   -1    0    0  501  502 -0.00000000000E+00 -0.00000000000E+00 -0.65960450880E+03  0.65960450880E+03  0.00000000000E+00 0.  1.
      99926    2    1    2    0    0  0.00000000000E+00 -0.35527136788E-14 -0.58142898493E+03  0.73778003268E+03  0.45415824567E+03 0.  0.
      99925    2    3    3    0    0  0.10387816280E+03 -0.10664158329E+02 -0.43452333759E+03  0.51838729283E+03  0.26269841545E+03 0.  0.
         25    1    4    4    0    0  0.49497911126E+02  0.31072811863E+02 -0.18314303296E+03  0.22935658147E+03  0.12509000000E+03 0.  0.
         25    1    4    4    0    0  0.54380251676E+02 -0.41736970192E+02 -0.25138030463E+03  0.28903071136E+03  0.12509000000E+03 0.  0.
         25    1    3    3    0    0 -0.10387816280E+03  0.10664158329E+02 -0.14690564733E+03  0.21939273985E+03  0.12509000000E+03 0.  0.
<mgrwt>
<rscale>  2 0.45415825E+03</rscale>
<asrwt>0</asrwt>
<pdfrwt beam="1">  1       21 0.11496400E-01 0.45415825E+03</pdfrwt>
<pdfrwt beam="2">  1       21 0.97000668E-01 0.45415825E+03</pdfrwt>
<totfact> 0.51237530E+04</totfact>
</mgrwt>
</event>
<event>
 7    0  0.4775379E-002  0.4535482E+03  0.7546771E-02  0.1026669E+00
         21   -1    0    0  502  501  0.00000000000E+00  0.00000000000E+00  0.24580286508E+03  0.24580286508E+03  0.00000000000E+00 0. -1.
         21   -1    0    0  501  502 -0.00000000000E+00 -0.00000000000E+00 -0.20921839930E+03  0.20921839930E+03  0.00000000000E+00 0. -1.
      99926    2    1    2    0    0  0.00000000000E+00  0.00000000000E+00  0.36584465781E+02  0.45502126438E+03  0.45354815389E+03 0.  0.
      99925    2    3    3    0    0  0.48788487056E+02  0.10152054726E+02 -0.77372073298E+02  0.27862120320E+03  0.26298280640E+03 0.  0.
         25    1    4    4    0    0 -0.41797612673E+01  0.32527903563E+02 -0.47343896232E+02  0.13771160999E+03  0.12509000000E+03 0.  0.
         25    1    4    4    0    0  0.52968248323E+02 -0.22375848837E+02 -0.30028177066E+02  0.14090959321E+03  0.12509000000E+03 0.  0.
         25    1    3    3    0    0 -0.48788487056E+02 -0.10152054726E+02  0.11395653908E+03  0.17640006118E+03  0.12509000000E+03 0.  0.
<mgrwt>
<rscale>  2 0.45354815E+03</rscale>
<asrwt>0</asrwt>
<pdfrwt beam="1">  1       21 0.36147480E-01 0.45354815E+03</pdfrwt>
<pdfrwt beam="2">  1       21 0.30767412E-01 0.45354815E+03</pdfrwt>
<totfact> 0.69344062E+04</totfact>
</mgrwt>
</event>
<event>
 7    0  0.4775379E-002  0.4257852E+03  0.7546771E-02  0.1035200E+00
         21   -1    0    0  502  501  0.00000000000E+00  0.00000000000E+00  0.68491948332E+02  0.68491948332E+02  0.00000000000E+00 0. -1.
         21   -1    0    0  501  502 -0.00000000000E+00 -0.00000000000E+00 -0.66173117008E+03  0.66173117008E+03  0.00000000000E+00 0. -1.
      99926    2    1    2    0    0  0.88817841970E-15  0.00000000000E+00 -0.59323922175E+03  0.73022311842E+03  0.42578519049E+03 0.  0.
      99925    2    3    3    0    0 -0.46540899824E+01  0.73988748447E+02 -0.32435452661E+03  0.42453948648E+03  0.26368906159E+03 0.  0.
         25    1    4    4    0    0 -0.26366125461E+02  0.48497283678E+02 -0.11641397179E+03  0.17957416302E+03  0.12509000000E+03 0.  0.
         25    1    3    3    0    0  0.46540899824E+01 -0.73988748447E+02 -0.26888469515E+03  0.30568363194E+03  0.12509000000E+03 0.  0.
         25    1    4    4    0    0  0.21712035479E+02  0.25491464769E+02 -0.20794055482E+03  0.24496532346E+03  0.12509000000E+03 0.  0.
<mgrwt>
<rscale>  2 0.42578519E+03</rscale>
<asrwt>0</asrwt>
<pdfrwt beam="1">  1       21 0.10072345E-01 0.42578519E+03</pdfrwt>
<pdfrwt beam="2">  1       21 0.97313409E-01 0.42578519E+03</pdfrwt>
<totfact> 0.64983320E+04</totfact>
</mgrwt>
</event>
<event>
 7    0  0.4775379E-002  0.4264123E+03  0.7546771E-02  0.1034999E+00
         21   -1    0    0  502  501  0.00000000000E+00  0.00000000000E+00  0.10397028756E+03  0.10397028756E+03  0.00000000000E+00 0.  1.
         21   -1    0    0  501  502 -0.00000000000E+00 -0.00000000000E+00 -0.43721020870E+03  0.43721020870E+03  0.00000000000E+00 0.  1.
      99926    2    1    2    0    0  0.00000000000E+00  0.00000000000E+00 -0.33323992114E+03  0.54118049626E+03  0.42641234092E+03 0.  0.
      99925    2    3    3    0    0  0.52554429580E+02  0.32885399838E+02 -0.14382063378E+03  0.30587092970E+03  0.26273414956E+03 0.  0.
         25    1    4    4    0    0  0.46402860476E+02  0.36807161051E+02 -0.42656564125E+02  0.14482777057E+03  0.12509000000E+03 0.  0.
         25    1    3    3    0    0 -0.52554429580E+02 -0.32885399838E+02 -0.18941928736E+03  0.23530956656E+03  0.12509000000E+03 0.  0.
         25    1    4    4    0    0  0.61515691045E+01 -0.39217612130E+01 -0.10116406965E+03  0.16104315913E+03  0.12509000000E+03 0.  0.
<mgrwt>
<rscale>  2 0.42641234E+03</rscale>
<asrwt>0</asrwt>
<pdfrwt beam="1">  1       21 0.15289748E-01 0.42641234E+03</pdfrwt>
<pdfrwt beam="2">  1       21 0.64295619E-01 0.42641234E+03</pdfrwt>
<totfact> 0.78829719E+04</totfact>
</mgrwt>
</event>
<event>
 7    0  0.4775379E-002  0.4535342E+03  0.7546771E-02  0.1026673E+00
         21   -1    0    0  502  501  0.00000000000E+00  0.00000000000E+00  0.15786801271E+03  0.15786801271E+03  0.00000000000E+00 0. -1.
         21   -1    0    0  501  502 -0.00000000000E+00 -0.00000000000E+00 -0.32573613508E+03  0.32573613508E+03  0.00000000000E+00 0. -1.
      99926    2    1    2    0    0  0.00000000000E+00  0.00000000000E+00 -0.16786812237E+03  0.48360414780E+03  0.45353419415E+03 0.  0.
      99925    2    3    3    0    0 -0.96729044729E+02 -0.55899179765E+02 -0.10209702791E+03  0.30345262447E+03  0.26301799519E+03 0.  0.
         25    1    4    4    0    0 -0.80907796779E+02 -0.52371148986E+02 -0.40204105631E+02  0.16294995255E+03  0.12509000000E+03 0.  0.
         25    1    4    4    0    0 -0.15821247949E+02 -0.35280307789E+01 -0.61892922280E+02  0.14050267192E+03  0.12509000000E+03 0.  0.
         25    1    3    3    0    0  0.96729044729E+02  0.55899179765E+02 -0.65771094458E+02  0.18015152333E+03  0.12509000000E+03 0.  0.
<mgrwt>
<rscale>  2 0.45353419E+03</rscale>
<asrwt>0</asrwt>
<pdfrwt beam="1">  1       21 0.23215884E-01 0.45353419E+03</pdfrwt>
<pdfrwt beam="2">  1       21 0.47902373E-01 0.45353419E+03</pdfrwt>
<totfact> 0.67217413E+04</totfact>
</mgrwt>
</event>
<event>
 7    0  0.4775379E-002  0.4587021E+03  0.7546771E-02  0.1025158E+00
         21   -1    0    0  502  501  0.00000000000E+00  0.00000000000E+00  0.28431970395E+03  0.28431970395E+03  0.00000000000E+00 0.  1.
         21   -1    0    0  501  502 -0.00000000000E+00 -0.00000000000E+00 -0.18500971568E+03  0.18500971568E+03  0.00000000000E+00 0.  1.
      99926    2    1    2    0    0  0.00000000000E+00  0.00000000000E+00  0.99309988279E+02  0.46932941963E+03  0.45870211506E+03 0.  0.
      99925    2    3    3    0    0 -0.16722164155E+02  0.10368881977E+03  0.10610662795E+02  0.28346366011E+03  0.26307424488E+03 0.  0.
         25    1    3    3    0    0  0.16722164155E+02 -0.10368881977E+03  0.88699325483E+02  0.18586575952E+03  0.12509000000E+03 0.  0.
         25    1    4    4    0    0  0.31785569758E+02  0.52800119827E+02 -0.15515612596E+01  0.13945641090E+03  0.12509000000E+03 0.  0.
         25    1    4    4    0    0 -0.48507733913E+02  0.50888699947E+02  0.12162224055E+02  0.14400724921E+03  0.12509000000E+03 0.  0.
<mgrwt>
<rscale>  2 0.45870212E+03</rscale>
<asrwt>0</asrwt>
<pdfrwt beam="1">  1       21 0.41811721E-01 0.45870212E+03</pdfrwt>
<pdfrwt beam="2">  1       21 0.27207311E-01 0.45870212E+03</pdfrwt>
<totfact> 0.65540112E+04</totfact>
</mgrwt>
</event>
<event>
 7    0  0.4775379E-002  0.4562643E+03  0.7546771E-02  0.1025870E+00
         21   -1    0    0  502  501  0.00000000000E+00  0.00000000000E+00  0.84803834705E+03  0.84803834705E+03  0.00000000000E+00 0. -1.
         21   -1    0    0  501  502 -0.00000000000E+00 -0.00000000000E+00 -0.61370184539E+02  0.61370184539E+02  0.00000000000E+00 0. -1.
      99926    2    1    2    0    0  0.00000000000E+00  0.71054273576E-14  0.78666816251E+03  0.90940853159E+03  0.45626426489E+03 0.  0.
      99925    2    3    3    0    0  0.88122931567E+02  0.47715460659E+02  0.60445028908E+03  0.66672915926E+03  0.26291672368E+03 0.  0.
         25    1    4    4    0    0  0.59364859725E+02  0.58121069681E+02  0.36857239504E+03  0.39798915035E+03  0.12509000000E+03 0.  0.
         25    1    3    3    0    0 -0.88122931567E+02 -0.47715460659E+02  0.18221787343E+03  0.24267937233E+03  0.12509000000E+03 0.  0.
         25    1    4    4    0    0  0.28758071842E+02 -0.10405609023E+02  0.23587789404E+03  0.26874000891E+03  0.12509000000E+03 0.  0.
<mgrwt>
<rscale>  2 0.45626426E+03</rscale>
<asrwt>0</asrwt>
<pdfrwt beam="1">  1       21 0.12471151E+00 0.45626426E+03</pdfrwt>
<pdfrwt beam="2">  1       21 0.90250276E-02 0.45626426E+03</pdfrwt>
<totfact> 0.42408160E+04</totfact>
</mgrwt>
</event>
<event>
 7    0  0.4775379E-002  0.4445408E+03  0.7546771E-02  0.1029363E+00
         21   -1    0    0  502  501  0.00000000000E+00  0.00000000000E+00  0.22460684218E+03  0.22460684218E+03  0.00000000000E+00 0.  1.
         21   -1    0    0  501  502 -0.00000000000E+00 -0.00000000000E+00 -0.21995830143E+03  0.21995830143E+03  0.00000000000E+00 0.  1.
      99926    2    1    2    0    0  0.14210854715E-13  0.44408920985E-15  0.46485407469E+01  0.44456514361E+03  0.44454083950E+03 0.  0.
      99925    2    3    3    0    0 -0.82416100883E+02  0.44674106484E+00  0.64916453963E+02  0.28309581920E+03  0.26293817446E+03 0.  0.
         25    1    3    3    0    0  0.82416100883E+02 -0.44674106484E+00 -0.60267913216E+02  0.16146932441E+03  0.12509000000E+03 0.  0.
         25    1    4    4    0    0 -0.86303231196E+00  0.11490096998E+02  0.24269050326E+02  0.12794241696E+03  0.12509000000E+03 0.  0.
         25    1    4    4    0    0 -0.81553068571E+02 -0.11043355933E+02  0.40647403637E+02  0.15515340224E+03  0.12509000000E+03 0.  0.
<mgrwt>
<rscale>  2 0.44454084E+03</rscale>
<asrwt>0</asrwt>
<pdfrwt beam="1">  1       21 0.33030418E-01 0.44454084E+03</pdfrwt>
<pdfrwt beam="2">  1       21 0.32346809E-01 0.44454084E+03</pdfrwt>
<totfact> 0.75417115E+04</totfact>
</mgrwt>
</event>
<event>
 7    0  0.4775379E-002  0.4526700E+03  0.7546771E-02  0.1026929E+00
         21   -1    0    0  502  501  0.00000000000E+00  0.00000000000E+00  0.53590408780E+02  0.53590408780E+02  0.00000000000E+00 0.  1.
         21   -1    0    0  501  502 -0.00000000000E+00 -0.00000000000E+00 -0.95590840643E+03  0.95590840643E+03  0.00000000000E+00 0.  1.
      99926    2    1    2    0    0 -0.88817841970E-15  0.00000000000E+00 -0.90231799765E+03  0.10094988152E+04  0.45266995596E+03 0.  0.
      99925    2    3    3    0    0 -0.63384120820E+01 -0.99006042258E+02 -0.67997010819E+03  0.73576817403E+03  0.26296974354E+03 0.  0.
         25    1    3    3    0    0  0.63384120820E+01  0.99006042258E+02 -0.22234788946E+03  0.27373064118E+03  0.12509000000E+03 0.  0.
         25    1    4    4    0    0  0.70309638594E+01 -0.31062791457E+02 -0.41596757971E+03  0.43553515005E+03  0.12509000000E+03 0.  0.
         25    1    4    4    0    0 -0.13369375941E+02 -0.67943250800E+02 -0.26400252848E+03  0.30023302398E+03  0.12509000000E+03 0.  0.
<mgrwt>
<rscale>  2 0.45266996E+03</rscale>
<asrwt>0</asrwt>
<pdfrwt beam="1">  1       21 0.78809425E-02 0.45266996E+03</pdfrwt>
<pdfrwt beam="2">  1       21 0.14057476E+00 0.45266996E+03</pdfrwt>
<totfact> 0.39513401E+04</totfact>
</mgrwt>
</event>
<event>
 7    0  0.4775379E-002  0.4583094E+03  0.7546771E-02  0.1025273E+00
         21   -1    0    0  502  501  0.00000000000E+00  0.00000000000E+00  0.12035318239E+03  0.12035318239E+03  0.00000000000E+00 0.  1.
         21   -1    0    0  501  502 -0.00000000000E+00 -0.00000000000E+00 -0.43631487650E+03  0.43631487650E+03  0.00000000000E+00 0.  1.
      99926    2    1    2    0    0  0.00000000000E+00 -0.71054273576E-14 -0.31596169412E+03  0.55666805889E+03  0.45830943219E+03 0.  0.
      99925    2    3    3    0    0  0.17452399694E+02 -0.51033508694E+02 -0.32311354132E+03  0.42025815352E+03  0.26325947229E+03 0.  0.
         25    1    4    4    0    0  0.24335270117E+02 -0.63589049220E+02 -0.18292926326E+03  0.23183268969E+03  0.12509000000E+03 0.  0.
         25    1    4    4    0    0 -0.68828704226E+01  0.12555540526E+02 -0.14018427806E+03  0.18842546383E+03  0.12509000000E+03 0.  0.
         25    1    3    3    0    0 -0.17452399694E+02  0.51033508694E+02  0.71518472062E+01  0.13640990537E+03  0.12509000000E+03 0.  0.
<mgrwt>
<rscale>  2 0.45830943E+03</rscale>
<asrwt>0</asrwt>
<pdfrwt beam="1">  1       21 0.17698997E-01 0.45830943E+03</pdfrwt>
<pdfrwt beam="2">  1       21 0.64163952E-01 0.45830943E+03</pdfrwt>
<totfact> 0.59845821E+04</totfact>
</mgrwt>
</event>
<event>
 7    0  0.4775379E-002  0.4554194E+03  0.7546771E-02  0.1026118E+00
         21   -1    0    0  502  501  0.00000000000E+00  0.00000000000E+00  0.48082271901E+03  0.48082271901E+03  0.00000000000E+00 0. -1.
         21   -1    0    0  501  502 -0.00000000000E+00 -0.00000000000E+00 -0.10783953187E+03  0.10783953187E+03  0.00000000000E+00 0. -1.
      99926    2    1    2    0    0  0.00000000000E+00 -0.71054273576E-14  0.37298318715E+03  0.58866225088E+03  0.45541935369E+03 0.  0.
      99925    2    3    3    0    0 -0.93634277423E+02 -0.51255620131E+02  0.18435960065E+03  0.33842060369E+03  0.26295536911E+03 0.  0.
         25    1    3    3    0    0  0.93634277423E+02  0.51255620131E+02  0.18862358650E+03  0.25024164719E+03  0.12509000000E+03 0.  0.
         25    1    4    4    0    0 -0.25838396589E+02 -0.48526845558E+02  0.12151545877E+03  0.18285511286E+03  0.12509000000E+03 0.  0.
         25    1    4    4    0    0 -0.67795880834E+02 -0.27287745732E+01  0.62844141872E+02  0.15556549083E+03  0.12509000000E+03 0.  0.
<mgrwt>
<rscale>  2 0.45541935E+03</rscale>
<asrwt>0</asrwt>
<pdfrwt beam="1">  1       21 0.70709223E-01 0.45541935E+03</pdfrwt>
<pdfrwt beam="2">  1       21 0.15858755E-01 0.45541935E+03</pdfrwt>
<totfact> 0.59185204E+04</totfact>
</mgrwt>
</event>
<event>
 7    0  0.4775379E-002  0.3954550E+03  0.7546771E-02  0.1045365E+00
         21   -1    0    0  502  501  0.00000000000E+00  0.00000000000E+00  0.13397815807E+04  0.13397815807E+04  0.00000000000E+00 0.  1.
         21   -1    0    0  501  502 -0.00000000000E+00 -0.00000000000E+00 -0.29180999424E+02  0.29180999424E+02  0.00000000000E+00 0.  1.
      99926    2    1    2    0    0 -0.22204460493E-15  0.00000000000E+00  0.13106005813E+04  0.13689625801E+04  0.39545500646E+03 0.  0.
      99925    2    3    3    0    0 -0.11270358183E+01  0.26853867272E+02  0.80190169740E+03  0.84442043410E+03  0.26320550305E+03 0.  0.
         25    1    3    3    0    0  0.11270358183E+01 -0.26853867272E+02  0.50869888386E+03  0.52454214600E+03  0.12509000000E+03 0.  0.
         25    1    4    4    0    0  0.11509720724E+02  0.30620500415E+02  0.51816707824E+03  0.53405497637E+03  0.12509000000E+03 0.  0.
         25    1    4    4    0    0 -0.12636756542E+02 -0.37666331436E+01  0.28373461916E+03  0.31036545773E+03  0.12509000000E+03 0.  0.
<mgrwt>
<rscale>  2 0.39545501E+03</rscale>
<asrwt>0</asrwt>
<pdfrwt beam="1">  1       21 0.19702666E+00 0.39545501E+03</pdfrwt>
<pdfrwt beam="2">  1       21 0.42913243E-02 0.39545501E+03</pdfrwt>
<totfact> 0.44463950E+04</totfact>
</mgrwt>
</event>
<event>
 7    0  0.4775379E-002  0.4519193E+03  0.7546771E-02  0.1027151E+00
         21   -1    0    0  502  501  0.00000000000E+00  0.00000000000E+00  0.66723765529E+03  0.66723765529E+03  0.00000000000E+00 0.  1.
         21   -1    0    0  501  502 -0.00000000000E+00 -0.00000000000E+00 -0.76521100314E+02  0.76521100314E+02  0.00000000000E+00 0.  1.
      99926    2    1    2    0    0 -0.14210854715E-13 -0.35527136788E-14  0.59071655497E+03  0.74375875560E+03  0.45191928285E+03 0.  0.
      99925    2    3    3    0    0  0.87047167686E+02  0.25808329558E+02  0.26964149785E+03  0.38741625227E+03  0.26294778166E+03 0.  0.
         25    1    4    4    0    0  0.20063376424E+02  0.18841775567E+02  0.17439408923E+03  0.21637550240E+03  0.12509000000E+03 0.  0.
         25    1    3    3    0    0 -0.87047167686E+02 -0.25808329558E+02  0.32107505712E+03  0.35634250334E+03  0.12509000000E+03 0.  0.
         25    1    4    4    0    0  0.66983791262E+02  0.69665539915E+01  0.95247408624E+02  0.17104074987E+03  0.12509000000E+03 0.  0.
<mgrwt>
<rscale>  2 0.45191928E+03</rscale>
<asrwt>0</asrwt>
<pdfrwt beam="1">  1       21 0.98123182E-01 0.45191928E+03</pdfrwt>
<pdfrwt beam="2">  1       21 0.11253103E-01 0.45191928E+03</pdfrwt>
<totfact> 0.51834590E+04</totfact>
</mgrwt>
</event>
<event>
 7    0  0.4775379E-002  0.4269281E+03  0.7546771E-02  0.1034835E+00
         21   -1    0    0  502  501  0.00000000000E+00  0.00000000000E+00  0.30542776383E+03  0.30542776383E+03  0.00000000000E+00 0.  1.
         21   -1    0    0  501  502 -0.00000000000E+00 -0.00000000000E+00 -0.14919044909E+03  0.14919044909E+03  0.00000000000E+00 0.  1.
      99926    2    1    2    0    0  0.00000000000E+00  0.35527136788E-14  0.15623731474E+03  0.45461821292E+03  0.42692812159E+03 0.  0.
      99925    2    3    3    0    0  0.77409564119E+02  0.29766264220E+02  0.86249015539E+02  0.28901585416E+03  0.26308363721E+03 0.  0.
         25    1    4    4    0    0  0.51788272180E+02 -0.13177887159E+02  0.70997957781E+02  0.15344021622E+03  0.12509000000E+03 0.  0.
         25    1    3    3    0    0 -0.77409564119E+02 -0.29766264220E+02  0.69988299204E+02  0.16560235876E+03  0.12509000000E+03 0.  0.
         25    1    4    4    0    0  0.25621291939E+02  0.42944151379E+02  0.15251057758E+02  0.13557563793E+03  0.12509000000E+03 0.  0.
<mgrwt>
<rscale>  2 0.42692812E+03</rscale>
<asrwt>0</asrwt>
<pdfrwt beam="1">  1       21 0.44915848E-01 0.42692812E+03</pdfrwt>
<pdfrwt beam="2">  1       21 0.21939772E-01 0.42692812E+03</pdfrwt>
<totfact> 0.86270615E+04</totfact>
</mgrwt>
</event>
<event>
 7    0  0.4775379E-002  0.4243667E+03  0.7546771E-02  0.1035654E+00
         21   -1    0    0  502  501  0.00000000000E+00  0.00000000000E+00  0.21734523375E+03  0.21734523375E+03  0.00000000000E+00 0.  1.
         21   -1    0    0  501  502 -0.00000000000E+00 -0.00000000000E+00 -0.20714408492E+03  0.20714408492E+03  0.00000000000E+00 0.  1.
      99926    2    1    2    0    0  0.44408920985E-15  0.00000000000E+00  0.10201148832E+02  0.42448931867E+03  0.42436672610E+03 0.  0.
      99925    2    3    3    0    0  0.24158524183E+01  0.46797855679E+02  0.72924528752E+02  0.27691694277E+03  0.26300024840E+03 0.  0.
         25    1    4    4    0    0  0.12069938563E+02  0.53951096609E+02  0.12075557443E+02  0.13729432410E+03  0.12509000000E+03 0.  0.
         25    1    3    3    0    0 -0.24158524183E+01 -0.46797855679E+02 -0.62723379920E+02  0.14757237590E+03  0.12509000000E+03 0.  0.
         25    1    4    4    0    0 -0.96540861449E+01 -0.71532409298E+01  0.60848971309E+02  0.13962261867E+03  0.12509000000E+03 0.  0.
<mgrwt>
<rscale>  2 0.42436673E+03</rscale>
<asrwt>0</asrwt>
<pdfrwt beam="1">  1       21 0.31962535E-01 0.42436673E+03</pdfrwt>
<pdfrwt beam="2">  1       21 0.30462365E-01 0.42436673E+03</pdfrwt>
<totfact> 0.91169107E+04</totfact>
</mgrwt>
</event>
<event>
 7    0  0.4775379E-002  0.4597816E+03  0.7546771E-02  0.1024845E+00
         21   -1    0    0  502  501  0.00000000000E+00  0.00000000000E+00  0.44520378183E+03  0.44520378183E+03  0.00000000000E+00 0.  1.
         21   -1    0    0  501  502 -0.00000000000E+00 -0.00000000000E+00 -0.11870919546E+03  0.11870919546E+03  0.00000000000E+00 0.  1.
      99926    2    1    2    0    0  0.00000000000E+00 -0.71054273576E-14  0.32649458637E+03  0.56391297729E+03  0.45978161232E+03 0.  0.
      99925    2    3    3    0    0  0.50500783582E+02  0.39703905860E+02  0.83970441813E+02  0.28356997653E+03  0.26312386287E+03 0.  0.
         25    1    4    4    0    0  0.40911690702E+02  0.55315746003E+02  0.60171216224E+02  0.15492476094E+03  0.12509000000E+03 0.  0.
         25    1    3    3    0    0 -0.50500783582E+02 -0.39703905860E+02  0.24252414456E+03  0.28034300076E+03  0.12509000000E+03 0.  0.
         25    1    4    4    0    0  0.95890928800E+01 -0.15611840143E+02  0.23799225589E+02  0.12864521559E+03  0.12509000000E+03 0.  0.
<mgrwt>
<rscale>  2 0.45978161E+03</rscale>
<asrwt>0</asrwt>
<pdfrwt beam="1">  1       21 0.65471144E-01 0.45978161E+03</pdfrwt>
<pdfrwt beam="2">  1       21 0.17457235E-01 0.45978161E+03</pdfrwt>
<totfact> 0.58704559E+04</totfact>
</mgrwt>
</event>
<event>
 7    0  0.4775379E-002  0.4513117E+03  0.7546771E-02  0.1027332E+00
         21   -1    0    0  502  501  0.00000000000E+00  0.00000000000E+00  0.58150863798E+03  0.58150863798E+03  0.00000000000E+00 0.  1.
         21   -1    0    0  501  502 -0.00000000000E+00 -0.00000000000E+00 -0.87566302583E+02  0.87566302583E+02  0.00000000000E+00 0.  1.
      99926    2    1    2    0    0  0.00000000000E+00  0.14210854715E-13  0.49394233540E+03  0.66907494057E+03  0.45131169428E+03 0.  0.
      99925    2    3    3    0    0 -0.71147079202E+02 -0.70952008161E+02  0.37706745600E+03  0.47057219530E+03  0.26298712949E+03 0.  0.
         25    1    3    3    0    0  0.71147079202E+02  0.70952008161E+02  0.11687487940E+03  0.19850274526E+03  0.12509000000E+03 0.  0.
         25    1    4    4    0    0  0.61049976549E+01 -0.28738820231E+02  0.16682652390E+03  0.21057489870E+03  0.12509000000E+03 0.  0.
         25    1    4    4    0    0 -0.77252076857E+02 -0.42213187930E+02  0.21024093210E+03  0.25999729661E+03  0.12509000000E+03 0.  0.
<mgrwt>
<rscale>  2 0.45131169E+03</rscale>
<asrwt>0</asrwt>
<pdfrwt beam="1">  1       21 0.85515975E-01 0.45131169E+03</pdfrwt>
<pdfrwt beam="2">  1       21 0.12877398E-01 0.45131169E+03</pdfrwt>
<totfact> 0.56231355E+04</totfact>
</mgrwt>
</event>
<event>
 7    0  0.4775379E-002  0.4449984E+03  0.7546771E-02  0.1029224E+00
         21   -1    0    0  502  501  0.00000000000E+00  0.00000000000E+00  0.23385823091E+03  0.23385823091E+03  0.00000000000E+00 0. -1.
         21   -1    0    0  501  502 -0.00000000000E+00 -0.00000000000E+00 -0.21169189969E+03  0.21169189969E+03  0.00000000000E+00 0. -1.
      99926    2    1    2    0    0 -0.14210854715E-13  0.71054273576E-14  0.22166331226E+02  0.44555013060E+03  0.44499839622E+03 0.  0.
      99925    2    3    3    0    0 -0.74956164934E+02  0.56102495358E+02 -0.30101644684E+02  0.28079162231E+03  0.26300553131E+03 0.  0.
         25    1    4    4    0    0 -0.82585590876E+01  0.58941505398E+01  0.76584867246E+01  0.12573426473E+03  0.12509000000E+03 0.  0.
         25    1    4    4    0    0 -0.66697605846E+02  0.50208344818E+02 -0.37760131409E+02  0.15505735758E+03  0.12509000000E+03 0.  0.
         25    1    3    3    0    0  0.74956164934E+02 -0.56102495358E+02  0.52267975910E+02  0.16475850829E+03  0.12509000000E+03 0.  0.
<mgrwt>
<rscale>  2 0.44499840E+03</rscale>
<asrwt>0</asrwt>
<pdfrwt beam="1">  1       21 0.34390916E-01 0.44499840E+03</pdfrwt>
<pdfrwt beam="2">  1       21 0.31131162E-01 0.44499840E+03</pdfrwt>
<totfact> 0.75056913E+04</totfact>
</mgrwt>
</event>
<event>
 7    0  0.4775379E-002  0.4389408E+03  0.7546771E-02  0.1031072E+00
         21   -1    0    0  502  501  0.00000000000E+00  0.00000000000E+00  0.87696681719E+03  0.87696681719E+03  0.00000000000E+00 0.  1.
         21   -1    0    0  501  502 -0.00000000000E+00 -0.00000000000E+00 -0.54924821537E+02  0.54924821537E+02  0.00000000000E+00 0.  1.
      99926    2    1    2    0    0  0.00000000000E+00 -0.14210854715E-13  0.82204199565E+03  0.93189163873E+03  0.43894075194E+03 0.  0.
      99925    2    3    3    0    0 -0.24025653246E+02  0.83707945312E+02  0.43191268418E+03  0.51304484109E+03  0.26283491033E+03 0.  0.
         25    1    4    4    0    0 -0.26681609762E+02  0.78444813892E+02  0.26275062040E+03  0.30257378232E+03  0.12509000000E+03 0.  0.
         25    1    3    3    0    0  0.24025653246E+02 -0.83707945312E+02  0.39012931147E+03  0.41884679764E+03  0.12509000000E+03 0.  0.
         25    1    4    4    0    0  0.26559565151E+01  0.52631314198E+01  0.16916206379E+03  0.21047105877E+03  0.12509000000E+03 0.  0.
<mgrwt>
<rscale>  2 0.43894075E+03</rscale>
<asrwt>0</asrwt>
<pdfrwt beam="1">  1       21 0.12896570E+00 0.43894075E+03</pdfrwt>
<pdfrwt beam="2">  1       21 0.80771802E-02 0.43894075E+03</pdfrwt>
<totfact> 0.47584359E+04</totfact>
</mgrwt>
</event>
<event>
 7    0  0.4775379E-002  0.4563594E+03  0.7546771E-02  0.1025842E+00
         21   -1    0    0  502  501  0.00000000000E+00  0.00000000000E+00  0.11425898385E+03  0.11425898385E+03  0.00000000000E+00 0. -1.
         21   -1    0    0  501  502 -0.00000000000E+00 -0.00000000000E+00 -0.45568378761E+03  0.45568378761E+03  0.00000000000E+00 0. -1.
      99926    2    1    2    0    0  0.00000000000E+00  0.00000000000E+00 -0.34142480375E+03  0.56994277146E+03  0.45635936072E+03 0.  0.
      99925    2    3    3    0    0  0.83348075164E+02 -0.18014149328E+02 -0.30978859912E+03  0.41528259962E+03  0.26309551535E+03 0.  0.
         25    1    4    4    0    0  0.14135386063E+02 -0.21575787286E+02 -0.18890348960E+03  0.22802929684E+03  0.12509000000E+03 0.  0.
         25    1    4    4    0    0  0.69212689101E+02  0.35616379581E+01 -0.12088510952E+03  0.18725330278E+03  0.12509000000E+03 0.  0.
         25    1    3    3    0    0 -0.83348075164E+02  0.18014149328E+02 -0.31636204638E+02  0.15466017184E+03  0.12509000000E+03 0.  0.
<mgrwt>
<rscale>  2 0.45635936E+03</rscale>
<asrwt>0</asrwt>
<pdfrwt beam="1">  1       21 0.16802792E-01 0.45635936E+03</pdfrwt>
<pdfrwt beam="2">  1       21 0.67012322E-01 0.45635936E+03</pdfrwt>
<totfact> 0.59920865E+04</totfact>
</mgrwt>
</event>
<event>
 7    0  0.4775379E-002  0.4528179E+03  0.7546771E-02  0.1026885E+00
         21   -1    0    0  502  501  0.00000000000E+00  0.00000000000E+00  0.13234644658E+03  0.13234644658E+03  0.00000000000E+00 0.  1.
         21   -1    0    0  501  502 -0.00000000000E+00 -0.00000000000E+00 -0.38732439736E+03  0.38732439736E+03  0.00000000000E+00 0.  1.
      99926    2    1    2    0    0  0.14210854715E-13  0.00000000000E+00 -0.25497795079E+03  0.51967084394E+03  0.45281787802E+03 0.  0.
      99925    2    3    3    0    0  0.95218479338E+02 -0.46919331760E+02 -0.19816135180E+03  0.34605167299E+03  0.26308906578E+03 0.  0.
         25    1    4    4    0    0  0.14115888512E+02 -0.22539852235E+02 -0.12254516496E+03  0.17712179087E+03  0.12509000000E+03 0.  0.
         25    1    4    4    0    0  0.81102590826E+02 -0.24379479525E+02 -0.75616186840E+02  0.16892988212E+03  0.12509000000E+03 0.  0.
         25    1    3    3    0    0 -0.95218479338E+02  0.46919331760E+02 -0.56816598992E+02  0.17361917095E+03  0.12509000000E+03 0.  0.
<mgrwt>
<rscale>  2 0.45281788E+03</rscale>
<asrwt>0</asrwt>
<pdfrwt beam="1">  1       21 0.19462713E-01 0.45281788E+03</pdfrwt>
<pdfrwt beam="2">  1       21 0.56959470E-01 0.45281788E+03</pdfrwt>
<totfact> 0.65028182E+04</totfact>
</mgrwt>
</event>
<event>
 7    0  0.4775379E-002  0.4603898E+03  0.7546771E-02  0.1024668E+00
         21   -1    0    0  502  501  0.00000000000E+00  0.00000000000E+00  0.39157061946E+03  0.39157061946E+03  0.00000000000E+00 0.  1.
         21   -1    0    0  501  502 -0.00000000000E+00 -0.00000000000E+00 -0.13532604352E+03  0.13532604352E+03  0.00000000000E+00 0.  1.
      99926    2    1    2    0    0  0.14210854715E-13  0.14210854715E-13  0.25624457594E+03  0.52689666299E+03  0.46038984651E+03 0.  0.
      99925    2    3    3    0    0  0.74319202110E+02  0.92862980751E+02  0.16457725436E+03  0.33145541109E+03  0.26197354808E+03 0.  0.
         25    1    4    4    0    0  0.20893354861E+02  0.12213876444E+02  0.93754094561E+02  0.15818675482E+03  0.12509000000E+03 0.  0.
         25    1    4    4    0    0  0.53425847250E+02  0.80649104308E+02  0.70823159802E+02  0.17326865627E+03  0.12509000000E+03 0.  0.
         25    1    3    3    0    0 -0.74319202110E+02 -0.92862980751E+02  0.91667321580E+02  0.19544125189E+03  0.12509000000E+03 0.  0.
<mgrwt>
<rscale>  2 0.46038985E+03</rscale>
<asrwt>0</asrwt>
<pdfrwt beam="1">  1       21 0.57583915E-01 0.46038985E+03</pdfrwt>
<pdfrwt beam="2">  1       21 0.19900889E-01 0.46038985E+03</pdfrwt>
<totfact> 0.60778304E+04</totfact>
</mgrwt>
</event>
<event>
 7    0  0.4775379E-002  0.4627653E+03  0.7546771E-02  0.1023982E+00
         21   -1    0    0  502  501  0.00000000000E+00  0.00000000000E+00  0.70978491095E+02  0.70978491095E+02  0.00000000000E+00 0.  1.
         21   -1    0    0  501  502 -0.00000000000E+00 -0.00000000000E+00 -0.75428386243E+03  0.75428386243E+03  0.00000000000E+00 0.  1.
      99926    2    1    2    0    0  0.00000000000E+00  0.00000000000E+00 -0.68330537133E+03  0.82526235352E+03  0.46276529867E+03 0.  0.
      99925    2    3    3    0    0  0.89577781650E+02 -0.68450236133E+02 -0.50203389305E+03  0.57784272874E+03  0.26297257573E+03 0.  0.
         25    1    4    4    0    0  0.25996401762E+02 -0.37752436020E+02 -0.16933076988E+03  0.21545643889E+03  0.12509000000E+03 0.  0.
         25    1    4    4    0    0  0.63581379888E+02 -0.30697800112E+02 -0.33270312318E+03  0.36238628985E+03  0.12509000000E+03 0.  0.
         25    1    3    3    0    0 -0.89577781650E+02  0.68450236133E+02 -0.18127147828E+03  0.24741962479E+03  0.12509000000E+03 0.  0.
<mgrwt>
<rscale>  2 0.46276530E+03</rscale>
<asrwt>0</asrwt>
<pdfrwt beam="1">  1       21 0.10438013E-01 0.46276530E+03</pdfrwt>
<pdfrwt beam="2">  1       21 0.11092410E+00 0.46276530E+03</pdfrwt>
<totfact> 0.43834571E+04</totfact>
</mgrwt>
</event>
<event>
 7    0  0.4775379E-002  0.4483623E+03  0.7546771E-02  0.1028212E+00
         21   -1    0    0  502  501  0.00000000000E+00  0.00000000000E+00  0.76791505671E+03  0.76791505671E+03  0.00000000000E+00 0. -1.
         21   -1    0    0  501  502 -0.00000000000E+00 -0.00000000000E+00 -0.65446294539E+02  0.65446294539E+02  0.00000000000E+00 0. -1.
      99926    2    1    2    0    0  0.00000000000E+00  0.00000000000E+00  0.70246876217E+03  0.83336135125E+03  0.44836233108E+03 0.  0.
      99925    2    3    3    0    0 -0.81603204358E+02 -0.26659876057E+02  0.56295508068E+03  0.62725116864E+03  0.26297485382E+03 0.  0.
         25    1    4    4    0    0 -0.37836702941E+02  0.23815243511E+02  0.23496735715E+03  0.26991841164E+03  0.12509000000E+03 0.  0.
         25    1    4    4    0    0 -0.43766501417E+02 -0.50475119569E+02  0.32798772353E+03  0.35733275700E+03  0.12509000000E+03 0.  0.
         25    1    3    3    0    0  0.81603204358E+02  0.26659876057E+02  0.13951368149E+03  0.20611018261E+03  0.12509000000E+03 0.  0.
<mgrwt>
<rscale>  2 0.44836233E+03</rscale>
<asrwt>0</asrwt>
<pdfrwt beam="1">  1       21 0.11292868E+00 0.44836233E+03</pdfrwt>
<pdfrwt beam="2">  1       21 0.96244555E-02 0.44836233E+03</pdfrwt>
<totfact> 0.48679117E+04</totfact>
</mgrwt>
</event>
<event>
 7    0  0.4775379E-002  0.4557250E+03  0.7546771E-02  0.1026028E+00
         21   -1    0    0  502  501  0.00000000000E+00  0.00000000000E+00  0.14347447828E+03  0.14347447828E+03  0.00000000000E+00 0. -1.
         21   -1    0    0  501  502 -0.00000000000E+00 -0.00000000000E+00 -0.36188538333E+03  0.36188538333E+03  0.00000000000E+00 0. -1.
      99926    2    1    2    0    0  0.00000000000E+00 -0.35527136788E-14 -0.21841090505E+03  0.50535986161E+03  0.45572498975E+03 0.  0.
      99925    2    3    3    0    0 -0.82169556358E+02 -0.21938152806E+02 -0.53514130166E+02  0.28159307899E+03  0.26305471192E+03 0.  0.
         25    1    4    4    0    0 -0.56612384418E+02  0.21713016558E+02 -0.46116597223E+02  0.14646045813E+03  0.12509000000E+03 0.  0.
         25    1    3    3    0    0  0.82169556358E+02  0.21938152806E+02 -0.16489677488E+03  0.22376678263E+03  0.12509000000E+03 0.  0.
         25    1    4    4    0    0 -0.25557171939E+02 -0.43651169365E+02 -0.73975329436E+01  0.13513262085E+03  0.12509000000E+03 0.  0.
<mgrwt>
<rscale>  2 0.45572499E+03</rscale>
<asrwt>0</asrwt>
<pdfrwt beam="1">  1       21 0.21099188E-01 0.45572499E+03</pdfrwt>
<pdfrwt beam="2">  1       21 0.53218439E-01 0.45572499E+03</pdfrwt>
<totfact> 0.64523634E+04</totfact>
</mgrwt>
</event>
<event>
 7    0  0.4775379E-002  0.4521383E+03  0.7546771E-02  0.1027086E+00
         21   -1    0    0  502  501  0.00000000000E+00  0.00000000000E+00  0.43325709908E+02  0.43325709908E+02  0.00000000000E+00 0. -1.
         21   -1    0    0  501  502 -0.00000000000E+00 -0.00000000000E+00 -0.11796056460E+04  0.11796056460E+04  0.00000000000E+00 0. -1.
      99926    2    1    2    0    0  0.14210854715E-13 -0.14210854715E-13 -0.11362799361E+04  0.12229313559E+04  0.45213826214E+03 0.  0.
      99925    2    3    3    0    0 -0.79371411514E+02  0.75253026168E+02 -0.67639398642E+03  0.73394727261E+03  0.26307211025E+03 0.  0.
         25    1    4    4    0    0 -0.72489387366E+02  0.29540325665E+02 -0.29376265024E+03  0.32874206439E+03  0.12509000000E+03 0.  0.
         25    1    4    4    0    0 -0.68820241485E+01  0.45712700503E+02 -0.38263133617E+03  0.40520520822E+03  0.12509000000E+03 0.  0.
         25    1    3    3    0    0  0.79371411514E+02 -0.75253026168E+02 -0.45988594964E+03  0.48898408327E+03  0.12509000000E+03 0.  0.
<mgrwt>
<rscale>  2 0.45213826E+03</rscale>
<asrwt>0</asrwt>
<pdfrwt beam="1">  1       21 0.63714275E-02 0.45213826E+03</pdfrwt>
<pdfrwt beam="2">  1       21 0.17347143E+00 0.45213826E+03</pdfrwt>
<totfact> 0.32147989E+04</totfact>
</mgrwt>
</event>
<event>
 7    0  0.4775379E-002  0.4545615E+03  0.7546771E-02  0.1026370E+00
         21   -1    0    0  502  501  0.00000000000E+00  0.00000000000E+00  0.17448761146E+03  0.17448761146E+03  0.00000000000E+00 0.  1.
         21   -1    0    0  501  502 -0.00000000000E+00 -0.00000000000E+00 -0.29604702167E+03  0.29604702167E+03  0.00000000000E+00 0.  1.
      99926    2    1    2    0    0  0.00000000000E+00  0.00000000000E+00 -0.12155941021E+03  0.47053463312E+03  0.45456149282E+03 0.  0.
      99925    2    3    3    0    0  0.47232069110E+02 -0.49851937519E+02 -0.16922435921E+03  0.32008351319E+03  0.26286971609E+03 0.  0.
         25    1    4    4    0    0  0.40011310638E+02 -0.21431609027E+02 -0.12929836470E+03  0.18554189300E+03  0.12509000000E+03 0.  0.
         25    1    3    3    0    0 -0.47232069110E+02  0.49851937519E+02  0.47664949003E+02  0.15045111994E+03  0.12509000000E+03 0.  0.
         25    1    4    4    0    0  0.72207584724E+01 -0.28420328492E+02 -0.39925994512E+02  0.13454162019E+03  0.12509000000E+03 0.  0.
<mgrwt>
<rscale>  2 0.45456149E+03</rscale>
<asrwt>0</asrwt>
<pdfrwt beam="1">  1       21 0.25659943E-01 0.45456149E+03</pdfrwt>
<pdfrwt beam="2">  1       21 0.43536326E-01 0.45456149E+03</pdfrwt>
<totfact> 0.67630937E+04</totfact>
</mgrwt>
</event>
<event>
 7    0  0.4775379E-002  0.4547077E+03  0.7546771E-02  0.1026327E+00
         21   -1    0    0  502  501  0.00000000000E+00  0.00000000000E+00  0.23510964661E+03  0.23510964661E+03  0.00000000000E+00 0. -1.
         21   -1    0    0  501  502 -0.00000000000E+00 -0.00000000000E+00 -0.21985394298E+03  0.21985394298E+03  0.00000000000E+00 0. -1.
      99926    2    1    2    0    0 -0.17763568394E-14  0.14210854715E-13  0.15255703630E+02  0.45496358960E+03  0.45470774280E+03 0.  0.
      99925    2    3    3    0    0  0.12002905079E+02  0.10529895283E+03 -0.29123871383E+02  0.28511367357E+03  0.26307730380E+03 0.  0.
         25    1    4    4    0    0  0.34567987596E+02  0.83463462055E+02 -0.22923386266E+02  0.15599386207E+03  0.12509000000E+03 0.  0.
         25    1    3    3    0    0 -0.12002905079E+02 -0.10529895283E+03  0.44379575013E+02  0.16984991603E+03  0.12509000000E+03 0.  0.
         25    1    4    4    0    0 -0.22565082517E+02  0.21835490773E+02 -0.62004851166E+01  0.12911981150E+03  0.12509000000E+03 0.  0.
<mgrwt>
<rscale>  2 0.45470774E+03</rscale>
<asrwt>0</asrwt>
<pdfrwt beam="1">  1       21 0.34574948E-01 0.45470774E+03</pdfrwt>
<pdfrwt beam="2">  1       21 0.32331462E-01 0.45470774E+03</pdfrwt>
<totfact> 0.68708555E+04</totfact>
</mgrwt>
</event>
<event>
 7    0  0.4775379E-002  0.4542120E+03  0.7546771E-02  0.1026473E+00
         21   -1    0    0  502  501  0.00000000000E+00  0.00000000000E+00  0.88432201019E+03  0.88432201019E+03  0.00000000000E+00 0.  1.
         21   -1    0    0  501  502 -0.00000000000E+00 -0.00000000000E+00 -0.58323931095E+02  0.58323931095E+02  0.00000000000E+00 0.  1.
      99926    2    1    2    0    0 -0.14210854715E-13  0.00000000000E+00  0.82599807910E+03  0.94264594129E+03  0.45421200331E+03 0.  0.
      99925    2    3    3    0    0  0.84511717428E+02  0.27109743057E+02  0.66334783638E+03  0.71908436564E+03  0.26301103460E+03 0.  0.
         25    1    3    3    0    0 -0.84511717428E+02 -0.27109743057E+02  0.16265024272E+03  0.22356157565E+03  0.12509000000E+03 0.  0.
         25    1    4    4    0    0  0.14117763704E+02 -0.26397281770E+01  0.37572367253E+03  0.39626009844E+03  0.12509000000E+03 0.  0.
         25    1    4    4    0    0  0.70393953724E+02  0.29749471234E+02  0.28762416385E+03  0.32282426719E+03  0.12509000000E+03 0.  0.
<mgrwt>
<rscale>  2 0.45421200E+03</rscale>
<asrwt>0</asrwt>
<pdfrwt beam="1">  1       21 0.13004735E+00 0.45421200E+03</pdfrwt>
<pdfrwt beam="2">  1       21 0.85770493E-02 0.45421200E+03</pdfrwt>
<totfact> 0.41696390E+04</totfact>
</mgrwt>
</event>
<event>
 7    0  0.4775379E-002  0.4492000E+03  0.7546771E-02  0.1027961E+00
         21   -1    0    0  502  501  0.00000000000E+00  0.00000000000E+00  0.45165091048E+02  0.45165091048E+02  0.00000000000E+00 0. -1.
         21   -1    0    0  501  502 -0.00000000000E+00 -0.00000000000E+00 -0.11169061676E+04  0.11169061676E+04  0.00000000000E+00 0. -1.
      99926    2    1    2    0    0  0.00000000000E+00  0.35527136788E-14 -0.10717410766E+04  0.11620712587E+04  0.44920003897E+03 0.  0.
      99925    2    3    3    0    0 -0.10551173604E+03 -0.18489219482E+02 -0.65060285815E+03  0.70987717999E+03  0.26299611015E+03 0.  0.
         25    1    3    3    0    0  0.10551173604E+03  0.18489219482E+02 -0.42113821845E+03  0.45219407870E+03  0.12509000000E+03 0.  0.
         25    1    4    4    0    0 -0.41123627713E+02  0.29926915145E+02 -0.29789994850E+03  0.32707592455E+03  0.12509000000E+03 0.  0.
         25    1    4    4    0    0 -0.64388108326E+02 -0.48416134627E+02 -0.35270290965E+03  0.38280125544E+03  0.12509000000E+03 0.  0.
<mgrwt>
<rscale>  2 0.44920004E+03</rscale>
<asrwt>0</asrwt>
<pdfrwt beam="1">  1       21 0.66419250E-02 0.44920004E+03</pdfrwt>
<pdfrwt beam="2">  1       21 0.16425091E+00 0.44920004E+03</pdfrwt>
<totfact> 0.34934316E+04</totfact>
</mgrwt>
</event>
<event>
 6    0  0.4775379E-002  0.4331042E+03  0.7546771E-02  0.1032884E+00
         21   -1    0    0  502  501  0.00000000000E+00  0.00000000000E+00  0.10732541041E+03  0.10732541041E+03  0.00000000000E+00 0. -1.
         21   -1    0    0  501  502 -0.00000000000E+00 -0.00000000000E+00 -0.43694036932E+03  0.43694036932E+03  0.00000000000E+00 0. -1.
      99926    2    1    2    0    0  0.00000000000E+00 -0.71054273576E-14 -0.32961495891E+03  0.54426577974E+03  0.43310416513E+03 0.  0.
         25    1    3    3    0    0  0.29360775020E+02 -0.54161017891E+02 -0.20437108701E+03  0.24740759947E+03  0.12509000000E+03 0.  0.
         25    1    3    3    0    0  0.10408437933E+02  0.81297066516E+01 -0.85852173484E+02  0.15229094360E+03  0.12509000000E+03 0.  0.
         25    1    3    3    0    0 -0.39769212953E+02  0.46031311239E+02 -0.39391698414E+02  0.14456723667E+03  0.12509000000E+03 0.  0.
<mgrwt>
<rscale>  2 0.43310417E+03</rscale>
<asrwt>0</asrwt>
<pdfrwt beam="1">  1       21 0.15783149E-01 0.43310417E+03</pdfrwt>
<pdfrwt beam="2">  1       21 0.64255936E-01 0.43310417E+03</pdfrwt>
<totfact> 0.74308940E+04</totfact>
</mgrwt>
</event>
<event>
 7    0  0.4775379E-002  0.4508136E+03  0.7546771E-02  0.1027480E+00
         21   -1    0    0  502  501  0.00000000000E+00  0.00000000000E+00  0.24551309110E+03  0.24551309110E+03  0.00000000000E+00 0. -1.
         21   -1    0    0  501  502 -0.00000000000E+00 -0.00000000000E+00 -0.20694713236E+03  0.20694713236E+03  0.00000000000E+00 0. -1.
      99926    2    1    2    0    0  0.00000000000E+00  0.00000000000E+00  0.38565958739E+02  0.45246022345E+03  0.45081362073E+03 0.  0.
      99925    2    3    3    0    0  0.77013007441E+02  0.37036494351E+02 -0.44170230881E+02  0.27984652063E+03  0.26279338002E+03 0.  0.
         25    1    3    3    0    0 -0.77013007441E+02 -0.37036494351E+02  0.82736189620E+02  0.17261370282E+03  0.12509000000E+03 0.  0.
         25    1    4    4    0    0  0.35851928472E+01 -0.12459103882E+01 -0.72662350540E+01  0.12535833507E+03  0.12509000000E+03 0.  0.
         25    1    4    4    0    0  0.73427814593E+02  0.38282404739E+02 -0.36903995827E+02  0.15448818556E+03  0.12509000000E+03 0.  0.
<mgrwt>
<rscale>  2 0.45081362E+03</rscale>
<asrwt>0</asrwt>
<pdfrwt beam="1">  1       21 0.36104867E-01 0.45081362E+03</pdfrwt>
<pdfrwt beam="2">  1       21 0.30433402E-01 0.45081362E+03</pdfrwt>
<totfact> 0.71076867E+04</totfact>
</mgrwt>
</event>
<event>
 7    0  0.4775379E-002  0.4555119E+03  0.7546771E-02  0.1026091E+00
         21   -1    0    0  502  501  0.00000000000E+00  0.00000000000E+00  0.75479388940E+02  0.75479388940E+02  0.00000000000E+00 0. -1.
         21   -1    0    0  501  502 -0.00000000000E+00 -0.00000000000E+00 -0.68724422866E+03  0.68724422866E+03  0.00000000000E+00 0. -1.
      99926    2    1    2    0    0  0.00000000000E+00  0.00000000000E+00 -0.61176483972E+03  0.76272361760E+03  0.45551190734E+03 0.  0.
      99925    2    3    3    0    0 -0.48742289799E+02 -0.89795121410E+02 -0.29952064094E+03  0.41117998956E+03  0.26252122738E+03 0.  0.
         25    1    4    4    0    0 -0.10637999503E+02 -0.11580061264E+02 -0.10490659260E+03  0.16401270111E+03  0.12509000000E+03 0.  0.
         25    1    4    4    0    0 -0.38104290296E+02 -0.78215060145E+02 -0.19461404834E+03  0.24716728846E+03  0.12509000000E+03 0.  0.
         25    1    3    3    0    0  0.48742289799E+02  0.89795121410E+02 -0.31224419877E+03  0.35154362803E+03  0.12509000000E+03 0.  0.
<mgrwt>
<rscale>  2 0.45551191E+03</rscale>
<asrwt>0</asrwt>
<pdfrwt beam="1">  1       21 0.11099911E-01 0.45551191E+03</pdfrwt>
<pdfrwt beam="2">  1       21 0.10106532E+00 0.45551191E+03</pdfrwt>
<totfact> 0.49421450E+04</totfact>
</mgrwt>
</event>
<event>
 7    0  0.4775379E-002  0.4480281E+03  0.7546771E-02  0.1028312E+00
         21   -1    0    0  502  501  0.00000000000E+00  0.00000000000E+00  0.23427369091E+03  0.23427369091E+03  0.00000000000E+00 0.  1.
         21   -1    0    0  501  502 -0.00000000000E+00 -0.00000000000E+00 -0.21420372621E+03  0.21420372621E+03  0.00000000000E+00 0.  1.
      99926    2    1    2    0    0  0.00000000000E+00  0.88817841970E-15  0.20069964702E+02  0.44847741712E+03  0.44802811316E+03 0.  0.
      99925    2    3    3    0    0  0.46088909927E+02 -0.68582679029E+01 -0.83183518903E+02  0.27971719244E+03  0.26296575152E+03 0.  0.
         25    1    4    4    0    0  0.34924439228E+02 -0.34203575097E+02 -0.67264553276E+02  0.15020529029E+03  0.12509000000E+03 0.  0.
         25    1    4    4    0    0  0.11164470699E+02  0.27345307194E+02 -0.15918965627E+02  0.12951190215E+03  0.12509000000E+03 0.  0.
         25    1    3    3    0    0 -0.46088909927E+02  0.68582679029E+01  0.10325348361E+03  0.16876022468E+03  0.12509000000E+03 0.  0.
<mgrwt>
<rscale>  2 0.44802811E+03</rscale>
<asrwt>0</asrwt>
<pdfrwt beam="1">  1       21 0.34452014E-01 0.44802811E+03</pdfrwt>
<pdfrwt beam="2">  1       21 0.31500548E-01 0.44802811E+03</pdfrwt>
<totfact> 0.73003616E+04</totfact>
</mgrwt>
</event>
<event>
 7    0  0.4775379E-002  0.4536947E+03  0.7546771E-02  0.1026626E+00
         21   -1    0    0  502  501  0.00000000000E+00  0.00000000000E+00  0.10911440413E+03  0.10911440413E+03  0.00000000000E+00 0.  1.
         21   -1    0    0  501  502 -0.00000000000E+00 -0.00000000000E+00 -0.47161261784E+03  0.47161261784E+03  0.00000000000E+00 0.  1.
      99926    2    1    2    0    0  0.00000000000E+00  0.00000000000E+00 -0.36249821371E+03  0.58072702197E+03  0.45369474221E+03 0.  0.
      99925    2    3    3    0    0 -0.86547944331E+02 -0.44645656381E+02 -0.15769262417E+03  0.32173547982E+03  0.26298854339E+03 0.  0.
         25    1    4    4    0    0 -0.97500444012E+01 -0.42731066339E+02 -0.60653191719E+02  0.14576462246E+03  0.12509000000E+03 0.  0.
         25    1    4    4    0    0 -0.76797899930E+02 -0.19145900419E+01 -0.97039432456E+02  0.17597085736E+03  0.12509000000E+03 0.  0.
         25    1    3    3    0    0  0.86547944331E+02  0.44645656381E+02 -0.20480558953E+03  0.25899154215E+03  0.12509000000E+03 0.  0.
<mgrwt>
<rscale>  2 0.45369474E+03</rscale>
<asrwt>0</asrwt>
<pdfrwt beam="1">  1       21 0.16046236E-01 0.45369474E+03</pdfrwt>
<pdfrwt beam="2">  1       21 0.69354798E-01 0.45369474E+03</pdfrwt>
<totfact> 0.60502428E+04</totfact>
</mgrwt>
</event>
<event>
 7    0  0.4775379E-002  0.4553295E+03  0.7546771E-02  0.1026145E+00
         21   -1    0    0  502  501  0.00000000000E+00  0.00000000000E+00  0.58807210231E+02  0.58807210231E+02  0.00000000000E+00 0.  1.
         21   -1    0    0  501  502 -0.00000000000E+00 -0.00000000000E+00 -0.88137566656E+03  0.88137566656E+03  0.00000000000E+00 0.  1.
      99926    2    1    2    0    0  0.00000000000E+00 -0.44408920985E-15 -0.82256845633E+03  0.94018287679E+03  0.45532952514E+03 0.  0.
      99925    2    3    3    0    0  0.65492738967E+02 -0.11161079235E+01 -0.70866491987E+03  0.75876604110E+03  0.26311478848E+03 0.  0.
         25    1    4    4    0    0  0.15537721964E+02  0.33640904404E+02 -0.38390349442E+03  0.40546582147E+03  0.12509000000E+03 0.  0.
         25    1    3    3    0    0 -0.65492738967E+02  0.11161079235E+01 -0.11390353646E+03  0.18141683569E+03  0.12509000000E+03 0.  0.
         25    1    4    4    0    0  0.49955017003E+02 -0.34757012327E+02 -0.32476142545E+03  0.35330021963E+03  0.12509000000E+03 0.  0.
<mgrwt>
<rscale>  2 0.45532953E+03</rscale>
<asrwt>0</asrwt>
<pdfrwt beam="1">  1       21 0.86481196E-02 0.45532953E+03</pdfrwt>
<pdfrwt beam="2">  1       21 0.12961406E+00 0.45532953E+03</pdfrwt>
<totfact> 0.41434020E+04</totfact>
</mgrwt>
</event>
<event>
 7    0  0.4775379E-002  0.4481511E+03  0.7546771E-02  0.1028275E+00
         21   -1    0    0  502  501  0.00000000000E+00  0.00000000000E+00  0.47939294920E+02  0.47939294920E+02  0.00000000000E+00 0. -1.
         21   -1    0    0  501  502 -0.00000000000E+00 -0.00000000000E+00 -0.10473632141E+04  0.10473632141E+04  0.00000000000E+00 0. -1.
      99926    2    1    2    0    0  0.17763568394E-14 -0.71054273576E-14 -0.99942391920E+03  0.10953025090E+04  0.44815110849E+03 0.  0.
      99925    2    3    3    0    0 -0.14955496749E+02 -0.55207694193E+02 -0.85268581863E+03  0.89417783467E+03  0.26307667769E+03 0.  0.
         25    1    3    3    0    0  0.14955496749E+02  0.55207694193E+02 -0.14673810057E+03  0.20112467437E+03  0.12509000000E+03 0.  0.
         25    1    4    4    0    0 -0.34203405991E+02 -0.25065557894E+02 -0.32783474647E+03  0.35344205220E+03  0.12509000000E+03 0.  0.
         25    1    4    4    0    0  0.19247909242E+02 -0.30142136299E+02 -0.52485107216E+03  0.54073578247E+03  0.12509000000E+03 0.  0.
<mgrwt>
<rscale>  2 0.44815111E+03</rscale>
<asrwt>0</asrwt>
<pdfrwt beam="1">  1       21 0.70498968E-02 0.44815111E+03</pdfrwt>
<pdfrwt beam="2">  1       21 0.15402399E+00 0.44815111E+03</pdfrwt>
<totfact> 0.37628227E+04</totfact>
</mgrwt>
</event>
<event>
 7    0  0.4775379E-002  0.4495175E+03  0.7546771E-02  0.1027866E+00
         21   -1    0    0  502  501  0.00000000000E+00  0.00000000000E+00  0.11405087572E+03  0.11405087572E+03  0.00000000000E+00 0.  1.
         21   -1    0    0  501  502 -0.00000000000E+00 -0.00000000000E+00 -0.44292957821E+03  0.44292957821E+03  0.00000000000E+00 0.  1.
      99926    2    1    2    0    0  0.71054273576E-14  0.00000000000E+00 -0.32887870249E+03  0.55698045393E+03  0.44951754705E+03 0.  0.
      99925    2    3    3    0    0  0.32793366033E+02  0.91237261663E+02 -0.14920572430E+03  0.31754459620E+03  0.26300680532E+03 0.  0.
         25    1    4    4    0    0 -0.35735812475E+01  0.45472564065E+02 -0.33242024009E+02  0.13723361405E+03  0.12509000000E+03 0.  0.
         25    1    3    3    0    0 -0.32793366033E+02 -0.91237261663E+02 -0.17967297820E+03  0.23943585773E+03  0.12509000000E+03 0.  0.
         25    1    4    4    0    0  0.36366947281E+02  0.45764697598E+02 -0.11596370029E+03  0.18031098215E+03  0.12509000000E+03 0.  0.
<mgrwt>
<rscale>  2 0.44951755E+03</rscale>
<asrwt>0</asrwt>
<pdfrwt beam="1">  1       21 0.16772188E-01 0.44951755E+03</pdfrwt>
<pdfrwt beam="2">  1       21 0.65136703E-01 0.44951755E+03</pdfrwt>
<totfact> 0.64144495E+04</totfact>
</mgrwt>
</event>
<event>
 7    0  0.4775379E-002  0.4595398E+03  0.7546771E-02  0.1024915E+00
         21   -1    0    0  502  501  0.00000000000E+00  0.00000000000E+00  0.14108441005E+03  0.14108441005E+03  0.00000000000E+00 0.  1.
         21   -1    0    0  501  502 -0.00000000000E+00 -0.00000000000E+00 -0.37420303618E+03  0.37420303618E+03  0.00000000000E+00 0.  1.
      99926    2    1    2    0    0  0.00000000000E+00 -0.44408920985E-15 -0.23311862613E+03  0.51528744623E+03  0.45953983330E+03 0.  0.
      99925    2    3    3    0    0 -0.11681070155E+03 -0.39696452723E+01 -0.13309786429E+03  0.31701450561E+03  0.26291188107E+03 0.  0.
         25    1    4    4    0    0 -0.50681799747E+02  0.30444201472E+02 -0.90369294152E+02  0.16525620005E+03  0.12509000000E+03 0.  0.
         25    1    4    4    0    0 -0.66128901806E+02 -0.34413846744E+02 -0.42728570138E+02  0.15175830556E+03  0.12509000000E+03 0.  0.
         25    1    3    3    0    0  0.11681070155E+03  0.39696452723E+01 -0.10002076184E+03  0.19827294062E+03  0.12509000000E+03 0.  0.
<mgrwt>
<rscale>  2 0.45953983E+03</rscale>
<asrwt>0</asrwt>
<pdfrwt beam="1">  1       21 0.20747707E-01 0.45953983E+03</pdfrwt>
<pdfrwt beam="2">  1       21 0.55029858E-01 0.45953983E+03</pdfrwt>
<totfact> 0.61947455E+04</totfact>
</mgrwt>
</event>
<event>
 7    0  0.4775379E-002  0.4485190E+03  0.7546771E-02  0.1028165E+00
         21   -1    0    0  502  501  0.00000000000E+00  0.00000000000E+00  0.24800010294E+03  0.24800010294E+03  0.00000000000E+00 0.  1.
         21   -1    0    0  501  502 -0.00000000000E+00 -0.00000000000E+00 -0.20279152722E+03  0.20279152722E+03  0.00000000000E+00 0.  1.
      99926    2    1    2    0    0  0.00000000000E+00  0.00000000000E+00  0.45208575722E+02  0.45079163017E+03  0.44851898344E+03 0.  0.
      99925    2    3    3    0    0  0.56755071704E+02 -0.50318888678E+02 -0.47278637245E+02  0.27771788466E+03  0.26294262720E+03 0.  0.
         25    1    4    4    0    0  0.24672043917E+02 -0.23968027209E+02  0.17414846162E+02  0.13089675720E+03  0.12509000000E+03 0.  0.
         25    1    4    4    0    0  0.32083027787E+02 -0.26350861468E+02 -0.64693483408E+02  0.14682112746E+03  0.12509000000E+03 0.  0.
         25    1    3    3    0    0 -0.56755071704E+02  0.50318888678E+02  0.92487212967E+02  0.17307374551E+03  0.12509000000E+03 0.  0.
<mgrwt>
<rscale>  2 0.44851898E+03</rscale>
<asrwt>0</asrwt>
<pdfrwt beam="1">  1       21 0.36470604E-01 0.44851898E+03</pdfrwt>
<pdfrwt beam="2">  1       21 0.29822283E-01 0.44851898E+03</pdfrwt>
<totfact> 0.72533913E+04</totfact>
</mgrwt>
</event>
<event>
 7    0  0.4775379E-002  0.4542630E+03  0.7546771E-02  0.1026458E+00
         21   -1    0    0  502  501  0.00000000000E+00  0.00000000000E+00  0.27768919814E+03  0.27768919814E+03  0.00000000000E+00 0.  1.
         21   -1    0    0  501  502 -0.00000000000E+00 -0.00000000000E+00 -0.18577866017E+03  0.18577866017E+03  0.00000000000E+00 0.  1.
      99926    2    1    2    0    0  0.71054273576E-14 -0.14210854715E-13  0.91910537976E+02  0.46346785831E+03  0.45426303911E+03 0.  0.
      99925    2    3    3    0    0  0.35409102534E+02 -0.77833427817E+02  0.13246342631E+03  0.30661158053E+03  0.26296816343E+03 0.  0.
         25    1    4    4    0    0  0.55183158309E+02 -0.47100232418E+02  0.86057623954E+02  0.16827666385E+03  0.12509000000E+03 0.  0.
         25    1    4    4    0    0 -0.19774055775E+02 -0.30733195399E+02  0.46405802354E+02  0.13833491668E+03  0.12509000000E+03 0.  0.
         25    1    3    3    0    0 -0.35409102534E+02  0.77833427817E+02 -0.40552888332E+02  0.15685627778E+03  0.12509000000E+03 0.  0.
<mgrwt>
<rscale>  2 0.45426304E+03</rscale>
<asrwt>0</asrwt>
<pdfrwt beam="1">  1       21 0.40836647E-01 0.45426304E+03</pdfrwt>
<pdfrwt beam="2">  1       21 0.27320391E-01 0.45426304E+03</pdfrwt>
<totfact> 0.68323515E+04</totfact>
</mgrwt>
</event>
<event>
 7    0  0.4775379E-002  0.4590149E+03  0.7546771E-02  0.1025067E+00
         21   -1    0    0  502  501  0.00000000000E+00  0.00000000000E+00  0.90276283198E+03  0.90276283198E+03  0.00000000000E+00 0. -1.
         21   -1    0    0  501  502 -0.00000000000E+00 -0.00000000000E+00 -0.58347191691E+02  0.58347191691E+02  0.00000000000E+00 0. -1.
      99926    2    1    2    0    0  0.14210854715E-13 -0.88817841970E-15  0.84441564029E+03  0.96111002367E+03  0.45901492790E+03 0.  0.
      99925    2    3    3    0    0 -0.11630958422E+03 -0.77758874783E+01  0.50922307988E+03  0.58482563062E+03  0.26291536534E+03 0.  0.
         25    1    4    4    0    0 -0.72495298118E+02 -0.18008530409E+02  0.33793157857E+03  0.36800154254E+03  0.12509000000E+03 0.  0.
         25    1    3    3    0    0  0.11630958422E+03  0.77758874783E+01  0.33519256041E+03  0.37628439306E+03  0.12509000000E+03 0.  0.
         25    1    4    4    0    0 -0.43814286099E+02  0.10232642931E+02  0.17129150131E+03  0.21682408808E+03  0.12509000000E+03 0.  0.
<mgrwt>
<rscale>  2 0.45901493E+03</rscale>
<asrwt>0</asrwt>
<pdfrwt beam="1">  1       21 0.13275923E+00 0.45901493E+03</pdfrwt>
<pdfrwt beam="2">  1       21 0.85804699E-02 0.45901493E+03</pdfrwt>
<totfact> 0.39441419E+04</totfact>
</mgrwt>
</event>
<event>
 7    0  0.4775379E-002  0.4525923E+03  0.7546771E-02  0.1026952E+00
         21   -1    0    0  502  501  0.00000000000E+00  0.00000000000E+00  0.23173292780E+03  0.23173292780E+03  0.00000000000E+00 0.  1.
         21   -1    0    0  501  502 -0.00000000000E+00 -0.00000000000E+00 -0.22098692770E+03  0.22098692770E+03  0.00000000000E+00 0.  1.
      99926    2    1    2    0    0  0.00000000000E+00  0.00000000000E+00  0.10746000102E+02  0.45271985549E+03  0.45259230113E+03 0.  0.
      99925    2    3    3    0    0  0.90089618667E+02 -0.49254111979E+02  0.48656382239E+02  0.28650670285E+03  0.26301433479E+03 0.  0.
         25    1    3    3    0    0 -0.90089618667E+02  0.49254111979E+02 -0.37910382137E+02  0.16621315264E+03  0.12509000000E+03 0.  0.
         25    1    4    4    0    0  0.35361997760E+02 -0.18796371319E+02 -0.16145653890E+02  0.13233278014E+03  0.12509000000E+03 0.  0.
         25    1    4    4    0    0  0.54727620907E+02 -0.30457740660E+02  0.64802036129E+02  0.15417392271E+03  0.12509000000E+03 0.  0.
<mgrwt>
<rscale>  2 0.45259230E+03</rscale>
<asrwt>0</asrwt>
<pdfrwt beam="1">  1       21 0.34078372E-01 0.45259230E+03</pdfrwt>
<pdfrwt beam="2">  1       21 0.32498077E-01 0.45259230E+03</pdfrwt>
<totfact> 0.70049229E+04</totfact>
</mgrwt>
</event>
<event>
 7    0  0.4775379E-002  0.4466472E+03  0.7546771E-02  0.1028727E+00
         21   -1    0    0  502  501  0.00000000000E+00  0.00000000000E+00  0.31305529501E+03  0.31305529501E+03  0.00000000000E+00 0.  1.
         21   -1    0    0  501  502 -0.00000000000E+00 -0.00000000000E+00 -0.15931188845E+03  0.15931188845E+03  0.00000000000E+00 0.  1.
      99926    2    1    2    0    0 -0.17763568394E-14  0.00000000000E+00  0.15374340656E+03  0.47236718346E+03  0.44664719964E+03 0.  0.
      99925    2    3    3    0    0 -0.10285448620E+02 -0.20958345789E+02 -0.10984095258E+02  0.26421411318E+03  0.26295133493E+03 0.  0.
         25    1    3    3    0    0  0.10285448620E+02  0.20958345789E+02  0.16472750182E+03  0.20815307028E+03  0.12509000000E+03 0.  0.
         25    1    4    4    0    0  0.28269794453E+02 -0.26988361594E+01 -0.26996959628E+02  0.13108321374E+03  0.12509000000E+03 0.  0.
         25    1    4    4    0    0 -0.38555243074E+02 -0.18259509629E+02  0.16012864370E+02  0.13313089944E+03  0.12509000000E+03 0.  0.
<mgrwt>
<rscale>  2 0.44664720E+03</rscale>
<asrwt>0</asrwt>
<pdfrwt beam="1">  1       21 0.46037543E-01 0.44664720E+03</pdfrwt>
<pdfrwt beam="2">  1       21 0.23428219E-01 0.44664720E+03</pdfrwt>
<totfact> 0.71910239E+04</totfact>
</mgrwt>
</event>
<event>
 7    0  0.4775379E-002  0.4532555E+03  0.7546771E-02  0.1026756E+00
         21   -1    0    0  502  501  0.00000000000E+00  0.00000000000E+00  0.17176395678E+03  0.17176395678E+03  0.00000000000E+00 0.  1.
         21   -1    0    0  501  502 -0.00000000000E+00 -0.00000000000E+00 -0.29901573749E+03  0.29901573749E+03  0.00000000000E+00 0.  1.
      99926    2    1    2    0    0  0.00000000000E+00  0.17763568394E-14 -0.12725178071E+03  0.47077969427E+03  0.45325545208E+03 0.  0.
      99925    2    3    3    0    0  0.16228226930E+02 -0.80694541033E+01  0.34090544228E+02  0.26582280769E+03  0.26300404644E+03 0.  0.
         25    1    4    4    0    0  0.10151837458E+01  0.41136894460E+01  0.56383920722E+02  0.13727566301E+03  0.12509000000E+03 0.  0.
         25    1    4    4    0    0  0.15213043184E+02 -0.12183143549E+02 -0.22293376494E+02  0.12854714468E+03  0.12509000000E+03 0.  0.
         25    1    3    3    0    0 -0.16228226930E+02  0.80694541033E+01 -0.16134232494E+03  0.20495688658E+03  0.12509000000E+03 0.  0.
<mgrwt>
<rscale>  2 0.45325545E+03</rscale>
<asrwt>0</asrwt>
<pdfrwt beam="1">  1       21 0.25259406E-01 0.45325545E+03</pdfrwt>
<pdfrwt beam="2">  1       21 0.43972902E-01 0.45325545E+03</pdfrwt>
<totfact> 0.68318491E+04</totfact>
</mgrwt>
</event>
<event>
 7    0  0.4775379E-002  0.4604056E+03  0.7546771E-02  0.1024664E+00
         21   -1    0    0  502  501  0.00000000000E+00  0.00000000000E+00  0.78048910964E+03  0.78048910964E+03  0.00000000000E+00 0. -1.
         21   -1    0    0  501  502 -0.00000000000E+00 -0.00000000000E+00 -0.67897602088E+02  0.67897602088E+02  0.00000000000E+00 0. -1.
      99926    2    1    2    0    0 -0.44408920985E-15  0.00000000000E+00  0.71259150755E+03  0.84838671173E+03  0.46040564289E+03 0.  0.
      99925    2    3    3    0    0  0.26529229295E+01  0.35230448513E+02  0.23823157953E+03  0.35654011784E+03  0.26290368511E+03 0.  0.
         25    1    4    4    0    0  0.81628606322E+01  0.55998245094E+02  0.13958895495E+03  0.19579330987E+03  0.12509000000E+03 0.  0.
         25    1    4    4    0    0 -0.55099377027E+01 -0.20767796581E+02  0.98642624580E+02  0.16074680797E+03  0.12509000000E+03 0.  0.
         25    1    3    3    0    0 -0.26529229295E+01 -0.35230448513E+02  0.47435992802E+03  0.49184659389E+03  0.12509000000E+03 0.  0.
<mgrwt>
<rscale>  2 0.46040564E+03</rscale>
<asrwt>0</asrwt>
<pdfrwt beam="1">  1       21 0.11477781E+00 0.46040564E+03</pdfrwt>
<pdfrwt beam="2">  1       21 0.99849419E-02 0.46040564E+03</pdfrwt>
<totfact> 0.43631740E+04</totfact>
</mgrwt>
</event>
<event>
 7    0  0.4775379E-002  0.4583004E+03  0.7546771E-02  0.1025275E+00
         21   -1    0    0  502  501  0.00000000000E+00  0.00000000000E+00  0.12206924767E+04  0.12206924767E+04  0.00000000000E+00 0. -1.
         21   -1    0    0  501  502 -0.00000000000E+00 -0.00000000000E+00 -0.43016407317E+02  0.43016407317E+02  0.00000000000E+00 0. -1.
      99926    2    1    2    0    0  0.26645352591E-14  0.00000000000E+00  0.11776760694E+04  0.12637088840E+04  0.45830035909E+03 0.  0.
      99925    2    3    3    0    0  0.49085195708E+01 -0.11515028962E+03  0.77972364909E+03  0.83093028047E+03  0.26304463366E+03 0.  0.
         25    1    4    4    0    0  0.27219299611E+02 -0.34578942388E+02  0.43600965230E+03  0.45572855795E+03  0.12509000000E+03 0.  0.
         25    1    4    4    0    0 -0.22310780040E+02 -0.80571347234E+02  0.34371399678E+03  0.37520172253E+03  0.12509000000E+03 0.  0.
         25    1    3    3    0    0 -0.49085195708E+01  0.11515028962E+03  0.39795242028E+03  0.43277860353E+03  0.12509000000E+03 0.  0.
<mgrwt>
<rscale>  2 0.45830036E+03</rscale>
<asrwt>0</asrwt>
<pdfrwt beam="1">  1       21 0.17951358E+00 0.45830036E+03</pdfrwt>
<pdfrwt beam="2">  1       21 0.63259430E-02 0.45830036E+03</pdfrwt>
<totfact> 0.29424000E+04</totfact>
</mgrwt>
</event>
<event>
 7    0  0.4775379E-002  0.4458403E+03  0.7546771E-02  0.1028970E+00
         21   -1    0    0  502  501  0.00000000000E+00  0.00000000000E+00  0.12160331953E+03  0.12160331953E+03  0.00000000000E+00 0.  1.
         21   -1    0    0  501  502 -0.00000000000E+00 -0.00000000000E+00 -0.40865154123E+03  0.40865154123E+03  0.00000000000E+00 0.  1.
      99926    2    1    2    0    0  0.00000000000E+00  0.00000000000E+00 -0.28704822169E+03  0.53025486076E+03  0.44584025815E+03 0.  0.
      99925    2    3    3    0    0  0.77446608743E+02  0.21071352527E+02 -0.10295968857E+03  0.29365799850E+03  0.26304437556E+03 0.  0.
         25    1    4    4    0    0  0.61161876371E+02 -0.21884299185E+02 -0.64152115332E+02  0.15486348722E+03  0.12509000000E+03 0.  0.
         25    1    4    4    0    0  0.16284732372E+02  0.42955651711E+02 -0.38807573240E+02  0.13879451129E+03  0.12509000000E+03 0.  0.
         25    1    3    3    0    0 -0.77446608743E+02 -0.21071352527E+02 -0.18408853312E+03  0.23659686226E+03  0.12509000000E+03 0.  0.
<mgrwt>
<rscale>  2 0.44584026E+03</rscale>
<asrwt>0</asrwt>
<pdfrwt beam="1">  1       21 0.17882841E-01 0.44584026E+03</pdfrwt>
<pdfrwt beam="2">  1       21 0.60095815E-01 0.44584026E+03</pdfrwt>
<totfact> 0.67987501E+04</totfact>
</mgrwt>
</event>
<event>
 7    0  0.4775379E-002  0.4603091E+03  0.7546771E-02  0.1024692E+00
         21   -1    0    0  502  501  0.00000000000E+00  0.00000000000E+00  0.12124340682E+04  0.12124340682E+04  0.00000000000E+00 0.  1.
         21   -1    0    0  501  502 -0.00000000000E+00 -0.00000000000E+00 -0.43689891140E+02  0.43689891140E+02  0.00000000000E+00 0.  1.
      99926    2    1    2    0    0 -0.71054273576E-14  0.00000000000E+00  0.11687441771E+04  0.12561239593E+04  0.46030908075E+03 0.  0.
      99925    2    3    3    0    0  0.44304130733E+02 -0.95907510128E+02  0.87595102671E+03  0.92065944037E+03  0.26298763743E+03 0.  0.
         25    1    4    4    0    0  0.68739250581E+01 -0.21598721916E+02  0.49734383418E+03  0.51333434828E+03  0.12509000000E+03 0.  0.
         25    1    3    3    0    0 -0.44304130733E+02  0.95907510128E+02  0.29279315036E+03  0.33546451898E+03  0.12509000000E+03 0.  0.
         25    1    4    4    0    0  0.37430205675E+02 -0.74308788212E+02  0.37860719254E+03  0.40732509209E+03  0.12509000000E+03 0.  0.
<mgrwt>
<rscale>  2 0.46030908E+03</rscale>
<asrwt>0</asrwt>
<pdfrwt beam="1">  1       21 0.17829911E+00 0.46030908E+03</pdfrwt>
<pdfrwt beam="2">  1       21 0.64249848E-02 0.46030908E+03</pdfrwt>
<totfact> 0.29190911E+04</totfact>
</mgrwt>
</event>
<event>
 7    0  0.4775379E-002  0.4647231E+03  0.7546771E-02  0.1023420E+00
         21   -1    0    0  502  501  0.00000000000E+00  0.00000000000E+00  0.28003142359E+03  0.28003142359E+03  0.00000000000E+00 0. -1.
         21   -1    0    0  501  502 -0.00000000000E+00 -0.00000000000E+00 -0.19280653647E+03  0.19280653647E+03  0.00000000000E+00 0. -1.
      99926    2    1    2    0    0  0.00000000000E+00  0.00000000000E+00  0.87224887115E+02  0.47283796006E+03  0.46472309556E+03 0.  0.
      99925    2    3    3    0    0 -0.42254813249E+02 -0.82739746535E+02  0.13491636323E+03  0.30988606565E+03  0.26305059155E+03 0.  0.
         25    1    4    4    0    0 -0.94506146796E+01 -0.31850453057E+02  0.23004809646E+02  0.13145529599E+03  0.12509000000E+03 0.  0.
         25    1    4    4    0    0 -0.32804198569E+02 -0.50889293479E+02  0.11191155358E+03  0.17843076966E+03  0.12509000000E+03 0.  0.
         25    1    3    3    0    0  0.42254813249E+02  0.82739746535E+02 -0.47691476114E+02  0.16295189441E+03  0.12509000000E+03 0.  0.
<mgrwt>
<rscale>  2 0.46472310E+03</rscale>
<asrwt>0</asrwt>
<pdfrwt beam="1">  1       21 0.41181092E-01 0.46472310E+03</pdfrwt>
<pdfrwt beam="2">  1       21 0.28353902E-01 0.46472310E+03</pdfrwt>
<totfact> 0.62277754E+04</totfact>
</mgrwt>
</event>
<event>
 7    0  0.4775379E-002  0.4378599E+03  0.7546771E-02  0.1031405E+00
         21   -1    0    0  502  501  0.00000000000E+00  0.00000000000E+00  0.27223504127E+02  0.27223504127E+02  0.00000000000E+00 0.  1.
         21   -1    0    0  501  502 -0.00000000000E+00 -0.00000000000E+00 -0.17606230459E+04  0.17606230459E+04  0.00000000000E+00 0.  1.
      99926    2    1    2    0    0  0.00000000000E+00  0.00000000000E+00 -0.17333995418E+04  0.17878465500E+04  0.43785992626E+03 0.  0.
      99925    2    3    3    0    0  0.73439315031E+02  0.49386124616E+02 -0.95990101283E+03  0.99931639545E+03  0.26342167999E+03 0.  0.
         25    1    3    3    0    0 -0.73439315031E+02 -0.49386124616E+02 -0.77349852894E+03  0.78853015457E+03  0.12509000000E+03 0.  0.
         25    1    4    4    0    0  0.14986719938E+02  0.32771056984E+02 -0.34147706501E+03  0.36544854354E+03  0.12509000000E+03 0.  0.
         25    1    4    4    0    0  0.58452595093E+02  0.16615067632E+02 -0.61842394782E+03  0.63386785191E+03  0.12509000000E+03 0.  0.
<mgrwt>
<rscale>  2 0.43785993E+03</rscale>
<asrwt>0</asrwt>
<pdfrwt beam="1">  1       21 0.40034572E-02 0.43785993E+03</pdfrwt>
<pdfrwt beam="2">  1       21 0.25891511E+00 0.43785993E+03</pdfrwt>
<totfact> 0.20029051E+04</totfact>
</mgrwt>
</event>
<event>
 7    0  0.4775379E-002  0.4487823E+03  0.7546771E-02  0.1028086E+00
         21   -1    0    0  502  501  0.00000000000E+00  0.00000000000E+00  0.11763720610E+02  0.11763720610E+02  0.00000000000E+00 0. -1.
         21   -1    0    0  501  502 -0.00000000000E+00 -0.00000000000E+00 -0.42802266977E+04  0.42802266977E+04  0.00000000000E+00 0. -1.
      99926    2    1    2    0    0  0.00000000000E+00  0.00000000000E+00 -0.42684629771E+04  0.42919904183E+04  0.44878231257E+03 0.  0.
      99925    2    3    3    0    0 -0.82574543256E+02 -0.47176499440E+02 -0.31751534078E+04  0.31874463949E+04  0.26300414422E+03 0.  0.
         25    1    4    4    0    0 -0.83648746458E+02 -0.29228258515E+02 -0.17363498034E+04  0.17431034255E+04  0.12509000000E+03 0.  0.
         25    1    4    4    0    0  0.10742032027E+01 -0.17948240925E+02 -0.14388036044E+04  0.14443429694E+04  0.12509000000E+03 0.  0.
         25    1    3    3    0    0  0.82574543256E+02  0.47176499440E+02 -0.10933095692E+04  0.11045440234E+04  0.12509000000E+03 0.  0.
<mgrwt>
<rscale>  2 0.44878231E+03</rscale>
<asrwt>0</asrwt>
<pdfrwt beam="1">  1       21 0.17299585E-02 0.44878231E+03</pdfrwt>
<pdfrwt beam="2">  1       21 0.62944525E+00 0.44878231E+03</pdfrwt>
<totfact> 0.24217232E+02</totfact>
</mgrwt>
</event>
<event>
 7    0  0.4775379E-002  0.4542873E+03  0.7546771E-02  0.1026451E+00
         21   -1    0    0  502  501  0.00000000000E+00  0.00000000000E+00  0.16785912023E+03  0.16785912023E+03  0.00000000000E+00 0.  1.
         21   -1    0    0  501  502 -0.00000000000E+00 -0.00000000000E+00 -0.30736627449E+03  0.30736627449E+03  0.00000000000E+00 0.  1.
      99926    2    1    2    0    0  0.35527136788E-14  0.00000000000E+00 -0.13950715426E+03  0.47522539472E+03  0.45428727662E+03 0.  0.
      99925    2    3    3    0    0  0.30572321990E+02  0.10808486368E+03 -0.92188954164E+02  0.30057281161E+03  0.26311253710E+03 0.  0.
         25    1    4    4    0    0  0.49234717610E+02  0.78695283159E+02 -0.41679953558E+02  0.16125052446E+03  0.12509000000E+03 0.  0.
         25    1    4    4    0    0 -0.18662395620E+02  0.29389580525E+02 -0.50509000606E+02  0.13932228715E+03  0.12509000000E+03 0.  0.
         25    1    3    3    0    0 -0.30572321990E+02 -0.10808486368E+03 -0.47318200098E+02  0.17465258312E+03  0.12509000000E+03 0.  0.
<mgrwt>
<rscale>  2 0.45428728E+03</rscale>
<asrwt>0</asrwt>
<pdfrwt beam="1">  1       21 0.24685165E-01 0.45428728E+03</pdfrwt>
<pdfrwt beam="2">  1       21 0.45200922E-01 0.45428728E+03</pdfrwt>
<totfact> 0.67429926E+04</totfact>
</mgrwt>
</event>
<event>
 7    0  0.4775379E-002  0.4542229E+03  0.7546771E-02  0.1026470E+00
         21   -1    0    0  502  501  0.00000000000E+00  0.00000000000E+00  0.51750014813E+02  0.51750014813E+02  0.00000000000E+00 0. -1.
         21   -1    0    0  501  502 -0.00000000000E+00 -0.00000000000E+00 -0.99670722110E+03  0.99670722110E+03  0.00000000000E+00 0. -1.
      99926    2    1    2    0    0 -0.35527136788E-14 -0.14210854715E-13 -0.94495720629E+03  0.10484572359E+04  0.45422291204E+03 0.  0.
      99925    2    3    3    0    0 -0.30543425128E+02 -0.10700461923E+03 -0.62179781238E+03  0.68450340460E+03  0.26368447447E+03 0.  0.
         25    1    3    3    0    0  0.30543425128E+02  0.10700461923E+03 -0.32315939391E+03  0.36395383132E+03  0.12509000000E+03 0.  0.
         25    1    4    4    0    0  0.10209631248E+02 -0.60667377687E+02 -0.23389613223E+03  0.27228601884E+03  0.12509000000E+03 0.  0.
         25    1    4    4    0    0 -0.40753056376E+02 -0.46337241546E+02 -0.38790168015E+03  0.41221738576E+03  0.12509000000E+03 0.  0.
<mgrwt>
<rscale>  2 0.45422291E+03</rscale>
<asrwt>0</asrwt>
<pdfrwt beam="1">  1       21 0.76102967E-02 0.45422291E+03</pdfrwt>
<pdfrwt beam="2">  1       21 0.14657458E+00 0.45422291E+03</pdfrwt>
<totfact> 0.37561357E+04</totfact>
</mgrwt>
</event>
<event>
 7    0  0.4775379E-002  0.4480040E+03  0.7546771E-02  0.1028319E+00
         21   -1    0    0  502  501  0.00000000000E+00  0.00000000000E+00  0.39733980641E+03  0.39733980641E+03  0.00000000000E+00 0.  1.
         21   -1    0    0  501  502 -0.00000000000E+00 -0.00000000000E+00 -0.12628206002E+03  0.12628206002E+03  0.00000000000E+00 0.  1.
      99926    2    1    2    0    0  0.14210854715E-13  0.13322676296E-14  0.27105774639E+03  0.52362186643E+03  0.44800397000E+03 0.  0.
      99925    2    3    3    0    0 -0.10628534208E+03 -0.30789070709E+01  0.17714129307E+03  0.33448207180E+03  0.26304593712E+03 0.  0.
         25    1    4    4    0    0 -0.88654241153E+02 -0.24386834368E+02  0.10547766696E+03  0.18768947358E+03  0.12509000000E+03 0.  0.
         25    1    3    3    0    0  0.10628534208E+03  0.30789070709E+01  0.93916453315E+02  0.18913979463E+03  0.12509000000E+03 0.  0.
         25    1    4    4    0    0 -0.17631100929E+02  0.21307927297E+02  0.71663626111E+02  0.14679259822E+03  0.12509000000E+03 0.  0.
<mgrwt>
<rscale>  2 0.44800397E+03</rscale>
<asrwt>0</asrwt>
<pdfrwt beam="1">  1       21 0.58432324E-01 0.44800397E+03</pdfrwt>
<pdfrwt beam="2">  1       21 0.18570891E-01 0.44800397E+03</pdfrwt>
<totfact> 0.67294578E+04</totfact>
</mgrwt>
</event>
<event>
 7    0  0.4775379E-002  0.4661923E+03  0.7546771E-02  0.1023000E+00
         21   -1    0    0  502  501  0.00000000000E+00  0.00000000000E+00  0.12079886338E+03  0.12079886338E+03  0.00000000000E+00 0.  1.
         21   -1    0    0  501  502 -0.00000000000E+00 -0.00000000000E+00 -0.44978751147E+03  0.44978751147E+03  0.00000000000E+00 0.  1.
      99926    2    1    2    0    0  0.17763568394E-14  0.00000000000E+00 -0.32898864808E+03  0.57058637485E+03  0.46619232147E+03 0.  0.
      99925    2    3    3    0    0 -0.12061863266E+02  0.11213015751E+03 -0.26632763841E+03  0.39088503651E+03  0.26294874028E+03 0.  0.
         25    1    4    4    0    0  0.67203672688E+01  0.93163855867E+02 -0.16966784063E+03  0.23056311851E+03  0.12509000000E+03 0.  0.
         25    1    4    4    0    0 -0.18782230535E+02  0.18966301643E+02 -0.96659797781E+02  0.16032191799E+03  0.12509000000E+03 0.  0.
         25    1    3    3    0    0  0.12061863266E+02 -0.11213015751E+03 -0.62661009675E+02  0.17970133834E+03  0.12509000000E+03 0.  0.
<mgrwt>
<rscale>  2 0.46619232E+03</rscale>
<asrwt>0</asrwt>
<pdfrwt beam="1">  1       21 0.17764539E-01 0.46619232E+03</pdfrwt>
<pdfrwt beam="2">  1       21 0.66145222E-01 0.46619232E+03</pdfrwt>
<totfact> 0.55452826E+04</totfact>
</mgrwt>
</event>
<event>
 7    0  0.4775379E-002  0.4530314E+03  0.7546771E-02  0.1026822E+00
         21   -1    0    0  502  501  0.00000000000E+00  0.00000000000E+00  0.21520685192E+03  0.21520685192E+03  0.00000000000E+00 0. -1.
         21   -1    0    0  501  502 -0.00000000000E+00 -0.00000000000E+00 -0.23841881671E+03  0.23841881671E+03  0.00000000000E+00 0. -1.
      99926    2    1    2    0    0  0.00000000000E+00 -0.14210854715E-13 -0.23211964786E+02  0.45362566863E+03  0.45303140281E+03 0.  0.
      99925    2    3    3    0    0 -0.43030693710E+02 -0.10258722328E+03 -0.17051386546E+02  0.28611077435E+03  0.26304533152E+03 0.  0.
         25    1    4    4    0    0 -0.30932731554E+02 -0.65909521625E+02 -0.46311412797E+02  0.15196431811E+03  0.12509000000E+03 0.  0.
         25    1    3    3    0    0  0.43030693710E+02  0.10258722328E+03 -0.61605782392E+01  0.16751489428E+03  0.12509000000E+03 0.  0.
         25    1    4    4    0    0 -0.12097962156E+02 -0.36677701659E+02  0.29260026250E+02  0.13414645625E+03  0.12509000000E+03 0.  0.
<mgrwt>
<rscale>  2 0.45303140E+03</rscale>
<asrwt>0</asrwt>
<pdfrwt beam="1">  1       21 0.31648066E-01 0.45303140E+03</pdfrwt>
<pdfrwt beam="2">  1       21 0.35061591E-01 0.45303140E+03</pdfrwt>
<totfact> 0.69735547E+04</totfact>
</mgrwt>
</event>
<event>
 7    0  0.4775379E-002  0.4723447E+03  0.7546771E-02  0.1021261E+00
         21   -1    0    0  502  501  0.00000000000E+00  0.00000000000E+00  0.12704370774E+04  0.12704370774E+04  0.00000000000E+00 0.  1.
         21   -1    0    0  501  502 -0.00000000000E+00 -0.00000000000E+00 -0.43904088059E+02  0.43904088059E+02  0.00000000000E+00 0.  1.
      99926    2    1    2    0    0  0.00000000000E+00  0.00000000000E+00  0.12265329893E+04  0.13143411654E+04  0.47234471022E+03 0.  0.
      99925    2    3    3    0    0 -0.39820599742E+02 -0.12061507377E+03  0.82215096078E+03  0.87240677066E+03  0.26273122196E+03 0.  0.
         25    1    3    3    0    0  0.39820599742E+02  0.12061507377E+03  0.40438202854E+03  0.44193439478E+03  0.12509000000E+03 0.  0.
         25    1    4    4    0    0  0.77948749444E+01 -0.80257255953E+02  0.35927400551E+03  0.38887955249E+03  0.12509000000E+03 0.  0.
         25    1    4    4    0    0 -0.47615474687E+02 -0.40357817821E+02  0.46287695527E+03  0.48352721817E+03  0.12509000000E+03 0.  0.
<mgrwt>
<rscale>  2 0.47234471E+03</rscale>
<asrwt>0</asrwt>
<pdfrwt beam="1">  1       21 0.18682896E+00 0.47234471E+03</pdfrwt>
<pdfrwt beam="2">  1       21 0.64564843E-02 0.47234471E+03</pdfrwt>
<totfact> 0.25134611E+04</totfact>
</mgrwt>
</event>
<event>
 7    0  0.4775379E-002  0.4605339E+03  0.7546771E-02  0.1024626E+00
         21   -1    0    0  502  501  0.00000000000E+00  0.00000000000E+00  0.53667452359E+03  0.53667452359E+03  0.00000000000E+00 0.  1.
         21   -1    0    0  501  502 -0.00000000000E+00 -0.00000000000E+00 -0.98798926747E+02  0.98798926747E+02  0.00000000000E+00 0.  1.
      99926    2    1    2    0    0  0.14210854715E-13  0.00000000000E+00  0.43787559685E+03  0.63547345034E+03  0.46053389427E+03 0.  0.
      99925    2    3    3    0    0  0.11430629751E+03  0.18228329886E+02  0.24152751540E+03  0.37547676027E+03  0.26315215209E+03 0.  0.
         25    1    4    4    0    0  0.71337272634E+02  0.48183546579E+02  0.12985854308E+03  0.19980342824E+03  0.12509000000E+03 0.  0.
         25    1    4    4    0    0  0.42969024873E+02 -0.29955216692E+02  0.11166897233E+03  0.17567333203E+03  0.12509000000E+03 0.  0.
         25    1    3    3    0    0 -0.11430629751E+03 -0.18228329886E+02  0.19634808144E+03  0.25999669007E+03  0.12509000000E+03 0.  0.
<mgrwt>
<rscale>  2 0.46053389E+03</rscale>
<asrwt>0</asrwt>
<pdfrwt beam="1">  1       21 0.78922723E-01 0.46053389E+03</pdfrwt>
<pdfrwt beam="2">  1       21 0.14529254E-01 0.46053389E+03</pdfrwt>
<totfact> 0.54142293E+04</totfact>
</mgrwt>
</event>
<event>
 7    0  0.4775379E-002  0.4514297E+03  0.7546771E-02  0.1027297E+00
         21   -1    0    0  502  501  0.00000000000E+00  0.00000000000E+00  0.12473256753E+03  0.12473256753E+03  0.00000000000E+00 0. -1.
         21   -1    0    0  501  502 -0.00000000000E+00 -0.00000000000E+00 -0.40845144956E+03  0.40845144956E+03  0.00000000000E+00 0. -1.
      99926    2    1    2    0    0 -0.14210854715E-13 -0.35527136788E-14 -0.28371888203E+03  0.53318401709E+03  0.45142971996E+03 0.  0.
      99925    2    3    3    0    0  0.86771147117E+02  0.17124731019E+02 -0.10231413347E+03  0.29574417359E+03  0.26300940272E+03 0.  0.
         25    1    3    3    0    0 -0.86771147117E+02 -0.17124731019E+02 -0.18140474855E+03  0.23743984350E+03  0.12509000000E+03 0.  0.
         25    1    4    4    0    0  0.81044027310E+02  0.21420087847E+02 -0.39965485909E+02  0.15579378258E+03  0.12509000000E+03 0.  0.
         25    1    4    4    0    0  0.57271198069E+01 -0.42953568283E+01 -0.62348647563E+02  0.13995039101E+03  0.12509000000E+03 0.  0.
<mgrwt>
<rscale>  2 0.45142972E+03</rscale>
<asrwt>0</asrwt>
<pdfrwt beam="1">  1       21 0.18343025E-01 0.45142972E+03</pdfrwt>
<pdfrwt beam="2">  1       21 0.60066389E-01 0.45142972E+03</pdfrwt>
<totfact> 0.64803591E+04</totfact>
</mgrwt>
</event>
<event>
 7    0  0.4775379E-002  0.4594434E+03  0.7546771E-02  0.1024943E+00
         21   -1    0    0  502  501  0.00000000000E+00  0.00000000000E+00  0.34230161485E+03  0.34230161485E+03  0.00000000000E+00 0.  1.
         21   -1    0    0  501  502 -0.00000000000E+00 -0.00000000000E+00 -0.15416832156E+03  0.15416832156E+03  0.00000000000E+00 0.  1.
      99926    2    1    2    0    0 -0.14210854715E-13 -0.14210854715E-13  0.18813329329E+03  0.49646993641E+03  0.45944342602E+03 0.  0.
      99925    2    3    3    0    0 -0.96814175148E+02 -0.66139580317E+02  0.11554767364E+03  0.31028828083E+03  0.26302114695E+03 0.  0.
         25    1    4    4    0    0 -0.12542622561E+02 -0.50631402106E+02  0.42887556181E+02  0.14215381400E+03  0.12509000000E+03 0.  0.
         25    1    3    3    0    0  0.96814175148E+02  0.66139580317E+02  0.72585619657E+02  0.18618165558E+03  0.12509000000E+03 0.  0.
         25    1    4    4    0    0 -0.84271552587E+02 -0.15508178211E+02  0.72660117456E+02  0.16813446683E+03  0.12509000000E+03 0.  0.
<mgrwt>
<rscale>  2 0.45944343E+03</rscale>
<asrwt>0</asrwt>
<pdfrwt beam="1">  1       21 0.50338473E-01 0.45944343E+03</pdfrwt>
<pdfrwt beam="2">  1       21 0.22671812E-01 0.45944343E+03</pdfrwt>
<totfact> 0.63258345E+04</totfact>
</mgrwt>
</event>
<event>
 7    0  0.4775379E-002  0.4545147E+03  0.7546771E-02  0.1026384E+00
         21   -1    0    0  502  501  0.00000000000E+00  0.00000000000E+00  0.38171548161E+03  0.38171548161E+03  0.00000000000E+00 0.  1.
         21   -1    0    0  501  502 -0.00000000000E+00 -0.00000000000E+00 -0.13529949129E+03  0.13529949129E+03  0.00000000000E+00 0.  1.
      99926    2    1    2    0    0  0.71054273576E-14 -0.14210854715E-13  0.24641599033E+03  0.51701497290E+03  0.45451473234E+03 0.  0.
      99925    2    3    3    0    0  0.34391835803E+02 -0.10361103285E+03  0.18799371576E+03  0.34100726067E+03  0.26272851037E+03 0.  0.
         25    1    4    4    0    0  0.22458398570E+02 -0.36739608370E+02  0.46299860356E+02  0.14016191943E+03  0.12509000000E+03 0.  0.
         25    1    3    3    0    0 -0.34391835803E+02  0.10361103285E+03  0.58422274565E+02  0.17600771223E+03  0.12509000000E+03 0.  0.
         25    1    4    4    0    0  0.11933437233E+02 -0.66871424485E+02  0.14169385541E+03  0.20084534124E+03  0.12509000000E+03 0.  0.
<mgrwt>
<rscale>  2 0.45451473E+03</rscale>
<asrwt>0</asrwt>
<pdfrwt beam="1">  1       21 0.56134630E-01 0.45451473E+03</pdfrwt>
<pdfrwt beam="2">  1       21 0.19896984E-01 0.45451473E+03</pdfrwt>
<totfact> 0.64338471E+04</totfact>
</mgrwt>
</event>
<event>
 7    0  0.4775379E-002  0.5400187E+03  0.7546771E-02  0.1003831E+00
         21   -1    0    0  502  501  0.00000000000E+00  0.00000000000E+00  0.10380652339E+03  0.10380652339E+03  0.00000000000E+00 0.  1.
         21   -1    0    0  501  502 -0.00000000000E+00 -0.00000000000E+00 -0.70231651713E+03  0.70231651713E+03  0.00000000000E+00 0.  1.
      99926    2    1    2    0    0  0.00000000000E+00  0.14210854715E-13 -0.59850999374E+03  0.80612304052E+03  0.54001865140E+03 0.  0.
      99925    2    3    3    0    0  0.11876956810E+03  0.95072362158E+02 -0.20472175952E+03  0.36582581607E+03  0.26224523738E+03 0.  0.
         25    1    4    4    0    0  0.37851113506E+02  0.19606884118E+02 -0.61255426943E+02  0.14566012539E+03  0.12509000000E+03 0.  0.
         25    1    3    3    0    0 -0.11876956810E+03 -0.95072362158E+02 -0.39378823422E+03  0.44029722445E+03  0.12509000000E+03 0.  0.
         25    1    4    4    0    0  0.80918454595E+02  0.75465478040E+02 -0.14346633258E+03  0.22016569068E+03  0.12509000000E+03 0.  0.
<mgrwt>
<rscale>  2 0.54001865E+03</rscale>
<asrwt>0</asrwt>
<pdfrwt beam="1">  1       21 0.15265665E-01 0.54001865E+03</pdfrwt>
<pdfrwt beam="2">  1       21 0.10328184E+00 0.54001865E+03</pdfrwt>
<totfact> 0.25606509E+04</totfact>
</mgrwt>
</event>
<event>
 7    0  0.4775379E-002  0.4496699E+03  0.7546771E-02  0.1027821E+00
         21   -1    0    0  502  501  0.00000000000E+00  0.00000000000E+00  0.18126591736E+03  0.18126591736E+03  0.00000000000E+00 0. -1.
         21   -1    0    0  501  502 -0.00000000000E+00 -0.00000000000E+00 -0.27887626803E+03  0.27887626803E+03  0.00000000000E+00 0. -1.
      99926    2    1    2    0    0  0.71054273576E-14  0.14210854715E-13 -0.97610350666E+02  0.46014218539E+03  0.44966993475E+03 0.  0.
      99925    2    3    3    0    0  0.32987347152E+02  0.90990820622E+02 -0.11097984991E+03  0.30141680582E+03  0.26299823048E+03 0.  0.
         25    1    4    4    0    0  0.33328996813E+02  0.84206692498E+02 -0.70519605849E+02  0.16977076309E+03  0.12509000000E+03 0.  0.
         25    1    3    3    0    0 -0.32987347152E+02 -0.90990820622E+02  0.13369499240E+02  0.15872537957E+03  0.12509000000E+03 0.  0.
         25    1    4    4    0    0 -0.34164966146E+00  0.67841281236E+01 -0.40460244058E+02  0.13164604274E+03  0.12509000000E+03 0.  0.
<mgrwt>
<rscale>  2 0.44966993E+03</rscale>
<asrwt>0</asrwt>
<pdfrwt beam="1">  1       21 0.26656753E-01 0.44966993E+03</pdfrwt>
<pdfrwt beam="2">  1       21 0.41011216E-01 0.44966993E+03</pdfrwt>
<totfact> 0.71136750E+04</totfact>
</mgrwt>
</event>
<event>
 7    0  0.4775379E-002  0.4594744E+03  0.7546771E-02  0.1024934E+00
         21   -1    0    0  502  501  0.00000000000E+00  0.00000000000E+00  0.38566284164E+03  0.38566284164E+03  0.00000000000E+00 0.  1.
         21   -1    0    0  501  502 -0.00000000000E+00 -0.00000000000E+00 -0.13685314546E+03  0.13685314546E+03  0.00000000000E+00 0.  1.
      99926    2    1    2    0    0  0.00000000000E+00 -0.14210854715E-13  0.24880969619E+03  0.52251598710E+03  0.45947436475E+03 0.  0.
      99925    2    3    3    0    0 -0.33718514301E+02  0.10346830724E+03  0.20580786630E+03  0.35122881805E+03  0.26298702628E+03 0.  0.
         25    1    4    4    0    0 -0.47856481881E+02  0.38316978640E+02  0.12972688906E+03  0.19035495149E+03  0.12509000000E+03 0.  0.
         25    1    3    3    0    0  0.33718514301E+02 -0.10346830724E+03  0.43001829890E+02  0.17128716906E+03  0.12509000000E+03 0.  0.
         25    1    4    4    0    0  0.14137967580E+02  0.65151328597E+02  0.76080977232E+02  0.16087386656E+03  0.12509000000E+03 0.  0.
<mgrwt>
<rscale>  2 0.45947436E+03</rscale>
<asrwt>0</asrwt>
<pdfrwt beam="1">  1       21 0.56715123E-01 0.45947436E+03</pdfrwt>
<pdfrwt beam="2">  1       21 0.20125463E-01 0.45947436E+03</pdfrwt>
<totfact> 0.61503681E+04</totfact>
</mgrwt>
</event>
<event>
 7    0  0.4775379E-002  0.3966465E+03  0.7546771E-02  0.1044947E+00
         21   -1    0    0  502  501  0.00000000000E+00  0.00000000000E+00  0.32900580291E+03  0.32900580291E+03  0.00000000000E+00 0.  1.
         21   -1    0    0  501  502 -0.00000000000E+00 -0.00000000000E+00 -0.11954838667E+03  0.11954838667E+03  0.00000000000E+00 0.  1.
      99926    2    1    2    0    0  0.71054273576E-14  0.35527136788E-14  0.20945741624E+03  0.44855418959E+03  0.39664650733E+03 0.  0.
      99925    2    3    3    0    0 -0.32323838196E+02  0.17060231912E+02  0.14781832027E+03  0.30439189118E+03  0.26356836984E+03 0.  0.
         25    1    4    4    0    0 -0.54467147661E+02 -0.64783368523E+01  0.68666786308E+02  0.15287666488E+03  0.12509000000E+03 0.  0.
         25    1    3    3    0    0  0.32323838196E+02 -0.17060231912E+02  0.61639095968E+02  0.14416229840E+03  0.12509000000E+03 0.  0.
         25    1    4    4    0    0  0.22143309466E+02  0.23538568764E+02  0.79151533963E+02  0.15151522631E+03  0.12509000000E+03 0.  0.
<mgrwt>
<rscale>  2 0.39664651E+03</rscale>
<asrwt>0</asrwt>
<pdfrwt beam="1">  1       21 0.48383206E-01 0.39664651E+03</pdfrwt>
<pdfrwt beam="2">  1       21 0.17580645E-01 0.39664651E+03</pdfrwt>
<totfact> 0.11300757E+05</totfact>
</mgrwt>
</event>
<event>
 7    0  0.4775379E-002  0.4529580E+03  0.7546771E-02  0.1026844E+00
         21   -1    0    0  502  501  0.00000000000E+00  0.00000000000E+00  0.45184273859E+03  0.45184273859E+03  0.00000000000E+00 0.  1.
         21   -1    0    0  501  502 -0.00000000000E+00 -0.00000000000E+00 -0.11351898773E+03  0.11351898773E+03  0.00000000000E+00 0.  1.
      99926    2    1    2    0    0 -0.14210854715E-13  0.00000000000E+00  0.33832375086E+03  0.56536172632E+03  0.45295796847E+03 0.  0.
      99925    2    3    3    0    0 -0.92165498362E+02  0.47410243304E+02  0.16291793213E+03  0.32628659253E+03  0.26301801762E+03 0.  0.
         25    1    4    4    0    0 -0.59751375699E+02  0.48930986387E+02  0.51851556981E+02  0.15588637012E+03  0.12509000000E+03 0.  0.
         25    1    3    3    0    0  0.92165498362E+02 -0.47410243304E+02  0.17540581872E+03  0.23907513380E+03  0.12509000000E+03 0.  0.
         25    1    4    4    0    0 -0.32414122664E+02 -0.15207430833E+01  0.11106637515E+03  0.17040022241E+03  0.12509000000E+03 0.  0.
<mgrwt>
<rscale>  2 0.45295797E+03</rscale>
<asrwt>0</asrwt>
<pdfrwt beam="1">  1       21 0.66447461E-01 0.45295797E+03</pdfrwt>
<pdfrwt beam="2">  1       21 0.16693969E-01 0.45295797E+03</pdfrwt>
<totfact> 0.61855592E+04</totfact>
</mgrwt>
</event>
<event>
 7    0  0.4775379E-002  0.4542923E+03  0.7546771E-02  0.1026450E+00
         21   -1    0    0  502  501  0.00000000000E+00  0.00000000000E+00  0.83521817791E+02  0.83521817791E+02  0.00000000000E+00 0.  1.
         21   -1    0    0  501  502 -0.00000000000E+00 -0.00000000000E+00 -0.61774719963E+03  0.61774719963E+03  0.00000000000E+00 0.  1.
      99926    2    1    2    0    0 -0.71054273576E-14 -0.71054273576E-14 -0.53422538184E+03  0.70126901742E+03  0.45429228058E+03 0.  0.
      99925    2    3    3    0    0  0.60445072384E+02 -0.48883890178E+02 -0.21072825868E+03  0.34582403112E+03  0.26295364610E+03 0.  0.
         25    1    4    4    0    0  0.62588350791E+01  0.16102132889E+01 -0.12548763168E+03  0.17730318555E+03  0.12509000000E+03 0.  0.
         25    1    4    4    0    0  0.54186237305E+02 -0.50494103467E+02 -0.85240627000E+02  0.16852084556E+03  0.12509000000E+03 0.  0.
         25    1    3    3    0    0 -0.60445072384E+02  0.48883890178E+02 -0.32349712316E+03  0.35544498631E+03  0.12509000000E+03 0.  0.
<mgrwt>
<rscale>  2 0.45429228E+03</rscale>
<asrwt>0</asrwt>
<pdfrwt beam="1">  1       21 0.12282621E-01 0.45429228E+03</pdfrwt>
<pdfrwt beam="2">  1       21 0.90845172E-01 0.45429228E+03</pdfrwt>
<totfact> 0.53129391E+04</totfact>
</mgrwt>
</event>
<event>
 7    0  0.4775379E-002  0.4467874E+03  0.7546771E-02  0.1028684E+00
         21   -1    0    0  502  501  0.00000000000E+00  0.00000000000E+00  0.16860638944E+03  0.16860638944E+03  0.00000000000E+00 0. -1.
         21   -1    0    0  501  502 -0.00000000000E+00 -0.00000000000E+00 -0.29598373475E+03  0.29598373475E+03  0.00000000000E+00 0. -1.
      99926    2    1    2    0    0 -0.14210854715E-13 -0.35527136788E-14 -0.12737734532E+03  0.46459012419E+03  0.44678741633E+03 0.  0.
      99925    2    3    3    0    0  0.73754462399E+02  0.83431960557E+01 -0.29148040551E+01  0.27315407241E+03  0.26285988957E+03 0.  0.
         25    1    4    4    0    0  0.69595315057E+02 -0.16501251160E+02  0.12447854693E+02  0.14463145009E+03  0.12509000000E+03 0.  0.
         25    1    4    4    0    0  0.41591473416E+01  0.24844447216E+02 -0.15362658748E+02  0.12852262232E+03  0.12509000000E+03 0.  0.
         25    1    3    3    0    0 -0.73754462399E+02 -0.83431960557E+01 -0.12446254126E+03  0.19143605178E+03  0.12509000000E+03 0.  0.
<mgrwt>
<rscale>  2 0.44678742E+03</rscale>
<asrwt>0</asrwt>
<pdfrwt beam="1">  1       21 0.24795058E-01 0.44678742E+03</pdfrwt>
<pdfrwt beam="2">  1       21 0.43527019E-01 0.44678742E+03</pdfrwt>
<totfact> 0.72446471E+04</totfact>
</mgrwt>
</event>
<event>
 7    0  0.4775379E-002  0.4592714E+03  0.7546771E-02  0.1024993E+00
         21   -1    0    0  502  501  0.00000000000E+00  0.00000000000E+00  0.24661123255E+03  0.24661123255E+03  0.00000000000E+00 0. -1.
         21   -1    0    0  501  502 -0.00000000000E+00 -0.00000000000E+00 -0.21382863628E+03  0.21382863628E+03  0.00000000000E+00 0. -1.
      99926    2    1    2    0    0  0.00000000000E+00  0.00000000000E+00  0.32782596276E+02  0.46043986883E+03  0.45927135137E+03 0.  0.
      99925    2    3    3    0    0  0.93820273197E+02 -0.69803442033E+02  0.21523933059E+02  0.28883267266E+03  0.26322285029E+03 0.  0.
         25    1    4    4    0    0  0.72726874051E+02 -0.87259360777E+01  0.29040197871E+02  0.14783836228E+03  0.12509000000E+03 0.  0.
         25    1    3    3    0    0 -0.93820273197E+02  0.69803442033E+02  0.11258663218E+02  0.17160719618E+03  0.12509000000E+03 0.  0.
         25    1    4    4    0    0  0.21093399147E+02 -0.61077505955E+02 -0.75162648128E+01  0.14099431037E+03  0.12509000000E+03 0.  0.
<mgrwt>
<rscale>  2 0.45927135E+03</rscale>
<asrwt>0</asrwt>
<pdfrwt beam="1">  1       21 0.36266358E-01 0.45927135E+03</pdfrwt>
<pdfrwt beam="2">  1       21 0.31445387E-01 0.45927135E+03</pdfrwt>
<totfact> 0.65875308E+04</totfact>
</mgrwt>
</event>
<event>
 7    0  0.4775379E-002  0.4559491E+03  0.7546771E-02  0.1025963E+00
         21   -1    0    0  502  501  0.00000000000E+00  0.00000000000E+00  0.28285505179E+02  0.28285505179E+02  0.00000000000E+00 0.  1.
         21   -1    0    0  501  502 -0.00000000000E+00 -0.00000000000E+00 -0.18374216189E+04  0.18374216189E+04  0.00000000000E+00 0.  1.
      99926    2    1    2    0    0  0.00000000000E+00  0.00000000000E+00 -0.18091361137E+04  0.18657071241E+04  0.45594911435E+03 0.  0.
      99925    2    3    3    0    0 -0.17177131267E+02  0.10697942984E+03 -0.99027145210E+03  0.10302871732E+04  0.26289628769E+03 0.  0.
         25    1    4    4    0    0 -0.28504531372E+02  0.34849254084E+02 -0.36495644304E+03  0.38841690518E+03  0.12509000000E+03 0.  0.
         25    1    4    4    0    0  0.11327400105E+02  0.72130175757E+02 -0.62531500906E+03  0.64187026797E+03  0.12509000000E+03 0.  0.
         25    1    3    3    0    0  0.17177131267E+02 -0.10697942984E+03 -0.81886466163E+03  0.83541995093E+03  0.12509000000E+03 0.  0.
<mgrwt>
<rscale>  2 0.45594911E+03</rscale>
<asrwt>0</asrwt>
<pdfrwt beam="1">  1       21 0.41596332E-02 0.45594911E+03</pdfrwt>
<pdfrwt beam="2">  1       21 0.27020906E+00 0.45594911E+03</pdfrwt>
<totfact> 0.15911342E+04</totfact>
</mgrwt>
</event>
<event>
 7    0  0.4775379E-002  0.4537840E+03  0.7546771E-02  0.1026600E+00
         21   -1    0    0  502  501  0.00000000000E+00  0.00000000000E+00  0.38561917259E+03  0.38561917259E+03  0.00000000000E+00 0.  1.
         21   -1    0    0  501  502 -0.00000000000E+00 -0.00000000000E+00 -0.13349950876E+03  0.13349950876E+03  0.00000000000E+00 0.  1.
      99926    2    1    2    0    0  0.00000000000E+00  0.00000000000E+00  0.25211966383E+03  0.51911868135E+03  0.45378395789E+03 0.  0.
      99925    2    3    3    0    0 -0.25765753769E+02 -0.23522505284E+02  0.37359424778E+02  0.26814726724E+03  0.26323002866E+03 0.  0.
         25    1    4    4    0    0 -0.22520925354E+02  0.26066275354E+02  0.56853967469E+01  0.12987099224E+03  0.12509000000E+03 0.  0.
         25    1    4    4    0    0 -0.32448284149E+01 -0.49588780637E+02  0.31674028031E+02  0.13827627500E+03  0.12509000000E+03 0.  0.
         25    1    3    3    0    0  0.25765753769E+02  0.23522505284E+02  0.21476023905E+03  0.25097141410E+03  0.12509000000E+03 0.  0.
<mgrwt>
<rscale>  2 0.45378396E+03</rscale>
<asrwt>0</asrwt>
<pdfrwt beam="1">  1       21 0.56708702E-01 0.45378396E+03</pdfrwt>
<pdfrwt beam="2">  1       21 0.19632281E-01 0.45378396E+03</pdfrwt>
<totfact> 0.64568051E+04</totfact>
</mgrwt>
</event>
<event>
 7    0  0.4775379E-002  0.4566387E+03  0.7546771E-02  0.1025761E+00
         21   -1    0    0  502  501  0.00000000000E+00  0.00000000000E+00  0.93283227935E+03  0.93283227935E+03  0.00000000000E+00 0. -1.
         21   -1    0    0  501  502 -0.00000000000E+00 -0.00000000000E+00 -0.55883285601E+02  0.55883285601E+02  0.00000000000E+00 0. -1.
      99926    2    1    2    0    0  0.14210854715E-13  0.00000000000E+00  0.87694899375E+03  0.98871556495E+03  0.45663873110E+03 0.  0.
      99925    2    3    3    0    0  0.91130651405E+02  0.13373346738E+02  0.69890196564E+03  0.75242782861E+03  0.26305900034E+03 0.  0.
         25    1    3    3    0    0 -0.91130651405E+02 -0.13373346738E+02  0.17804702811E+03  0.23628773634E+03  0.12509000000E+03 0.  0.
         25    1    4    4    0    0  0.73336925858E+01  0.18799600679E+02  0.35639914683E+03  0.37825265100E+03  0.12509000000E+03 0.  0.
         25    1    4    4    0    0  0.83796958819E+02 -0.54262539404E+01  0.34250281882E+03  0.37417517760E+03  0.12509000000E+03 0.  0.
<mgrwt>
<rscale>  2 0.45663873E+03</rscale>
<asrwt>0</asrwt>
<pdfrwt beam="1">  1       21 0.13718121E+00 0.45663873E+03</pdfrwt>
<pdfrwt beam="2">  1       21 0.82181308E-02 0.45663873E+03</pdfrwt>
<totfact> 0.39105558E+04</totfact>
</mgrwt>
</event>
<event>
 7    0  0.4775379E-002  0.4184645E+03  0.7546771E-02  0.1037567E+00
         21   -1    0    0  502  501  0.00000000000E+00  0.00000000000E+00  0.97852500114E+02  0.97852500114E+02  0.00000000000E+00 0. -1.
         21   -1    0    0  501  502 -0.00000000000E+00 -0.00000000000E+00 -0.44738907616E+03  0.44738907616E+03  0.00000000000E+00 0. -1.
      99926    2    1    2    0    0  0.00000000000E+00  0.00000000000E+00 -0.34953657605E+03  0.54524157628E+03  0.41846452479E+03 0.  0.
      99925    2    3    3    0    0  0.53136086599E+02  0.36469393445E+02 -0.27832129582E+03  0.38753113085E+03  0.26184761468E+03 0.  0.
         25    1    4    4    0    0  0.34928553787E+02 -0.18002117817E+02 -0.11998733282E+03  0.17773167487E+03  0.12509000000E+03 0.  0.
         25    1    3    3    0    0 -0.53136086599E+02 -0.36469393445E+02 -0.71215280228E+02  0.15771044542E+03  0.12509000000E+03 0.  0.
         25    1    4    4    0    0  0.18207532812E+02  0.54471511263E+02 -0.15833396300E+03  0.20979945598E+03  0.12509000000E+03 0.  0.
<mgrwt>
<rscale>  2 0.41846452E+03</rscale>
<asrwt>0</asrwt>
<pdfrwt beam="1">  1       21 0.14390073E-01 0.41846452E+03</pdfrwt>
<pdfrwt beam="2">  1       21 0.65792512E-01 0.41846452E+03</pdfrwt>
<totfact> 0.83942607E+04</totfact>
</mgrwt>
</event>
<event>
 7    0  0.4775379E-002  0.4415431E+03  0.7546771E-02  0.1030274E+00
         21   -1    0    0  502  501  0.00000000000E+00  0.00000000000E+00  0.23292459857E+03  0.23292459857E+03  0.00000000000E+00 0.  1.
         21   -1    0    0  501  502 -0.00000000000E+00 -0.00000000000E+00 -0.20925256431E+03  0.20925256431E+03  0.00000000000E+00 0.  1.
      99926    2    1    2    0    0  0.00000000000E+00  0.00000000000E+00  0.23672034264E+02  0.44217716288E+03  0.44154306490E+03 0.  0.
      99925    2    3    3    0    0  0.99729117384E+02 -0.87165595490E+01  0.19228322610E+02  0.28189887384E+03  0.26282193861E+03 0.  0.
         25    1    3    3    0    0 -0.99729117384E+02  0.87165595490E+01  0.44437116538E+01  0.16027828904E+03  0.12509000000E+03 0.  0.
         25    1    4    4    0    0  0.26425784778E+02 -0.10526253500E+02  0.42300444686E+02  0.13507760671E+03  0.12509000000E+03 0.  0.
         25    1    4    4    0    0  0.73303332605E+02  0.18096939510E+01 -0.23072122076E+02  0.14682126713E+03  0.12509000000E+03 0.  0.
<mgrwt>
<rscale>  2 0.44154306E+03</rscale>
<asrwt>0</asrwt>
<pdfrwt beam="1">  1       21 0.34253617E-01 0.44154306E+03</pdfrwt>
<pdfrwt beam="2">  1       21 0.30772436E-01 0.44154306E+03</pdfrwt>
<totfact> 0.77487197E+04</totfact>
</mgrwt>
</event>
<event>
 7    0  0.4775379E-002  0.4571542E+03  0.7546771E-02  0.1025610E+00
         21   -1    0    0  502  501  0.00000000000E+00  0.00000000000E+00  0.51860128876E+03  0.51860128876E+03  0.00000000000E+00 0. -1.
         21   -1    0    0  501  502 -0.00000000000E+00 -0.00000000000E+00 -0.10074694327E+03  0.10074694327E+03  0.00000000000E+00 0. -1.
      99926    2    1    2    0    0 -0.35527136788E-14  0.00000000000E+00  0.41785434549E+03  0.61934823203E+03  0.45715421738E+03 0.  0.
      99925    2    3    3    0    0 -0.25891625175E+02  0.10605744499E+03  0.21250884690E+03  0.35527846893E+03  0.26295289043E+03 0.  0.
         25    1    4    4    0    0 -0.31339723226E+02  0.64153220588E+02  0.67184590910E+02  0.15893108985E+03  0.12509000000E+03 0.  0.
         25    1    3    3    0    0  0.25891625175E+02 -0.10605744499E+03  0.20534549860E+03  0.26406976310E+03  0.12509000000E+03 0.  0.
         25    1    4    4    0    0  0.54480980510E+01  0.41904224399E+02  0.14532425599E+03  0.19634737908E+03  0.12509000000E+03 0.  0.
<mgrwt>
<rscale>  2 0.45715422E+03</rscale>
<asrwt>0</asrwt>
<pdfrwt beam="1">  1       21 0.76264894E-01 0.45715422E+03</pdfrwt>
<pdfrwt beam="2">  1       21 0.14815727E-01 0.45715422E+03</pdfrwt>
<totfact> 0.56534970E+04</totfact>
</mgrwt>
</event>
<event>
 7    0  0.4775379E-002  0.4790026E+03  0.7546771E-02  0.1019410E+00
         21   -1    0    0  502  501  0.00000000000E+00  0.00000000000E+00  0.26128950959E+03  0.26128950959E+03  0.00000000000E+00 0.  1.
         21   -1    0    0  501  502 -0.00000000000E+00 -0.00000000000E+00 -0.21952992747E+03  0.21952992747E+03  0.00000000000E+00 0.  1.
      99926    2    1    2    0    0  0.00000000000E+00 -0.26645352591E-14  0.41759582114E+02  0.48081943706E+03  0.47900257657E+03 0.  0.
      99925    2    3    3    0    0 -0.13381728055E+03 -0.63188283870E+01  0.16258043793E+02  0.29576585368E+03  0.26318458170E+03 0.  0.
         25    1    4    4    0    0 -0.54683659270E+02 -0.42406982976E+02  0.67334663725E+01  0.14311359986E+03  0.12509000000E+03 0.  0.
         25    1    4    4    0    0 -0.79133621285E+02  0.36088154589E+02  0.95245774201E+01  0.15265225381E+03  0.12509000000E+03 0.  0.
         25    1    3    3    0    0  0.13381728055E+03  0.63188283870E+01  0.25501538321E+02  0.18505358339E+03  0.12509000000E+03 0.  0.
<mgrwt>
<rscale>  2 0.47900258E+03</rscale>
<asrwt>0</asrwt>
<pdfrwt beam="1">  1       21 0.38424928E-01 0.47900258E+03</pdfrwt>
<pdfrwt beam="2">  1       21 0.32283813E-01 0.47900258E+03</pdfrwt>
<totfact> 0.55316954E+04</totfact>
</mgrwt>
</event>
<event>
 7    0  0.4775379E-002  0.4549611E+03  0.7546771E-02  0.1026253E+00
         21   -1    0    0  502  501  0.00000000000E+00  0.00000000000E+00  0.59472090439E+03  0.59472090439E+03  0.00000000000E+00 0. -1.
         21   -1    0    0  501  502 -0.00000000000E+00 -0.00000000000E+00 -0.87011224717E+02  0.87011224717E+02  0.00000000000E+00 0. -1.
      99926    2    1    2    0    0  0.00000000000E+00 -0.17763568394E-14  0.50770967967E+03  0.68173212910E+03  0.45496107199E+03 0.  0.
      99925    2    3    3    0    0 -0.92722801373E+02  0.58326806233E+01  0.22225657696E+03  0.35652062869E+03  0.26282586368E+03 0.  0.
         25    1    3    3    0    0  0.92722801373E+02 -0.58326806233E+01  0.28545310271E+03  0.32521150042E+03  0.12509000000E+03 0.  0.
         25    1    4    4    0    0 -0.79257759572E+02  0.15706399751E+02  0.14871362696E+03  0.21045601533E+03  0.12509000000E+03 0.  0.
         25    1    4    4    0    0 -0.13465041801E+02 -0.98737191275E+01  0.73542950004E+02  0.14606461336E+03  0.12509000000E+03 0.  0.
<mgrwt>
<rscale>  2 0.45496107E+03</rscale>
<asrwt>0</asrwt>
<pdfrwt beam="1">  1       21 0.87458955E-01 0.45496107E+03</pdfrwt>
<pdfrwt beam="2">  1       21 0.12795769E-01 0.45496107E+03</pdfrwt>
<totfact> 0.53922926E+04</totfact>
</mgrwt>
</event>
<event>
 7    0  0.4775379E-002  0.4504724E+03  0.7546771E-02  0.1027581E+00
         21   -1    0    0  502  501  0.00000000000E+00  0.00000000000E+00  0.21796820833E+03  0.21796820833E+03  0.00000000000E+00 0.  1.
         21   -1    0    0  501  502 -0.00000000000E+00 -0.00000000000E+00 -0.23274649488E+03  0.23274649488E+03  0.00000000000E+00 0.  1.
      99926    2    1    2    0    0 -0.14210854715E-13  0.00000000000E+00 -0.14778286550E+02  0.45071470320E+03  0.45047235867E+03 0.  0.
      99925    2    3    3    0    0 -0.10684612372E+03  0.18992678341E+02 -0.21356863970E+01  0.28462990732E+03  0.26312127812E+03 0.  0.
         25    1    4    4    0    0 -0.20680122833E+02  0.12025388142E+02 -0.27980610688E+02  0.13039440216E+03  0.12509000000E+03 0.  0.
         25    1    3    3    0    0  0.10684612372E+03 -0.18992678341E+02 -0.12642600153E+02  0.16608479588E+03  0.12509000000E+03 0.  0.
         25    1    4    4    0    0 -0.86166000882E+02  0.69672901986E+01  0.25844924291E+02  0.15423550516E+03  0.12509000000E+03 0.  0.
<mgrwt>
<rscale>  2 0.45047236E+03</rscale>
<asrwt>0</asrwt>
<pdfrwt beam="1">  1       21 0.32054148E-01 0.45047236E+03</pdfrwt>
<pdfrwt beam="2">  1       21 0.34227426E-01 0.45047236E+03</pdfrwt>
<totfact> 0.71405817E+04</totfact>
</mgrwt>
</event>
<event>
 7    0  0.4775379E-002  0.4566102E+03  0.7546771E-02  0.1025769E+00
         21   -1    0    0  502  501  0.00000000000E+00  0.00000000000E+00  0.34492522060E+03  0.34492522060E+03  0.00000000000E+00 0.  1.
         21   -1    0    0  501  502 -0.00000000000E+00 -0.00000000000E+00 -0.15111457774E+03  0.15111457774E+03  0.00000000000E+00 0.  1.
      99926    2    1    2    0    0  0.00000000000E+00  0.00000000000E+00  0.19381064286E+03  0.49603979833E+03  0.45661024544E+03 0.  0.
      99925    2    3    3    0    0 -0.92273836605E+02 -0.49326091827E+02  0.17279459006E+03  0.33161137369E+03  0.26298404618E+03 0.  0.
         25    1    3    3    0    0  0.92273836605E+02  0.49326091827E+02  0.21016052796E+02  0.16442842465E+03  0.12509000000E+03 0.  0.
         25    1    4    4    0    0 -0.53329283163E+02  0.12474263456E+02  0.66156471719E+02  0.15173597643E+03  0.12509000000E+03 0.  0.
         25    1    4    4    0    0 -0.38944553442E+02 -0.61800355283E+02  0.10663811835E+03  0.17987539726E+03  0.12509000000E+03 0.  0.
<mgrwt>
<rscale>  2 0.45661025E+03</rscale>
<asrwt>0</asrwt>
<pdfrwt beam="1">  1       21 0.50724297E-01 0.45661025E+03</pdfrwt>
<pdfrwt beam="2">  1       21 0.22222732E-01 0.45661025E+03</pdfrwt>
<totfact> 0.64718518E+04</totfact>
</mgrwt>
</event>
<event>
 7    0  0.4775379E-002  0.4600967E+03  0.7546771E-02  0.1024753E+00
         21   -1    0    0  502  501  0.00000000000E+00  0.00000000000E+00  0.42582630672E+02  0.42582630672E+02  0.00000000000E+00 0.  1.
         21   -1    0    0  501  502 -0.00000000000E+00 -0.00000000000E+00 -0.12428127147E+04  0.12428127147E+04  0.00000000000E+00 0.  1.
      99926    2    1    2    0    0  0.00000000000E+00  0.35527136788E-14 -0.12002300840E+04  0.12853953454E+04  0.46009666300E+03 0.  0.
      99925    2    3    3    0    0 -0.86545766957E+02  0.29177507256E+02 -0.96012412587E+03  0.99966841988E+03  0.26297740573E+03 0.  0.
         25    1    4    4    0    0 -0.49355461390E+02 -0.25523807546E+02 -0.47586134825E+03  0.49515548788E+03  0.12509000000E+03 0.  0.
         25    1    3    3    0    0  0.86545766957E+02 -0.29177507256E+02 -0.24010595818E+03  0.28572692551E+03  0.12509000000E+03 0.  0.
         25    1    4    4    0    0 -0.37190305568E+02  0.54701314802E+02 -0.48426277761E+03  0.50451293200E+03  0.12509000000E+03 0.  0.
<mgrwt>
<rscale>  2 0.46009666E+03</rscale>
<asrwt>0</asrwt>
<pdfrwt beam="1">  1       21 0.62621531E-02 0.46009666E+03</pdfrwt>
<pdfrwt beam="2">  1       21 0.18276653E+00 0.46009666E+03</pdfrwt>
<totfact> 0.28398777E+04</totfact>
</mgrwt>
</event>
<event>
 7    0  0.4775379E-002  0.4553186E+03  0.7546771E-02  0.1026148E+00
         21   -1    0    0  502  501  0.00000000000E+00  0.00000000000E+00  0.61853573088E+03  0.61853573088E+03  0.00000000000E+00 0.  1.
         21   -1    0    0  501  502 -0.00000000000E+00 -0.00000000000E+00 -0.83792653183E+02  0.83792653183E+02  0.00000000000E+00 0.  1.
      99926    2    1    2    0    0  0.66613381478E-15  0.00000000000E+00  0.53474307770E+03  0.70232838406E+03  0.45531856970E+03 0.  0.
      99925    2    3    3    0    0 -0.41756292372E+00 -0.98853549857E+02  0.42256826837E+03  0.50738507275E+03  0.26287539242E+03 0.  0.
         25    1    3    3    0    0  0.41756292372E+00  0.98853549857E+02  0.11217480933E+03  0.19494331132E+03  0.12509000000E+03 0.  0.
         25    1    4    4    0    0 -0.31183409253E+02 -0.23839851849E+02  0.21536728983E+03  0.25213353838E+03  0.12509000000E+03 0.  0.
         25    1    4    4    0    0  0.30765846330E+02 -0.75013698007E+02  0.20720097854E+03  0.25525153436E+03  0.12509000000E+03 0.  0.
<mgrwt>
<rscale>  2 0.45531857E+03</rscale>
<asrwt>0</asrwt>
<pdfrwt beam="1">  1       21 0.90961135E-01 0.45531857E+03</pdfrwt>
<pdfrwt beam="2">  1       21 0.12322449E-01 0.45531857E+03</pdfrwt>
<totfact> 0.52644619E+04</totfact>
</mgrwt>
</event>
<event>
 7    0  0.4775379E-002  0.4422137E+03  0.7546771E-02  0.1030070E+00
         21   -1    0    0  502  501  0.00000000000E+00  0.00000000000E+00  0.85094174793E+02  0.85094174793E+02  0.00000000000E+00 0.  1.
         21   -1    0    0  501  502 -0.00000000000E+00 -0.00000000000E+00 -0.57451927191E+03  0.57451927191E+03  0.00000000000E+00 0.  1.
      99926    2    1    2    0    0  0.00000000000E+00 -0.35527136788E-14 -0.48942509712E+03  0.65961344670E+03  0.44221371913E+03 0.  0.
      99925    2    3    3    0    0 -0.15478485335E+02  0.14475710398E+02 -0.45849468352E+03  0.52902505409E+03  0.26306083582E+03 0.  0.
         25    1    3    3    0    0  0.15478485335E+02 -0.14475710398E+02 -0.30930413598E+02  0.13058839261E+03  0.12509000000E+03 0.  0.
         25    1    4    4    0    0 -0.40674692613E+01  0.40557419686E+02 -0.27826881407E+03  0.30780267962E+03  0.12509000000E+03 0.  0.
         25    1    4    4    0    0 -0.11411016074E+02 -0.26081709288E+02 -0.18022586945E+03  0.22122237447E+03  0.12509000000E+03 0.  0.
<mgrwt>
<rscale>  2 0.44221372E+03</rscale>
<asrwt>0</asrwt>
<pdfrwt beam="1">  1       21 0.12513849E-01 0.44221372E+03</pdfrwt>
<pdfrwt beam="2">  1       21 0.84488126E-01 0.44221372E+03</pdfrwt>
<totfact> 0.61077194E+04</totfact>
</mgrwt>
</event>
<event>
 7    0  0.4775379E-002  0.4323606E+03  0.7546771E-02  0.1033117E+00
         21   -1    0    0  502  501  0.00000000000E+00  0.00000000000E+00  0.12515389353E+03  0.12515389353E+03  0.00000000000E+00 0.  1.
         21   -1    0    0  501  502 -0.00000000000E+00 -0.00000000000E+00 -0.37341160217E+03  0.37341160217E+03  0.00000000000E+00 0.  1.
      99926    2    1    2    0    0  0.14210854715E-13  0.00000000000E+00 -0.24825770864E+03  0.49856549570E+03  0.43236057129E+03 0.  0.
      99925    2    3    3    0    0  0.83826049630E+02  0.27906681800E+02 -0.13837649773E+03  0.31007948005E+03  0.26305064025E+03 0.  0.
         25    1    3    3    0    0 -0.83826049630E+02 -0.27906681800E+02 -0.10988121091E+03  0.18848601565E+03  0.12509000000E+03 0.  0.
         25    1    4    4    0    0  0.77037807555E+02  0.30713085861E+02 -0.94282212023E+02  0.17724209726E+03  0.12509000000E+03 0.  0.
         25    1    4    4    0    0  0.67882420753E+01 -0.28064040602E+01 -0.44094285707E+02  0.13283738279E+03  0.12509000000E+03 0.  0.
<mgrwt>
<rscale>  2 0.43236057E+03</rscale>
<asrwt>0</asrwt>
<pdfrwt beam="1">  1       21 0.18404985E-01 0.43236057E+03</pdfrwt>
<pdfrwt beam="2">  1       21 0.54913469E-01 0.43236057E+03</pdfrwt>
<totfact> 0.78563956E+04</totfact>
</mgrwt>
</event>
<event>
 7    0  0.4775379E-002  0.4592853E+03  0.7546771E-02  0.1024989E+00
         21   -1    0    0  502  501  0.00000000000E+00  0.00000000000E+00  0.12823245184E+04  0.12823245184E+04  0.00000000000E+00 0. -1.
         21   -1    0    0  501  502 -0.00000000000E+00 -0.00000000000E+00 -0.41125120200E+02  0.41125120200E+02  0.00000000000E+00 0. -1.
      99926    2    1    2    0    0  0.00000000000E+00  0.00000000000E+00  0.12411993982E+04  0.13234496386E+04  0.45928531418E+03 0.  0.
      99925    2    3    3    0    0  0.57936104741E+02  0.75210711058E+02  0.58596676114E+03  0.64966142257E+03  0.26398802156E+03 0.  0.
         25    1    4    4    0    0 -0.26551647152E+01  0.27337021055E+02  0.33724969582E+03  0.36074815045E+03  0.12509000000E+03 0.  0.
         25    1    4    4    0    0  0.60591269456E+02  0.47873690002E+02  0.24871706532E+03  0.28891327212E+03  0.12509000000E+03 0.  0.
         25    1    3    3    0    0 -0.57936104741E+02 -0.75210711058E+02  0.65523263706E+03  0.67378821603E+03  0.12509000000E+03 0.  0.
<mgrwt>
<rscale>  2 0.45928531E+03</rscale>
<asrwt>0</asrwt>
<pdfrwt beam="1">  1       21 0.18857711E+00 0.45928531E+03</pdfrwt>
<pdfrwt beam="2">  1       21 0.60478126E-02 0.45928531E+03</pdfrwt>
<totfact> 0.27512959E+04</totfact>
</mgrwt>
</event>
<event>
 7    0  0.4775379E-002  0.4519079E+03  0.7546771E-02  0.1027155E+00
         21   -1    0    0  502  501  0.00000000000E+00  0.00000000000E+00  0.76509885927E+02  0.76509885927E+02  0.00000000000E+00 0. -1.
         21   -1    0    0  501  502 -0.00000000000E+00 -0.00000000000E+00 -0.66730193073E+03  0.66730193073E+03  0.00000000000E+00 0. -1.
      99926    2    1    2    0    0  0.00000000000E+00  0.00000000000E+00 -0.59079204481E+03  0.74381181666E+03  0.45190793133E+03 0.  0.
      99925    2    3    3    0    0 -0.10528505787E+03 -0.31753405356E+02 -0.33832427177E+03  0.44135403997E+03  0.26122184740E+03 0.  0.
         25    1    4    4    0    0 -0.39188539859E+02 -0.20374699227E+02 -0.21842600406E+03  0.25555488134E+03  0.12509000000E+03 0.  0.
         25    1    4    4    0    0 -0.66096518016E+02 -0.11378706129E+02 -0.11989826771E+03  0.18579915863E+03  0.12509000000E+03 0.  0.
         25    1    3    3    0    0  0.10528505787E+03  0.31753405356E+02 -0.25246777303E+03  0.30245777670E+03  0.12509000000E+03 0.  0.
<mgrwt>
<rscale>  2 0.45190793E+03</rscale>
<asrwt>0</asrwt>
<pdfrwt beam="1">  1       21 0.11251453E-01 0.45190793E+03</pdfrwt>
<pdfrwt beam="2">  1       21 0.98132642E-01 0.45190793E+03</pdfrwt>
<totfact> 0.51836443E+04</totfact>
</mgrwt>
</event>
<event>
 7    0  0.4775379E-002  0.4557671E+03  0.7546771E-02  0.1026016E+00
         21   -1    0    0  502  501  0.00000000000E+00  0.00000000000E+00  0.35497408074E+03  0.35497408074E+03  0.00000000000E+00 0.  1.
         21   -1    0    0  501  502 -0.00000000000E+00 -0.00000000000E+00 -0.14629497083E+03  0.14629497083E+03  0.00000000000E+00 0.  1.
      99926    2    1    2    0    0  0.00000000000E+00  0.00000000000E+00  0.20867910991E+03  0.50126905157E+03  0.45576714576E+03 0.  0.
      99925    2    3    3    0    0 -0.82150797940E+02  0.73474524723E+02  0.10011326412E+03  0.30231852919E+03  0.26310942220E+03 0.  0.
         25    1    3    3    0    0  0.82150797940E+02 -0.73474524723E+02  0.10856584579E+03  0.19895052239E+03  0.12509000000E+03 0.  0.
         25    1    4    4    0    0 -0.16715977485E+02  0.24508564698E+02  0.12649750871E+02  0.12918056334E+03  0.12509000000E+03 0.  0.
         25    1    4    4    0    0 -0.65434820455E+02  0.48965960024E+02  0.87463513248E+02  0.17313796585E+03  0.12509000000E+03 0.  0.
<mgrwt>
<rscale>  2 0.45576715E+03</rscale>
<asrwt>0</asrwt>
<pdfrwt beam="1">  1       21 0.52202071E-01 0.45576715E+03</pdfrwt>
<pdfrwt beam="2">  1       21 0.21513966E-01 0.45576715E+03</pdfrwt>
<totfact> 0.64786180E+04</totfact>
</mgrwt>
</event>
<event>
 7    0  0.4775379E-002  0.4596805E+03  0.7546771E-02  0.1024874E+00
         21   -1    0    0  502  501  0.00000000000E+00  0.00000000000E+00  0.17489178499E+04  0.17489178499E+04  0.00000000000E+00 0.  1.
         21   -1    0    0  501  502 -0.00000000000E+00 -0.00000000000E+00 -0.30205270633E+02  0.30205270633E+02  0.00000000000E+00 0.  1.
      99926    2    1    2    0    0  0.00000000000E+00  0.00000000000E+00  0.17187125793E+04  0.17791231206E+04  0.45968048456E+03 0.  0.
      99925    2    3    3    0    0  0.14145920521E+02 -0.82965698199E+02  0.13944498298E+04  0.14215238295E+04  0.26297577059E+03 0.  0.
         25    1    3    3    0    0 -0.14145920521E+02  0.82965698199E+02  0.32426274953E+03  0.35759929107E+03  0.12509000000E+03 0.  0.
         25    1    4    4    0    0  0.28809284635E+02 -0.22615977202E+02  0.52555151215E+03  0.54147332098E+03  0.12509000000E+03 0.  0.
         25    1    4    4    0    0 -0.14663364114E+02 -0.60349720997E+02  0.86889831762E+03  0.88005050852E+03  0.12509000000E+03 0.  0.
<mgrwt>
<rscale>  2 0.45968048E+03</rscale>
<asrwt>0</asrwt>
<pdfrwt beam="1">  1       21 0.25719373E+00 0.45968048E+03</pdfrwt>
<pdfrwt beam="2">  1       21 0.44419527E-02 0.45968048E+03</pdfrwt>
<totfact> 0.17036552E+04</totfact>
</mgrwt>
</event>
<event>
 7    0  0.4775379E-002  0.4528679E+03  0.7546771E-02  0.1026870E+00
         21   -1    0    0  502  501  0.00000000000E+00  0.00000000000E+00  0.18935450572E+03  0.18935450572E+03  0.00000000000E+00 0.  1.
         21   -1    0    0  501  502 -0.00000000000E+00 -0.00000000000E+00 -0.27077425582E+03  0.27077425582E+03  0.00000000000E+00 0.  1.
      99926    2    1    2    0    0  0.00000000000E+00  0.00000000000E+00 -0.81419750102E+02  0.46012876154E+03  0.45286786316E+03 0.  0.
      99925    2    3    3    0    0  0.68323194935E+02  0.23028079639E+02  0.34759358514E+02  0.27480891695E+03  0.26289423047E+03 0.  0.
         25    1    4    4    0    0  0.31788295888E+01 -0.96923697874E+01  0.33982573264E+02  0.13002449913E+03  0.12509000000E+03 0.  0.
         25    1    3    3    0    0 -0.68323194935E+02 -0.23028079639E+02 -0.11617910862E+03  0.18531984458E+03  0.12509000000E+03 0.  0.
         25    1    4    4    0    0  0.65144365346E+02  0.32720449426E+02  0.77678525063E+00  0.14478441782E+03  0.12509000000E+03 0.  0.
<mgrwt>
<rscale>  2 0.45286786E+03</rscale>
<asrwt>0</asrwt>
<pdfrwt beam="1">  1       21 0.27846251E-01 0.45286786E+03</pdfrwt>
<pdfrwt beam="2">  1       21 0.39819743E-01 0.45286786E+03</pdfrwt>
<totfact> 0.69341091E+04</totfact>
</mgrwt>
</event>
<event>
 7    0  0.4775379E-002  0.4620486E+03  0.7546771E-02  0.1024189E+00
         21   -1    0    0  502  501  0.00000000000E+00  0.00000000000E+00  0.23351074003E+03  0.23351074003E+03  0.00000000000E+00 0. -1.
         21   -1    0    0  501  502 -0.00000000000E+00 -0.00000000000E+00 -0.22856434746E+03  0.22856434746E+03  0.00000000000E+00 0. -1.
      99926    2    1    2    0    0 -0.71054273576E-14 -0.71054273576E-14  0.49463925654E+01  0.46207508748E+03  0.46204861181E+03 0.  0.
      99925    2    3    3    0    0 -0.60384226829E+02 -0.60233081927E+02  0.86991371888E+02  0.28987414167E+03  0.26303087313E+03 0.  0.
         25    1    4    4    0    0 -0.33637947159E+01 -0.41527659412E+02  0.12595027452E+02  0.13244623221E+03  0.12509000000E+03 0.  0.
         25    1    3    3    0    0  0.60384226829E+02  0.60233081927E+02 -0.82044979323E+02  0.17220094582E+03  0.12509000000E+03 0.  0.
         25    1    4    4    0    0 -0.57020432113E+02 -0.18705422515E+02  0.74396344436E+02  0.15742790945E+03  0.12509000000E+03 0.  0.
<mgrwt>
<rscale>  2 0.46204861E+03</rscale>
<asrwt>0</asrwt>
<pdfrwt beam="1">  1       21 0.34339815E-01 0.46204861E+03</pdfrwt>
<pdfrwt beam="2">  1       21 0.33612404E-01 0.46204861E+03</pdfrwt>
<totfact> 0.64335443E+04</totfact>
</mgrwt>
</event>
<event>
 7    0  0.4775379E-002  0.4664807E+03  0.7546771E-02  0.1022918E+00
         21   -1    0    0  502  501  0.00000000000E+00  0.00000000000E+00  0.76303589894E+03  0.76303589894E+03  0.00000000000E+00 0.  1.
         21   -1    0    0  501  502 -0.00000000000E+00 -0.00000000000E+00 -0.71295541566E+02  0.71295541566E+02  0.00000000000E+00 0.  1.
      99926    2    1    2    0    0  0.14210854715E-13  0.14210854715E-13  0.69174035738E+03  0.83433144051E+03  0.46648068620E+03 0.  0.
      99925    2    3    3    0    0 -0.90870743675E+02 -0.64417976232E+02  0.33393249128E+03  0.43926037746E+03  0.26273865866E+03 0.  0.
         25    1    3    3    0    0  0.90870743675E+02  0.64417976232E+02  0.35780786609E+03  0.39507106305E+03  0.12509000000E+03 0.  0.
         25    1    4    4    0    0 -0.22589614863E+02 -0.50986042885E+02  0.12139749970E+03  0.18301565043E+03  0.12509000000E+03 0.  0.
         25    1    4    4    0    0 -0.68281128813E+02 -0.13431933347E+02  0.21253499159E+03  0.25624472704E+03  0.12509000000E+03 0.  0.
<mgrwt>
<rscale>  2 0.46648069E+03</rscale>
<asrwt>0</asrwt>
<pdfrwt beam="1">  1       21 0.11221116E+00 0.46648069E+03</pdfrwt>
<pdfrwt beam="2">  1       21 0.10484639E-01 0.46648069E+03</pdfrwt>
<totfact> 0.42215582E+04</totfact>
</mgrwt>
</event>
<event>
 7    0  0.4775379E-002  0.4472583E+03  0.7546771E-02  0.1028543E+00
         21   -1    0    0  502  501  0.00000000000E+00  0.00000000000E+00  0.15758775662E+03  0.15758775662E+03  0.00000000000E+00 0.  1.
         21   -1    0    0  501  502 -0.00000000000E+00 -0.00000000000E+00 -0.31734696870E+03  0.31734696870E+03  0.00000000000E+00 0.  1.
      99926    2    1    2    0    0  0.00000000000E+00 -0.14210854715E-13 -0.15975921208E+03  0.47493472532E+03  0.44725830062E+03 0.  0.
      99925    2    3    3    0    0 -0.31414072703E+02 -0.90866182444E+02 -0.14786286872E+03  0.31671798107E+03  0.26306528564E+03 0.  0.
         25    1    4    4    0    0  0.17335463362E+02 -0.54463881751E+02 -0.98310857891E+02  0.16905432732E+03  0.12509000000E+03 0.  0.
         25    1    3    3    0    0  0.31414072703E+02  0.90866182444E+02 -0.11896343360E+02  0.15821674425E+03  0.12509000000E+03 0.  0.
         25    1    4    4    0    0 -0.48749536065E+02 -0.36402300693E+02 -0.49552010831E+02  0.14766365375E+03  0.12509000000E+03 0.  0.
<mgrwt>
<rscale>  2 0.44725830E+03</rscale>
<asrwt>0</asrwt>
<pdfrwt beam="1">  1       21 0.23174671E-01 0.44725830E+03</pdfrwt>
<pdfrwt beam="2">  1       21 0.46668671E-01 0.44725830E+03</pdfrwt>
<totfact> 0.71355565E+04</totfact>
</mgrwt>
</event>
<event>
 7    0  0.4775379E-002  0.4385191E+03  0.7546771E-02  0.1031202E+00
         21   -1    0    0  502  501  0.00000000000E+00  0.00000000000E+00  0.10386535964E+03  0.10386535964E+03  0.00000000000E+00 0. -1.
         21   -1    0    0  501  502 -0.00000000000E+00 -0.00000000000E+00 -0.46285634061E+03  0.46285634061E+03  0.00000000000E+00 0. -1.
      99926    2    1    2    0    0  0.00000000000E+00 -0.17763568394E-14 -0.35899098097E+03  0.56672170025E+03  0.43851905445E+03 0.  0.
      99925    2    3    3    0    0 -0.72952516776E+02 -0.97691697899E+01 -0.31090950970E+03  0.41382682668E+03  0.26300268607E+03 0.  0.
         25    1    4    4    0    0 -0.10632082811E+02 -0.13647545667E+02 -0.19450339281E+03  0.23190164855E+03  0.12509000000E+03 0.  0.
         25    1    3    3    0    0  0.72952516776E+02  0.97691697899E+01 -0.48081471271E+02  0.15289487356E+03  0.12509000000E+03 0.  0.
         25    1    4    4    0    0 -0.62320433965E+02  0.38783758771E+01 -0.11640611689E+03  0.18192517813E+03  0.12509000000E+03 0.  0.
<mgrwt>
<rscale>  2 0.43851905E+03</rscale>
<asrwt>0</asrwt>
<pdfrwt beam="1">  1       21 0.15274318E-01 0.43851905E+03</pdfrwt>
<pdfrwt beam="2">  1       21 0.68067108E-01 0.43851905E+03</pdfrwt>
<totfact> 0.69385623E+04</totfact>
</mgrwt>
</event>
<event>
 7    0  0.4775379E-002  0.4541839E+03  0.7546771E-02  0.1026482E+00
         21   -1    0    0  502  501  0.00000000000E+00  0.00000000000E+00  0.12268032259E+04  0.12268032259E+04  0.00000000000E+00 0.  1.
         21   -1    0    0  501  502 -0.00000000000E+00 -0.00000000000E+00 -0.42036688190E+02  0.42036688190E+02  0.00000000000E+00 0.  1.
      99926    2    1    2    0    0  0.00000000000E+00  0.00000000000E+00  0.11847665377E+04  0.12688399140E+04  0.45418386002E+03 0.  0.
      99925    2    3    3    0    0 -0.66759683465E+01 -0.60531058823E+02  0.48192743947E+03  0.55236319866E+03  0.26294955540E+03 0.  0.
         25    1    4    4    0    0 -0.18483055784E+01  0.97747925334E+01  0.20301819332E+03  0.23866892911E+03  0.12509000000E+03 0.  0.
         25    1    4    4    0    0 -0.48276627682E+01 -0.70305851356E+02  0.27890924615E+03  0.31369426956E+03  0.12509000000E+03 0.  0.
         25    1    3    3    0    0  0.66759683465E+01  0.60531058823E+02  0.70283909819E+03  0.71647671538E+03  0.12509000000E+03 0.  0.
<mgrwt>
<rscale>  2 0.45418386E+03</rscale>
<asrwt>0</asrwt>
<pdfrwt beam="1">  1       21 0.18041222E+00 0.45418386E+03</pdfrwt>
<pdfrwt beam="2">  1       21 0.61818667E-02 0.45418386E+03</pdfrwt>
<totfact> 0.30224797E+04</totfact>
</mgrwt>
</event>
<event>
 7    0  0.4775379E-002  0.4419129E+03  0.7546771E-02  0.1030161E+00
         21   -1    0    0  502  501  0.00000000000E+00  0.00000000000E+00  0.14334652750E+03  0.14334652750E+03  0.00000000000E+00 0.  1.
         21   -1    0    0  501  502 -0.00000000000E+00 -0.00000000000E+00 -0.34058559744E+03  0.34058559744E+03  0.00000000000E+00 0.  1.
      99926    2    1    2    0    0  0.00000000000E+00  0.00000000000E+00 -0.19723906994E+03  0.48393212494E+03  0.44191294486E+03 0.  0.
      99925    2    3    3    0    0 -0.26030161078E+02 -0.30882552469E+02 -0.25026029739E+02  0.26728462173E+03  0.26302749954E+03 0.  0.
         25    1    4    4    0    0 -0.85375956519E+01  0.24299774258E+02 -0.33709006438E+01  0.12775852472E+03  0.12509000000E+03 0.  0.
         25    1    3    3    0    0  0.26030161078E+02  0.30882552469E+02 -0.17221304020E+03  0.21664750321E+03  0.12509000000E+03 0.  0.
         25    1    4    4    0    0 -0.17492565427E+02 -0.55182326727E+02 -0.21655129096E+02  0.13952609700E+03  0.12509000000E+03 0.  0.
<mgrwt>
<rscale>  2 0.44191294E+03</rscale>
<asrwt>0</asrwt>
<pdfrwt beam="1">  1       21 0.21080372E-01 0.44191294E+03</pdfrwt>
<pdfrwt beam="2">  1       21 0.50086117E-01 0.44191294E+03</pdfrwt>
<totfact> 0.73788185E+04</totfact>
</mgrwt>
</event>
<event>
 7    0  0.4775379E-002  0.4557473E+03  0.7546771E-02  0.1026022E+00
         21   -1    0    0  502  501  0.00000000000E+00  0.00000000000E+00  0.20729493849E+03  0.20729493849E+03  0.00000000000E+00 0. -1.
         21   -1    0    0  501  502 -0.00000000000E+00 -0.00000000000E+00 -0.25049523415E+03  0.25049523415E+03  0.00000000000E+00 0. -1.
      99926    2    1    2    0    0  0.00000000000E+00  0.00000000000E+00 -0.43200295661E+02  0.45779017263E+03  0.45574727275E+03 0.  0.
      99925    2    3    3    0    0  0.13953669579E+02  0.77126694759E+02 -0.11022732749E+03  0.29566872731E+03  0.26291957067E+03 0.  0.
         25    1    4    4    0    0  0.12981607314E+02  0.80039813905E+02 -0.64857419320E+02  0.16256963702E+03  0.12509000000E+03 0.  0.
         25    1    3    3    0    0 -0.13953669579E+02 -0.77126694759E+02  0.67027031834E+02  0.16212144533E+03  0.12509000000E+03 0.  0.
         25    1    4    4    0    0  0.97206226487E+00 -0.29131191459E+01 -0.45369908175E+02  0.13309909029E+03  0.12509000000E+03 0.  0.
<mgrwt>
<rscale>  2 0.45574727E+03</rscale>
<asrwt>0</asrwt>
<pdfrwt beam="1">  1       21 0.30484550E-01 0.45574727E+03</pdfrwt>
<pdfrwt beam="2">  1       21 0.36837534E-01 0.45574727E+03</pdfrwt>
<totfact> 0.67935924E+04</totfact>
</mgrwt>
</event>
<event>
 7    0  0.4775379E-002  0.4535519E+03  0.7546771E-02  0.1026668E+00
         21   -1    0    0  502  501  0.00000000000E+00  0.00000000000E+00  0.23694790060E+03  0.23694790060E+03  0.00000000000E+00 0. -1.
         21   -1    0    0  501  502 -0.00000000000E+00 -0.00000000000E+00 -0.21704070421E+03  0.21704070421E+03  0.00000000000E+00 0. -1.
      99926    2    1    2    0    0  0.35527136788E-14 -0.71054273576E-14  0.19907196386E+02  0.45398860481E+03  0.45355193399E+03 0.  0.
      99925    2    3    3    0    0 -0.25870225900E+02  0.35923189088E+02 -0.90216856238E+02  0.28155148824E+03  0.26300649285E+03 0.  0.
         25    1    4    4    0    0  0.21486361538E+02  0.22061578455E+02 -0.66602375976E+02  0.14502331386E+03  0.12509000000E+03 0.  0.
         25    1    4    4    0    0 -0.47356587438E+02  0.13861610633E+02 -0.23614480262E+02  0.13652817439E+03  0.12509000000E+03 0.  0.
         25    1    3    3    0    0  0.25870225900E+02 -0.35923189088E+02  0.11012405262E+03  0.17243711656E+03  0.12509000000E+03 0.  0.
<mgrwt>
<rscale>  2 0.45355193E+03</rscale>
<asrwt>0</asrwt>
<pdfrwt beam="1">  1       21 0.34845280E-01 0.45355193E+03</pdfrwt>
<pdfrwt beam="2">  1       21 0.31917751E-01 0.45355193E+03</pdfrwt>
<totfact> 0.69418570E+04</totfact>
</mgrwt>
</event>
<event>
 7    0  0.4775379E-002  0.4577645E+03  0.7546771E-02  0.1025432E+00
         21   -1    0    0  502  501  0.00000000000E+00  0.00000000000E+00  0.10539624988E+03  0.10539624988E+03  0.00000000000E+00 0. -1.
         21   -1    0    0  501  502 -0.00000000000E+00 -0.00000000000E+00 -0.49704880742E+03  0.49704880742E+03  0.00000000000E+00 0. -1.
      99926    2    1    2    0    0  0.00000000000E+00  0.00000000000E+00 -0.39165255755E+03  0.60244505730E+03  0.45776448228E+03 0.  0.
      99925    2    3    3    0    0 -0.99940353608E+01  0.11532551778E+03 -0.24400302110E+03  0.37695060170E+03  0.26297229136E+03 0.  0.
         25    1    3    3    0    0  0.99940353608E+01 -0.11532551778E+03 -0.14764953645E+03  0.22549445560E+03  0.12509000000E+03 0.  0.
         25    1    4    4    0    0  0.15870226055E+02  0.90820262139E+02 -0.11134791595E+03  0.19117021362E+03  0.12509000000E+03 0.  0.
         25    1    4    4    0    0 -0.25864261416E+02  0.24505255638E+02 -0.13265510515E+03  0.18578038808E+03  0.12509000000E+03 0.  0.
<mgrwt>
<rscale>  2 0.45776448E+03</rscale>
<asrwt>0</asrwt>
<pdfrwt beam="1">  1       21 0.15499449E-01 0.45776448E+03</pdfrwt>
<pdfrwt beam="2">  1       21 0.73095412E-01 0.45776448E+03</pdfrwt>
<totfact> 0.57266930E+04</totfact>
</mgrwt>
</event>
<event>
 7    0  0.4775379E-002  0.4567697E+03  0.7546771E-02  0.1025722E+00
         21   -1    0    0  502  501  0.00000000000E+00  0.00000000000E+00  0.10979013048E+03  0.10979013048E+03  0.00000000000E+00 0.  1.
         21   -1    0    0  501  502 -0.00000000000E+00 -0.00000000000E+00 -0.47508496814E+03  0.47508496814E+03  0.00000000000E+00 0.  1.
      99926    2    1    2    0    0  0.00000000000E+00  0.00000000000E+00 -0.36529483766E+03  0.58487509862E+03  0.45676970408E+03 0.  0.
      99925    2    3    3    0    0  0.60007698228E+02  0.96001294755E+02 -0.20476717220E+03  0.35199355809E+03  0.26296900518E+03 0.  0.
         25    1    4    4    0    0  0.71763875147E+01  0.56614782765E+02 -0.61208695883E+02  0.15050165021E+03  0.12509000000E+03 0.  0.
         25    1    3    3    0    0 -0.60007698228E+02 -0.96001294755E+02 -0.16052766546E+03  0.23288154053E+03  0.12509000000E+03 0.  0.
         25    1    4    4    0    0  0.52831310713E+02  0.39386511990E+02 -0.14355847632E+03  0.20149190788E+03  0.12509000000E+03 0.  0.
<mgrwt>
<rscale>  2 0.45676970E+03</rscale>
<asrwt>0</asrwt>
<pdfrwt beam="1">  1       21 0.16145607E-01 0.45676970E+03</pdfrwt>
<pdfrwt beam="2">  1       21 0.69865438E-01 0.45676970E+03</pdfrwt>
<totfact> 0.58792265E+04</totfact>
</mgrwt>
</event>
<event>
 7    0  0.4775379E-002  0.4479895E+03  0.7546771E-02  0.1028323E+00
         21   -1    0    0  502  501  0.00000000000E+00  0.00000000000E+00  0.14551550649E+03  0.14551550649E+03  0.00000000000E+00 0.  1.
         21   -1    0    0  501  502 -0.00000000000E+00 -0.00000000000E+00 -0.34479927157E+03  0.34479927157E+03  0.00000000000E+00 0.  1.
      99926    2    1    2    0    0  0.00000000000E+00  0.00000000000E+00 -0.19928376508E+03  0.49031477806E+03  0.44798946702E+03 0.  0.
      99925    2    3    3    0    0  0.67672194287E+02  0.72143037526E+02 -0.16933187687E+03  0.32805336105E+03  0.26298589207E+03 0.  0.
         25    1    4    4    0    0  0.43048020596E+02  0.64846477834E+02 -0.56974480663E+02  0.15796137918E+03  0.12509000000E+03 0.  0.
         25    1    4    4    0    0  0.24624173691E+02  0.72965596925E+01 -0.11235739621E+03  0.17009198187E+03  0.12509000000E+03 0.  0.
         25    1    3    3    0    0 -0.67672194287E+02 -0.72143037526E+02 -0.29951888203E+02  0.16226141701E+03  0.12509000000E+03 0.  0.
<mgrwt>
<rscale>  2 0.44798947E+03</rscale>
<asrwt>0</asrwt>
<pdfrwt beam="1">  1       21 0.21399339E-01 0.44798947E+03</pdfrwt>
<pdfrwt beam="2">  1       21 0.50705776E-01 0.44798947E+03</pdfrwt>
<totfact> 0.69758814E+04</totfact>
</mgrwt>
</event>
<event>
 7    0  0.4775379E-002  0.4490565E+03  0.7546771E-02  0.1028004E+00
         21   -1    0    0  502  501  0.00000000000E+00  0.00000000000E+00  0.34089511132E+03  0.34089511132E+03  0.00000000000E+00 0.  1.
         21   -1    0    0  501  502 -0.00000000000E+00 -0.00000000000E+00 -0.14788403689E+03  0.14788403689E+03  0.00000000000E+00 0.  1.
      99926    2    1    2    0    0  0.00000000000E+00  0.17763568394E-14  0.19301107444E+03  0.48877914821E+03  0.44905654529E+03 0.  0.
      99925    2    3    3    0    0 -0.10301556059E+03 -0.15417785324E+02  0.15109270125E+03  0.32068818492E+03  0.26298667979E+03 0.  0.
         25    1    4    4    0    0 -0.13724940598E+02 -0.23437562433E+01  0.90260346045E+02  0.15488158495E+03  0.12509000000E+03 0.  0.
         25    1    4    4    0    0 -0.89290619993E+02 -0.13074029080E+02  0.60832355206E+02  0.16580659997E+03  0.12509000000E+03 0.  0.
         25    1    3    3    0    0  0.10301556059E+03  0.15417785324E+02  0.41918373185E+02  0.16809096329E+03  0.12509000000E+03 0.  0.
<mgrwt>
<rscale>  2 0.44905655E+03</rscale>
<asrwt>0</asrwt>
<pdfrwt beam="1">  1       21 0.50131634E-01 0.44905655E+03</pdfrwt>
<pdfrwt beam="2">  1       21 0.21747653E-01 0.44905655E+03</pdfrwt>
<totfact> 0.69277873E+04</totfact>
</mgrwt>
</event>
<event>
 7    0  0.4775379E-002  0.4556850E+03  0.7546771E-02  0.1026040E+00
         21   -1    0    0  502  501  0.00000000000E+00  0.00000000000E+00  0.63693994260E+03  0.63693994260E+03  0.00000000000E+00 0.  1.
         21   -1    0    0  501  502 -0.00000000000E+00 -0.00000000000E+00 -0.81502521445E+02  0.81502521445E+02  0.00000000000E+00 0.  1.
      99926    2    1    2    0    0  0.00000000000E+00  0.00000000000E+00  0.55543742115E+03  0.71844246404E+03  0.45568502864E+03 0.  0.
      99925    2    3    3    0    0 -0.77825468215E+02  0.72199319197E+02  0.41401788564E+03  0.50184020570E+03  0.26298904394E+03 0.  0.
         25    1    3    3    0    0  0.77825468215E+02 -0.72199319197E+02  0.14141953551E+03  0.21660225835E+03  0.12509000000E+03 0.  0.
         25    1    4    4    0    0  0.12470507940E+01  0.23501133550E+02  0.17099704731E+03  0.21316978374E+03  0.12509000000E+03 0.  0.
         25    1    4    4    0    0 -0.79072519009E+02  0.48698185647E+02  0.24302083833E+03  0.28867042196E+03  0.12509000000E+03 0.  0.
<mgrwt>
<rscale>  2 0.45568503E+03</rscale>
<asrwt>0</asrwt>
<pdfrwt beam="1">  1       21 0.93667636E-01 0.45568503E+03</pdfrwt>
<pdfrwt beam="2">  1       21 0.11985665E-01 0.45568503E+03</pdfrwt>
<totfact> 0.51634313E+04</totfact>
</mgrwt>
</event>
<event>
 7    0  0.4775379E-002  0.4389318E+03  0.7546771E-02  0.1031075E+00
         21   -1    0    0  502  501  0.00000000000E+00  0.00000000000E+00  0.30618543005E+03  0.30618543005E+03  0.00000000000E+00 0. -1.
         21   -1    0    0  501  502 -0.00000000000E+00 -0.00000000000E+00 -0.15730754132E+03  0.15730754132E+03  0.00000000000E+00 0. -1.
      99926    2    1    2    0    0  0.14210854715E-13  0.00000000000E+00  0.14887788873E+03  0.46349297137E+03  0.43893178144E+03 0.  0.
      99925    2    3    3    0    0 -0.91571129527E+02  0.32118749171E+02  0.86958774195E+02  0.29349776363E+03  0.26298711572E+03 0.  0.
         25    1    4    4    0    0 -0.10816617408E+02  0.27587436674E+02  0.61005913333E+02  0.14229299152E+03  0.12509000000E+03 0.  0.
         25    1    3    3    0    0  0.91571129527E+02 -0.32118749171E+02  0.61919114532E+02  0.16999520774E+03  0.12509000000E+03 0.  0.
         25    1    4    4    0    0 -0.80754512120E+02  0.45313124969E+01  0.25952860861E+02  0.15120477211E+03  0.12509000000E+03 0.  0.
<mgrwt>
<rscale>  2 0.43893178E+03</rscale>
<asrwt>0</asrwt>
<pdfrwt beam="1">  1       21 0.45027269E-01 0.43893178E+03</pdfrwt>
<pdfrwt beam="2">  1       21 0.23133462E-01 0.43893178E+03</pdfrwt>
<totfact> 0.77320710E+04</totfact>
</mgrwt>
</event>
<event>
 7    0  0.4775379E-002  0.4470527E+03  0.7546771E-02  0.1028605E+00
         21   -1    0    0  502  501  0.00000000000E+00  0.00000000000E+00  0.68813429552E+02  0.68813429552E+02  0.00000000000E+00 0. -1.
         21   -1    0    0  501  502 -0.00000000000E+00 -0.00000000000E+00 -0.72607953993E+03  0.72607953993E+03  0.00000000000E+00 0. -1.
      99926    2    1    2    0    0  0.00000000000E+00  0.00000000000E+00 -0.65726611037E+03  0.79489296948E+03  0.44705267372E+03 0.  0.
      99925    2    3    3    0    0 -0.64654084732E+02 -0.82382902053E+02 -0.44089734276E+03  0.52391318255E+03  0.26292102004E+03 0.  0.
         25    1    3    3    0    0  0.64654084732E+02  0.82382902053E+02 -0.21636876762E+03  0.27097978693E+03  0.12509000000E+03 0.  0.
         25    1    4    4    0    0 -0.51596692186E+02 -0.11857367355E+02 -0.25192743205E+03  0.28621277911E+03  0.12509000000E+03 0.  0.
         25    1    4    4    0    0 -0.13057392546E+02 -0.70525534698E+02 -0.18896991070E+03  0.23770040344E+03  0.12509000000E+03 0.  0.
<mgrwt>
<rscale>  2 0.44705267E+03</rscale>
<asrwt>0</asrwt>
<pdfrwt beam="1">  1       21 0.10119623E-01 0.44705267E+03</pdfrwt>
<pdfrwt beam="2">  1       21 0.10677640E+00 0.44705267E+03</pdfrwt>
<totfact> 0.51127981E+04</totfact>
</mgrwt>
</event>
<event>
 7    0  0.4775379E-002  0.4525916E+03  0.7546771E-02  0.1026952E+00
         21   -1    0    0  502  501  0.00000000000E+00  0.00000000000E+00  0.66900523497E+02  0.66900523497E+02  0.00000000000E+00 0.  1.
         21   -1    0    0  501  502 -0.00000000000E+00 -0.00000000000E+00 -0.76546171943E+03  0.76546171943E+03  0.00000000000E+00 0.  1.
      99926    2    1    2    0    0  0.00000000000E+00 -0.14210854715E-13 -0.69856119593E+03  0.83236224293E+03  0.45259160287E+03 0.  0.
      99925    2    3    3    0    0  0.18520027789E+02  0.10877766368E+03 -0.41935269149E+03  0.50712314841E+03  0.26294797252E+03 0.  0.
         25    1    4    4    0    0  0.23947150465E+02  0.93378247305E+02 -0.25491211730E+03  0.29986773540E+03  0.12509000000E+03 0.  0.
         25    1    3    3    0    0 -0.18520027789E+02 -0.10877766368E+03 -0.27920850445E+03  0.32523909452E+03  0.12509000000E+03 0.  0.
         25    1    4    4    0    0 -0.54271226760E+01  0.15399416377E+02 -0.16444057418E+03  0.20725541301E+03  0.12509000000E+03 0.  0.
<mgrwt>
<rscale>  2 0.45259160E+03</rscale>
<asrwt>0</asrwt>
<pdfrwt beam="1">  1       21 0.98383117E-02 0.45259160E+03</pdfrwt>
<pdfrwt beam="2">  1       21 0.11256791E+00 0.45259160E+03</pdfrwt>
<totfact> 0.47123125E+04</totfact>
</mgrwt>
</event>
<event>
 7    0  0.4775379E-002  0.4516922E+03  0.7546771E-02  0.1027219E+00
         21   -1    0    0  502  501  0.00000000000E+00  0.00000000000E+00  0.76023309673E+03  0.76023309673E+03  0.00000000000E+00 0. -1.
         21   -1    0    0  501  502 -0.00000000000E+00 -0.00000000000E+00 -0.67093193992E+02  0.67093193992E+02  0.00000000000E+00 0. -1.
      99926    2    1    2    0    0  0.00000000000E+00  0.00000000000E+00  0.69313990273E+03  0.82732629072E+03  0.45169222547E+03 0.  0.
      99925    2    3    3    0    0 -0.57107583693E+02  0.76817639176E+02  0.33794526319E+03  0.43877389288E+03  0.26297015488E+03 0.  0.
         25    1    3    3    0    0  0.57107583693E+02 -0.76817639176E+02  0.35519463955E+03  0.38855239784E+03  0.12509000000E+03 0.  0.
         25    1    4    4    0    0 -0.39017260889E+02  0.43338289770E+00  0.13926075673E+03  0.19121611055E+03  0.12509000000E+03 0.  0.
         25    1    4    4    0    0 -0.18090322804E+02  0.76384256279E+02  0.19868450646E+03  0.24755778233E+03  0.12509000000E+03 0.  0.
<mgrwt>
<rscale>  2 0.45169223E+03</rscale>
<asrwt>0</asrwt>
<pdfrwt beam="1">  1       21 0.11179898E+00 0.45169223E+03</pdfrwt>
<pdfrwt beam="2">  1       21 0.98666466E-02 0.45169223E+03</pdfrwt>
<totfact> 0.47697220E+04</totfact>
</mgrwt>
</event>
<event>
 7    0  0.4775379E-002  0.4368643E+03  0.7546771E-02  0.1031713E+00
         21   -1    0    0  502  501  0.00000000000E+00  0.00000000000E+00  0.49779654063E+03  0.49779654063E+03  0.00000000000E+00 0.  1.
         21   -1    0    0  501  502 -0.00000000000E+00 -0.00000000000E+00 -0.95847603449E+02  0.95847603449E+02  0.00000000000E+00 0.  1.
      99926    2    1    2    0    0  0.00000000000E+00  0.00000000000E+00  0.40194893718E+03  0.59364414408E+03  0.43686430582E+03 0.  0.
      99925    2    3    3    0    0 -0.33067624697E+02 -0.33697962074E+02  0.36952456291E+03  0.45606555346E+03  0.26309383498E+03 0.  0.
         25    1    3    3    0    0  0.33067624697E+02  0.33697962074E+02  0.32424374273E+02  0.13757859062E+03  0.12509000000E+03 0.  0.
         25    1    4    4    0    0 -0.29821639325E+02  0.50603808706E+00  0.24261103892E+03  0.27458552503E+03  0.12509000000E+03 0.  0.
         25    1    4    4    0    0 -0.32459853713E+01 -0.34204000161E+02  0.12691352398E+03  0.18148002843E+03  0.12509000000E+03 0.  0.
<mgrwt>
<rscale>  2 0.43686431E+03</rscale>
<asrwt>0</asrwt>
<pdfrwt beam="1">  1       21 0.73205373E-01 0.43686431E+03</pdfrwt>
<pdfrwt beam="2">  1       21 0.14095236E-01 0.43686431E+03</pdfrwt>
<totfact> 0.68352665E+04</totfact>
</mgrwt>
</event>
<event>
 7    0  0.4775379E-002  0.4197741E+03  0.7546771E-02  0.1037140E+00
         21   -1    0    0  502  501  0.00000000000E+00  0.00000000000E+00  0.46135036586E+02  0.46135036586E+02  0.00000000000E+00 0. -1.
         21   -1    0    0  501  502 -0.00000000000E+00 -0.00000000000E+00 -0.95486162425E+03  0.95486162425E+03  0.00000000000E+00 0. -1.
      99926    2    1    2    0    0  0.00000000000E+00 -0.35527136788E-14 -0.90872658767E+03  0.10009966608E+04  0.41977411054E+03 0.  0.
      99925    2    3    3    0    0  0.68675854077E+02 -0.31005394591E+02 -0.60601652361E+03  0.66490352136E+03  0.26298851381E+03 0.  0.
         25    1    4    4    0    0  0.22415645355E+02 -0.51626653168E+02 -0.33959239960E+03  0.36624892961E+03  0.12509000000E+03 0.  0.
         25    1    4    4    0    0  0.46260208722E+02  0.20621258576E+02 -0.26642412401E+03  0.29865459175E+03  0.12509000000E+03 0.  0.
         25    1    3    3    0    0 -0.68675854077E+02  0.31005394591E+02 -0.30271006405E+03  0.33609313948E+03  0.12509000000E+03 0.  0.
<mgrwt>
<rscale>  2 0.41977411E+03</rscale>
<asrwt>0</asrwt>
<pdfrwt beam="1">  1       21 0.67845641E-02 0.41977411E+03</pdfrwt>
<pdfrwt beam="2">  1       21 0.14042083E+00 0.41977411E+03</pdfrwt>
<totfact> 0.52035947E+04</totfact>
</mgrwt>
</event>
<event>
 7    0  0.4775379E-002  0.4426349E+03  0.7546771E-02  0.1029941E+00
         21   -1    0    0  502  501  0.00000000000E+00  0.00000000000E+00  0.92936844788E+02  0.92936844788E+02  0.00000000000E+00 0. -1.
         21   -1    0    0  501  502 -0.00000000000E+00 -0.00000000000E+00 -0.52703972373E+03  0.52703972373E+03  0.00000000000E+00 0. -1.
      99926    2    1    2    0    0 -0.35527136788E-14  0.00000000000E+00 -0.43410287895E+03  0.61997656852E+03  0.44263487889E+03 0.  0.
      99925    2    3    3    0    0  0.29959302199E+02 -0.89295193571E+02 -0.22712929130E+03  0.36044474877E+03  0.26355551704E+03 0.  0.
         25    1    4    4    0    0 -0.12190330079E+02 -0.76607722937E+02 -0.12381502747E+03  0.19234088616E+03  0.12509000000E+03 0.  0.
         25    1    3    3    0    0 -0.29959302199E+02  0.89295193571E+02 -0.20697358765E+03  0.25953181976E+03  0.12509000000E+03 0.  0.
         25    1    4    4    0    0  0.42149632278E+02 -0.12687470634E+02 -0.10331426383E+03  0.16810386261E+03  0.12509000000E+03 0.  0.
<mgrwt>
<rscale>  2 0.44263488E+03</rscale>
<asrwt>0</asrwt>
<pdfrwt beam="1">  1       21 0.13667183E-01 0.44263488E+03</pdfrwt>
<pdfrwt beam="2">  1       21 0.77505839E-01 0.44263488E+03</pdfrwt>
<totfact> 0.63435467E+04</totfact>
</mgrwt>
</event>
<event>
 7    0  0.4775379E-002  0.4549459E+03  0.7546771E-02  0.1026257E+00
         21   -1    0    0  502  501  0.00000000000E+00  0.00000000000E+00  0.58780880704E+02  0.58780880704E+02  0.00000000000E+00 0.  1.
         21   -1    0    0  501  502 -0.00000000000E+00 -0.00000000000E+00 -0.88028531476E+03  0.88028531476E+03  0.00000000000E+00 0.  1.
      99926    2    1    2    0    0  0.00000000000E+00  0.00000000000E+00 -0.82150443406E+03  0.93906619547E+03  0.45494591359E+03 0.  0.
      99925    2    3    3    0    0 -0.83513899478E+02 -0.66043882097E+02 -0.59574959214E+03  0.65987249475E+03  0.26301666683E+03 0.  0.
         25    1    4    4    0    0 -0.84025029912E+02 -0.31411402431E+02 -0.32744901698E+03  0.36182488675E+03  0.12509000000E+03 0.  0.
         25    1    4    4    0    0  0.51113043372E+00 -0.34632479666E+02 -0.26830057516E+03  0.29804760800E+03  0.12509000000E+03 0.  0.
         25    1    3    3    0    0  0.83513899478E+02  0.66043882097E+02 -0.22575484192E+03  0.27919370072E+03  0.12509000000E+03 0.  0.
<mgrwt>
<rscale>  2 0.45494591E+03</rscale>
<asrwt>0</asrwt>
<pdfrwt beam="1">  1       21 0.86442476E-02 0.45494591E+03</pdfrwt>
<pdfrwt beam="2">  1       21 0.12945372E+00 0.45494591E+03</pdfrwt>
<totfact> 0.41604340E+04</totfact>
</mgrwt>
</event>
<event>
 7    0  0.4775379E-002  0.4686642E+03  0.7546771E-02  0.1022298E+00
         21   -1    0    0  502  501  0.00000000000E+00  0.00000000000E+00  0.49211152006E+02  0.49211152006E+02  0.00000000000E+00 0. -1.
         21   -1    0    0  501  502 -0.00000000000E+00 -0.00000000000E+00 -0.11158352936E+04  0.11158352936E+04  0.00000000000E+00 0. -1.
      99926    2    1    2    0    0  0.14210854715E-13 -0.17763568394E-14 -0.10666241416E+04  0.11650464456E+04  0.46866423053E+03 0.  0.
      99925    2    3    3    0    0  0.12151479779E+03 -0.95468226489E+01 -0.73768831537E+03  0.79261756141E+03  0.26306189408E+03 0.  0.
         25    1    4    4    0    0  0.19110000710E+02 -0.16628175989E+01 -0.28390137125E+03  0.31083026523E+03  0.12509000000E+03 0.  0.
         25    1    4    4    0    0  0.10240479708E+03 -0.78840050500E+01 -0.45378694412E+03  0.48178729617E+03  0.12509000000E+03 0.  0.
         25    1    3    3    0    0 -0.12151479779E+03  0.95468226489E+01 -0.32893582619E+03  0.37242888416E+03  0.12509000000E+03 0.  0.
<mgrwt>
<rscale>  2 0.46866423E+03</rscale>
<asrwt>0</asrwt>
<pdfrwt beam="1">  1       21 0.72369344E-02 0.46866423E+03</pdfrwt>
<pdfrwt beam="2">  1       21 0.16409342E+00 0.46866423E+03</pdfrwt>
<totfact> 0.29963966E+04</totfact>
</mgrwt>
</event>
<event>
 7    0  0.4775379E-002  0.4532567E+03  0.7546771E-02  0.1026755E+00
         21   -1    0    0  502  501  0.00000000000E+00  0.00000000000E+00  0.14323517670E+03  0.14323517670E+03  0.00000000000E+00 0.  1.
         21   -1    0    0  501  502 -0.00000000000E+00 -0.00000000000E+00 -0.35857395501E+03  0.35857395501E+03  0.00000000000E+00 0.  1.
      99926    2    1    2    0    0  0.00000000000E+00  0.71054273576E-14 -0.21533877830E+03  0.50180913171E+03  0.45325667698E+03 0.  0.
      99925    2    3    3    0    0  0.73684756891E+02  0.56569559031E+02 -0.67539603251E+02  0.28704958558E+03  0.26307091851E+03 0.  0.
         25    1    3    3    0    0 -0.73684756891E+02 -0.56569559031E+02 -0.14779917505E+03  0.21475954613E+03  0.12509000000E+03 0.  0.
         25    1    4    4    0    0  0.52218493370E+02  0.34150070713E+02 -0.73686502860E+02  0.15801964176E+03  0.12509000000E+03 0.  0.
         25    1    4    4    0    0  0.21466263521E+02  0.22419488318E+02  0.61468996096E+01  0.12902994381E+03  0.12509000000E+03 0.  0.
<mgrwt>
<rscale>  2 0.45325668E+03</rscale>
<asrwt>0</asrwt>
<pdfrwt beam="1">  1       21 0.21063997E-01 0.45325668E+03</pdfrwt>
<pdfrwt beam="2">  1       21 0.52731463E-01 0.45325668E+03</pdfrwt>
<totfact> 0.66053066E+04</totfact>
</mgrwt>
</event>
<event>
 7    0  0.4775379E-002  0.4540331E+03  0.7546771E-02  0.1026526E+00
         21   -1    0    0  502  501  0.00000000000E+00  0.00000000000E+00  0.40366270150E+02  0.40366270150E+02  0.00000000000E+00 0.  1.
         21   -1    0    0  501  502 -0.00000000000E+00 -0.00000000000E+00 -0.12767224632E+04  0.12767224632E+04  0.00000000000E+00 0.  1.
      99926    2    1    2    0    0  0.00000000000E+00 -0.35527136788E-14 -0.12363561930E+04  0.13170887333E+04  0.45403314352E+03 0.  0.
      99925    2    3    3    0    0  0.98363243850E+02 -0.11700552072E+02 -0.62321015525E+03  0.68352121332E+03  0.26267493371E+03 0.  0.
         25    1    4    4    0    0  0.25935486106E+02  0.18629305068E+02 -0.34817173348E+03  0.37133645733E+03  0.12509000000E+03 0.  0.
         25    1    3    3    0    0 -0.98363243850E+02  0.11700552072E+02 -0.61314603775E+03  0.63356751998E+03  0.12509000000E+03 0.  0.
         25    1    4    4    0    0  0.72427757744E+02 -0.30329857140E+02 -0.27503842177E+03  0.31218475599E+03  0.12509000000E+03 0.  0.
<mgrwt>
<rscale>  2 0.45403314E+03</rscale>
<asrwt>0</asrwt>
<pdfrwt beam="1">  1       21 0.59362164E-02 0.45403314E+03</pdfrwt>
<pdfrwt beam="2">  1       21 0.18775330E+00 0.45403314E+03</pdfrwt>
<totfact> 0.28838631E+04</totfact>
</mgrwt>
</event>
<event>
 7    0  0.4775379E-002  0.4553363E+03  0.7546771E-02  0.1026143E+00
         21   -1    0    0  502  501  0.00000000000E+00  0.00000000000E+00  0.92705234666E+03  0.92705234666E+03  0.00000000000E+00 0. -1.
         21   -1    0    0  501  502 -0.00000000000E+00 -0.00000000000E+00 -0.55911402879E+02  0.55911402879E+02  0.00000000000E+00 0. -1.
      99926    2    1    2    0    0  0.00000000000E+00 -0.14210854715E-13  0.87114094378E+03  0.98296374954E+03  0.45533634708E+03 0.  0.
      99925    2    3    3    0    0  0.75151768730E+02 -0.84189620878E+02  0.57483396452E+03  0.64211038713E+03  0.26293722043E+03 0.  0.
         25    1    4    4    0    0  0.61265660122E+02 -0.74816389002E+02  0.35515038905E+03  0.38875478147E+03  0.12509000000E+03 0.  0.
         25    1    4    4    0    0  0.13886108608E+02 -0.93732318761E+01  0.21968357547E+03  0.25335560566E+03  0.12509000000E+03 0.  0.
         25    1    3    3    0    0 -0.75151768730E+02  0.84189620878E+02  0.29630697926E+03  0.34085336241E+03  0.12509000000E+03 0.  0.
<mgrwt>
<rscale>  2 0.45533635E+03</rscale>
<asrwt>0</asrwt>
<pdfrwt beam="1">  1       21 0.13633122E+00 0.45533635E+03</pdfrwt>
<pdfrwt beam="2">  1       21 0.82222657E-02 0.45533635E+03</pdfrwt>
<totfact> 0.39729278E+04</totfact>
</mgrwt>
</event>
<event>
 7    0  0.4775379E-002  0.4516808E+03  0.7546771E-02  0.1027222E+00
         21   -1    0    0  502  501  0.00000000000E+00  0.00000000000E+00  0.27570892209E+04  0.27570892209E+04  0.00000000000E+00 0.  1.
         21   -1    0    0  501  502 -0.00000000000E+00 -0.00000000000E+00 -0.18499181665E+02  0.18499181665E+02  0.00000000000E+00 0.  1.
      99926    2    1    2    0    0  0.00000000000E+00  0.00000000000E+00  0.27385900392E+04  0.27755884026E+04  0.45168083583E+03 0.  0.
      99925    2    3    3    0    0 -0.74281724490E+02  0.32647025577E+02  0.21849370003E+04  0.22022099948E+04  0.26305049522E+03 0.  0.
         25    1    4    4    0    0  0.17658230043E+01  0.42358963750E+01  0.10903384800E+04  0.10975001458E+04  0.12509000000E+03 0.  0.
         25    1    3    3    0    0  0.74281724490E+02 -0.32647025577E+02  0.55365303896E+03  0.57337840779E+03  0.12509000000E+03 0.  0.
         25    1    4    4    0    0 -0.76047547495E+02  0.28411129202E+02  0.10945985203E+04  0.11047098490E+04  0.12509000000E+03 0.  0.
<mgrwt>
<rscale>  2 0.45168084E+03</rscale>
<asrwt>0</asrwt>
<pdfrwt beam="1">  1       21 0.40545401E+00 0.45168084E+03</pdfrwt>
<pdfrwt beam="2">  1       21 0.27204698E-02 0.45168084E+03</pdfrwt>
<totfact> 0.48266654E+03</totfact>
</mgrwt>
</event>
<event>
 7    0  0.4775379E-002  0.4583398E+03  0.7546771E-02  0.1025264E+00
         21   -1    0    0  502  501  0.00000000000E+00  0.00000000000E+00  0.46113576141E+03  0.46113576141E+03  0.00000000000E+00 0. -1.
         21   -1    0    0  501  502 -0.00000000000E+00 -0.00000000000E+00 -0.11389019629E+03  0.11389019629E+03  0.00000000000E+00 0. -1.
      99926    2    1    2    0    0  0.00000000000E+00  0.00000000000E+00  0.34724556511E+03  0.57502595770E+03  0.45833979703E+03 0.  0.
      99925    2    3    3    0    0  0.11005632921E+03 -0.32618352867E+02  0.19473615017E+03  0.34680899451E+03  0.26301702977E+03 0.  0.
         25    1    4    4    0    0  0.72366128852E+02  0.27435396678E+01  0.62128105368E+02  0.15732702626E+03  0.12509000000E+03 0.  0.
         25    1    3    3    0    0 -0.11005632921E+03  0.32618352867E+02  0.15250941495E+03  0.22821696320E+03  0.12509000000E+03 0.  0.
         25    1    4    4    0    0  0.37690200354E+02 -0.35361892535E+02  0.13260804480E+03  0.18948196825E+03  0.12509000000E+03 0.  0.
<mgrwt>
<rscale>  2 0.45833980E+03</rscale>
<asrwt>0</asrwt>
<pdfrwt beam="1">  1       21 0.67814082E-01 0.45833980E+03</pdfrwt>
<pdfrwt beam="2">  1       21 0.16748558E-01 0.45833980E+03</pdfrwt>
<totfact> 0.58677503E+04</totfact>
</mgrwt>
</event>
<event>
 7    0  0.4775379E-002  0.4044293E+03  0.7546771E-02  0.1042257E+00
         21   -1    0    0  502  501  0.00000000000E+00  0.00000000000E+00  0.11845666517E+04  0.11845666517E+04  0.00000000000E+00 0. -1.
         21   -1    0    0  501  502 -0.00000000000E+00 -0.00000000000E+00 -0.34519600209E+02  0.34519600209E+02  0.00000000000E+00 0. -1.
      99926    2    1    2    0    0  0.00000000000E+00  0.00000000000E+00  0.11500470515E+04  0.12190862519E+04  0.40442931267E+03 0.  0.
      99925    2    3    3    0    0  0.15788902646E+02  0.48143694776E+02  0.71131283938E+03  0.76006302617E+03  0.26298810521E+03 0.  0.
         25    1    3    3    0    0 -0.15788902646E+02 -0.48143694776E+02  0.43873421209E+03  0.45902322572E+03  0.12509000000E+03 0.  0.
         25    1    4    4    0    0 -0.12564232928E+02  0.25509103183E+02  0.25387501901E+03  0.28444438415E+03  0.12509000000E+03 0.  0.
         25    1    4    4    0    0  0.28353135574E+02  0.22634591593E+02  0.45743782037E+03  0.47561864202E+03  0.12509000000E+03 0.  0.
<mgrwt>
<rscale>  2 0.40442931E+03</rscale>
<asrwt>0</asrwt>
<pdfrwt beam="1">  1       21 0.17420095E+00 0.40442931E+03</pdfrwt>
<pdfrwt beam="2">  1       21 0.50764126E-02 0.40442931E+03</pdfrwt>
<totfact> 0.47774563E+04</totfact>
</mgrwt>
</event>
<event>
 7    0  0.4775379E-002  0.4595606E+03  0.7546771E-02  0.1024909E+00
         21   -1    0    0  502  501  0.00000000000E+00  0.00000000000E+00  0.23220882085E+03  0.23220882085E+03  0.00000000000E+00 0. -1.
         21   -1    0    0  501  502 -0.00000000000E+00 -0.00000000000E+00 -0.22737717290E+03  0.22737717290E+03  0.00000000000E+00 0. -1.
      99926    2    1    2    0    0  0.00000000000E+00  0.00000000000E+00  0.48316479502E+01  0.45958599376E+03  0.45956059539E+03 0.  0.
      99925    2    3    3    0    0 -0.78812612498E+02 -0.74338190254E+02 -0.42187301290E+02  0.28755145040E+03  0.26299899966E+03 0.  0.
         25    1    4    4    0    0 -0.81375708373E+02 -0.38174149691E+02 -0.17948481277E+02  0.15507716691E+03  0.12509000000E+03 0.  0.
         25    1    3    3    0    0  0.78812612498E+02  0.74338190254E+02  0.47018949241E+02  0.17203454335E+03  0.12509000000E+03 0.  0.
         25    1    4    4    0    0  0.25630958750E+01 -0.36164040563E+02 -0.24238820014E+02  0.13247428349E+03  0.12509000000E+03 0.  0.
<mgrwt>
<rscale>  2 0.45956060E+03</rscale>
<asrwt>0</asrwt>
<pdfrwt beam="1">  1       21 0.34148356E-01 0.45956060E+03</pdfrwt>
<pdfrwt beam="2">  1       21 0.33437820E-01 0.45956060E+03</pdfrwt>
<totfact> 0.65784516E+04</totfact>
</mgrwt>
</event>
<event>
 7    0  0.4775379E-002  0.4591968E+03  0.7546771E-02  0.1025014E+00
         21   -1    0    0  502  501  0.00000000000E+00  0.00000000000E+00  0.14241001151E+03  0.14241001151E+03  0.00000000000E+00 0.  1.
         21   -1    0    0  501  502 -0.00000000000E+00 -0.00000000000E+00 -0.37016664113E+03  0.37016664113E+03  0.00000000000E+00 0.  1.
      99926    2    1    2    0    0  0.26645352591E-14  0.00000000000E+00 -0.22775662963E+03  0.51257665264E+03  0.45919684504E+03 0.  0.
      99925    2    3    3    0    0  0.55681967574E+01  0.81205340728E+01 -0.12677210349E+02  0.26357140654E+03  0.26308216738E+03 0.  0.
         25    1    3    3    0    0 -0.55681967574E+01 -0.81205340728E+01 -0.21507941928E+03  0.24900524610E+03  0.12509000000E+03 0.  0.
         25    1    4    4    0    0 -0.16894845716E+02  0.71866699729E+01 -0.41841287186E+02  0.13317389177E+03  0.12509000000E+03 0.  0.
         25    1    4    4    0    0  0.22463042474E+02  0.93386409997E+00  0.29164076837E+02  0.13039751477E+03  0.12509000000E+03 0.  0.
<mgrwt>
<rscale>  2 0.45919685E+03</rscale>
<asrwt>0</asrwt>
<pdfrwt beam="1">  1       21 0.20942649E-01 0.45919685E+03</pdfrwt>
<pdfrwt beam="2">  1       21 0.54436270E-01 0.45919685E+03</pdfrwt>
<totfact> 0.62294968E+04</totfact>
</mgrwt>
</event>
<event>
 7    0  0.4775379E-002  0.4469912E+03  0.7546771E-02  0.1028623E+00
         21   -1    0    0  502  501  0.00000000000E+00  0.00000000000E+00  0.44506393959E+02  0.44506393959E+02  0.00000000000E+00 0. -1.
         21   -1    0    0  501  502 -0.00000000000E+00 -0.00000000000E+00 -0.11223171212E+04  0.11223171212E+04  0.00000000000E+00 0. -1.
      99926    2    1    2    0    0  0.00000000000E+00  0.00000000000E+00 -0.10778107272E+04  0.11668235151E+04  0.44699122113E+03 0.  0.
      99925    2    3    3    0    0  0.73541377995E+02 -0.46726659511E+02 -0.83852426317E+03  0.88310316873E+03  0.26297633299E+03 0.  0.
         25    1    4    4    0    0  0.72949676784E+02 -0.43299377513E+02 -0.42609527896E+03  0.45210749417E+03  0.12509000000E+03 0.  0.
         25    1    3    3    0    0 -0.73541377995E+02  0.46726659511E+02 -0.23928646405E+03  0.28372034641E+03  0.12509000000E+03 0.  0.
         25    1    4    4    0    0  0.59170121122E+00 -0.34272819975E+01 -0.41242898421E+03  0.43099567456E+03  0.12509000000E+03 0.  0.
<mgrwt>
<rscale>  2 0.44699122E+03</rscale>
<asrwt>0</asrwt>
<pdfrwt beam="1">  1       21 0.65450577E-02 0.44699122E+03</pdfrwt>
<pdfrwt beam="2">  1       21 0.16504664E+00 0.44699122E+03</pdfrwt>
<totfact> 0.35382706E+04</totfact>
</mgrwt>
</event>
<event>
 7    0  0.4775379E-002  0.4422118E+03  0.7546771E-02  0.1030070E+00
         21   -1    0    0  502  501  0.00000000000E+00  0.00000000000E+00  0.21528741253E+03  0.21528741253E+03  0.00000000000E+00 0.  1.
         21   -1    0    0  501  502 -0.00000000000E+00 -0.00000000000E+00 -0.22708168543E+03  0.22708168543E+03  0.00000000000E+00 0.  1.
      99926    2    1    2    0    0  0.00000000000E+00  0.00000000000E+00 -0.11794272906E+02  0.44236909796E+03  0.44221184285E+03 0.  0.
      99925    2    3    3    0    0  0.98227194990E+02  0.76456978339E+01 -0.26720419165E+02  0.28243993716E+03  0.26334634756E+03 0.  0.
         25    1    4    4    0    0  0.48546907885E+02 -0.11711550640E+01 -0.54318794672E+02  0.14476261059E+03  0.12509000000E+03 0.  0.
         25    1    4    4    0    0  0.49680287105E+02  0.88168528979E+01  0.27598375507E+02  0.13767732657E+03  0.12509000000E+03 0.  0.
         25    1    3    3    0    0 -0.98227194990E+02 -0.76456978339E+01  0.14926146259E+02  0.15992916080E+03  0.12509000000E+03 0.  0.
<mgrwt>
<rscale>  2 0.44221184E+03</rscale>
<asrwt>0</asrwt>
<pdfrwt beam="1">  1       21 0.31659914E-01 0.44221184E+03</pdfrwt>
<pdfrwt beam="2">  1       21 0.33394365E-01 0.44221184E+03</pdfrwt>
<totfact> 0.77047813E+04</totfact>
</mgrwt>
</event>
<event>
 7    0  0.4775379E-002  0.4649647E+03  0.7546771E-02  0.1023351E+00
         21   -1    0    0  502  501  0.00000000000E+00  0.00000000000E+00  0.72991510615E+02  0.72991510615E+02  0.00000000000E+00 0. -1.
         21   -1    0    0  501  502 -0.00000000000E+00 -0.00000000000E+00 -0.74047031630E+03  0.74047031630E+03  0.00000000000E+00 0. -1.
      99926    2    1    2    0    0  0.00000000000E+00 -0.71054273576E-14 -0.66747880569E+03  0.81346182692E+03  0.46496471674E+03 0.  0.
      99925    2    3    3    0    0 -0.47276532778E+02  0.40783107510E+02 -0.60082101282E+03  0.65857767066E+03  0.26237440126E+03 0.  0.
         25    1    3    3    0    0  0.47276532778E+02 -0.40783107510E+02 -0.66657792866E+02  0.15488415626E+03  0.12509000000E+03 0.  0.
         25    1    4    4    0    0 -0.89338167515E+01 -0.96262229733E+00 -0.36170432970E+03  0.38282929609E+03  0.12509000000E+03 0.  0.
         25    1    4    4    0    0 -0.38342716027E+02  0.41745729807E+02 -0.23911668312E+03  0.27574837457E+03  0.12509000000E+03 0.  0.
<mgrwt>
<rscale>  2 0.46496472E+03</rscale>
<asrwt>0</asrwt>
<pdfrwt beam="1">  1       21 0.10734045E-01 0.46496472E+03</pdfrwt>
<pdfrwt beam="2">  1       21 0.10889270E+00 0.46496472E+03</pdfrwt>
<totfact> 0.43609285E+04</totfact>
</mgrwt>
</event>
<event>
 7    0  0.4775379E-002  0.4535898E+03  0.7546771E-02  0.1026657E+00
         21   -1    0    0  502  501  0.00000000000E+00  0.00000000000E+00  0.25070705960E+04  0.25070705960E+04  0.00000000000E+00 0. -1.
         21   -1    0    0  501  502 -0.00000000000E+00 -0.00000000000E+00 -0.20516347223E+02  0.20516347223E+02  0.00000000000E+00 0. -1.
      99926    2    1    2    0    0  0.55511151231E-15 -0.14210854715E-13  0.24865542488E+04  0.25275869432E+04  0.45358981850E+03 0.  0.
      99925    2    3    3    0    0  0.75834590602E+00 -0.11125766042E+03  0.16239874043E+04  0.16489243735E+04  0.26313049653E+03 0.  0.
         25    1    4    4    0    0  0.12409503891E+02 -0.64642402611E+02  0.61246068225E+03  0.62856044372E+03  0.12509000000E+03 0.  0.
         25    1    3    3    0    0 -0.75834590602E+00  0.11125766042E+03  0.86256684446E+03  0.87866256967E+03  0.12509000000E+03 0.  0.
         25    1    4    4    0    0 -0.11651157985E+02 -0.46615257811E+02  0.10115267221E+04  0.10203639298E+04  0.12509000000E+03 0.  0.
<mgrwt>
<rscale>  2 0.45358982E+03</rscale>
<asrwt>0</asrwt>
<pdfrwt beam="1">  1       21 0.36868664E+00 0.45358982E+03</pdfrwt>
<pdfrwt beam="2">  1       21 0.30171116E-02 0.45358982E+03</pdfrwt>
<totfact> 0.69293036E+03</totfact>
</mgrwt>
</event>
<event>
 7    0  0.4775379E-002  0.4578947E+03  0.7546771E-02  0.1025394E+00
         21   -1    0    0  502  501  0.00000000000E+00  0.00000000000E+00  0.94529150158E+02  0.94529150158E+02  0.00000000000E+00 0. -1.
         21   -1    0    0  501  502 -0.00000000000E+00 -0.00000000000E+00 -0.55450508487E+03  0.55450508487E+03  0.00000000000E+00 0. -1.
      99926    2    1    2    0    0  0.00000000000E+00  0.00000000000E+00 -0.45997593472E+03  0.64903423503E+03  0.45789472341E+03 0.  0.
      99925    2    3    3    0    0  0.96542214545E+02  0.29628067478E+02 -0.36784061429E+03  0.46373812891E+03  0.26371976247E+03 0.  0.
         25    1    4    4    0    0  0.29240507138E+02  0.55686459663E+01 -0.23446943991E+03  0.26741249676E+03  0.12509000000E+03 0.  0.
         25    1    3    3    0    0 -0.96542214545E+02 -0.29628067478E+02 -0.92135320428E+02  0.18529610612E+03  0.12509000000E+03 0.  0.
         25    1    4    4    0    0  0.67301707407E+02  0.24059421512E+02 -0.13337117438E+03  0.19632563215E+03  0.12509000000E+03 0.  0.
<mgrwt>
<rscale>  2 0.45789472E+03</rscale>
<asrwt>0</asrwt>
<pdfrwt beam="1">  1       21 0.13901345E-01 0.45789472E+03</pdfrwt>
<pdfrwt beam="2">  1       21 0.81544868E-01 0.45789472E+03</pdfrwt>
<totfact> 0.54501763E+04</totfact>
</mgrwt>
</event>
<event>
 7    0  0.4775379E-002  0.4496320E+03  0.7546771E-02  0.1027832E+00
         21   -1    0    0  502  501  0.00000000000E+00  0.00000000000E+00  0.62529867367E+02  0.62529867367E+02  0.00000000000E+00 0. -1.
         21   -1    0    0  501  502 -0.00000000000E+00 -0.00000000000E+00 -0.80828964994E+03  0.80828964994E+03  0.00000000000E+00 0. -1.
      99926    2    1    2    0    0  0.00000000000E+00  0.00000000000E+00 -0.74575978257E+03  0.87081951731E+03  0.44963204781E+03 0.  0.
      99925    2    3    3    0    0  0.38500248504E+02  0.59357556601E+02 -0.62947152267E+03  0.68595184531E+03  0.26322983790E+03 0.  0.
         25    1    4    4    0    0 -0.13482723843E+02  0.52087572756E+02 -0.28998023444E+03  0.32036064606E+03  0.12509000000E+03 0.  0.
         25    1    3    3    0    0 -0.38500248504E+02 -0.59357556601E+02 -0.11628825990E+03  0.18486767200E+03  0.12509000000E+03 0.  0.
         25    1    4    4    0    0  0.51982972347E+02  0.72699838450E+01 -0.33949128824E+03  0.36559119925E+03  0.12509000000E+03 0.  0.
<mgrwt>
<rscale>  2 0.44963205E+03</rscale>
<asrwt>0</asrwt>
<pdfrwt beam="1">  1       21 0.91955685E-02 0.44963205E+03</pdfrwt>
<pdfrwt beam="2">  1       21 0.11886613E+00 0.44963205E+03</pdfrwt>
<totfact> 0.46441607E+04</totfact>
</mgrwt>
</event>
<event>
 7    0  0.4775379E-002  0.4523541E+03  0.7546771E-02  0.1027022E+00
         21   -1    0    0  502  501  0.00000000000E+00  0.00000000000E+00  0.40125006783E+02  0.40125006783E+02  0.00000000000E+00 0.  1.
         21   -1    0    0  501  502 -0.00000000000E+00 -0.00000000000E+00 -0.12749169499E+04  0.12749169499E+04  0.00000000000E+00 0.  1.
      99926    2    1    2    0    0  0.00000000000E+00  0.00000000000E+00 -0.12347919431E+04  0.13150419567E+04  0.45235407045E+03 0.  0.
      99925    2    3    3    0    0  0.73226040502E+02  0.20586014851E+02 -0.54493952987E+03  0.60982589250E+03  0.26294997801E+03 0.  0.
         25    1    4    4    0    0  0.39800274088E+01  0.13353029586E+02 -0.31173851064E+03  0.33618826739E+03  0.12509000000E+03 0.  0.
         25    1    4    4    0    0  0.69246013093E+02  0.72329852651E+01 -0.23320101923E+03  0.27363762511E+03  0.12509000000E+03 0.  0.
         25    1    3    3    0    0 -0.73226040502E+02 -0.20586014851E+02 -0.68985241326E+03  0.70521606419E+03  0.12509000000E+03 0.  0.
<mgrwt>
<rscale>  2 0.45235407E+03</rscale>
<asrwt>0</asrwt>
<pdfrwt beam="1">  1       21 0.59007360E-02 0.45235407E+03</pdfrwt>
<pdfrwt beam="2">  1       21 0.18748780E+00 0.45235407E+03</pdfrwt>
<totfact> 0.29278757E+04</totfact>
</mgrwt>
</event>
<event>
 7    0  0.4775379E-002  0.4466164E+03  0.7546771E-02  0.1028736E+00
         21   -1    0    0  502  501  0.00000000000E+00  0.00000000000E+00  0.27871323500E+03  0.27871323500E+03  0.00000000000E+00 0.  1.
         21   -1    0    0  501  502 -0.00000000000E+00 -0.00000000000E+00 -0.17891706299E+03  0.17891706299E+03  0.00000000000E+00 0.  1.
      99926    2    1    2    0    0 -0.22204460493E-15  0.14210854715E-13  0.99796172006E+02  0.45763029799E+03  0.44661640554E+03 0.  0.
      99925    2    3    3    0    0 -0.11044314802E+01  0.10491736263E+03  0.70375134201E+02  0.29173280459E+03  0.26295721517E+03 0.  0.
         25    1    4    4    0    0  0.12577178299E+02  0.93670290822E+02  0.38842050402E+02  0.16151941610E+03  0.12509000000E+03 0.  0.
         25    1    4    4    0    0 -0.13681609779E+02  0.11247071811E+02  0.31533083798E+02  0.13021338850E+03  0.12509000000E+03 0.  0.
         25    1    3    3    0    0  0.11044314802E+01 -0.10491736263E+03  0.29421037805E+02  0.16589749340E+03  0.12509000000E+03 0.  0.
<mgrwt>
<rscale>  2 0.44661641E+03</rscale>
<asrwt>0</asrwt>
<pdfrwt beam="1">  1       21 0.40987241E-01 0.44661641E+03</pdfrwt>
<pdfrwt beam="2">  1       21 0.26311333E-01 0.44661641E+03</pdfrwt>
<totfact> 0.73109218E+04</totfact>
</mgrwt>
</event>
<event>
 7    0  0.4775379E-002  0.4534729E+03  0.7546771E-02  0.1026691E+00
         21   -1    0    0  502  501  0.00000000000E+00  0.00000000000E+00  0.17623621421E+03  0.17623621421E+03  0.00000000000E+00 0.  1.
         21   -1    0    0  501  502 -0.00000000000E+00 -0.00000000000E+00 -0.29170749519E+03  0.29170749519E+03  0.00000000000E+00 0.  1.
      99926    2    1    2    0    0  0.00000000000E+00  0.00000000000E+00 -0.11547128098E+03  0.46794370941E+03  0.45347293022E+03 0.  0.
      99925    2    3    3    0    0 -0.78136245086E+02  0.57506048204E+02 -0.12985778295E+03  0.30898869088E+03  0.26305655081E+03 0.  0.
         25    1    4    4    0    0 -0.96142201004E+01  0.29017525858E+02 -0.29002183359E+02  0.13199653319E+03  0.12509000000E+03 0.  0.
         25    1    3    3    0    0  0.78136245086E+02 -0.57506048204E+02  0.14386501971E+02  0.15895501853E+03  0.12509000000E+03 0.  0.
         25    1    4    4    0    0 -0.68522024986E+02  0.28488522345E+02 -0.10085559959E+03  0.17699215769E+03  0.12509000000E+03 0.  0.
<mgrwt>
<rscale>  2 0.45347293E+03</rscale>
<asrwt>0</asrwt>
<pdfrwt beam="1">  1       21 0.25917090E-01 0.45347293E+03</pdfrwt>
<pdfrwt beam="2">  1       21 0.42898161E-01 0.45347293E+03</pdfrwt>
<totfact> 0.68413993E+04</totfact>
</mgrwt>
</event>
<event>
 7    0  0.4775379E-002  0.4505217E+03  0.7546771E-02  0.1027567E+00
         21   -1    0    0  502  501  0.00000000000E+00  0.00000000000E+00  0.35246366758E+03  0.35246366758E+03  0.00000000000E+00 0. -1.
         21   -1    0    0  501  502 -0.00000000000E+00 -0.00000000000E+00 -0.14396505084E+03  0.14396505084E+03  0.00000000000E+00 0. -1.
      99926    2    1    2    0    0  0.71054273576E-14 -0.14210854715E-13  0.20849861675E+03  0.49642871842E+03  0.45052169680E+03 0.  0.
      99925    2    3    3    0    0 -0.41965332663E+02  0.70791726572E+02  0.21040011302E+03  0.34668332956E+03  0.26296114873E+03 0.  0.
         25    1    4    4    0    0 -0.93466895531E+01  0.22349454659E+02  0.54882104205E+02  0.13873143909E+03  0.12509000000E+03 0.  0.
         25    1    4    4    0    0 -0.32618643110E+02  0.48442271913E+02  0.15551800881E+03  0.20795189047E+03  0.12509000000E+03 0.  0.
         25    1    3    3    0    0  0.41965332663E+02 -0.70791726572E+02 -0.19014962695E+01  0.14974538886E+03  0.12509000000E+03 0.  0.
<mgrwt>
<rscale>  2 0.45052170E+03</rscale>
<asrwt>0</asrwt>
<pdfrwt beam="1">  1       21 0.51832892E-01 0.45052170E+03</pdfrwt>
<pdfrwt beam="2">  1       21 0.21171331E-01 0.45052170E+03</pdfrwt>
<totfact> 0.67904337E+04</totfact>
</mgrwt>
</event>
<event>
 7    0  0.4775379E-002  0.4490109E+03  0.7546771E-02  0.1028017E+00
         21   -1    0    0  502  501  0.00000000000E+00  0.00000000000E+00  0.35444503886E+03  0.35444503886E+03  0.00000000000E+00 0.  1.
         21   -1    0    0  501  502 -0.00000000000E+00 -0.00000000000E+00 -0.14220169857E+03  0.14220169857E+03  0.00000000000E+00 0.  1.
      99926    2    1    2    0    0  0.00000000000E+00  0.71054273576E-14  0.21224334029E+03  0.49664673744E+03  0.44901085322E+03 0.  0.
      99925    2    3    3    0    0  0.18755071800E+02 -0.16806445641E+02  0.18877584869E+02  0.26497448445E+03  0.26309865995E+03 0.  0.
         25    1    4    4    0    0  0.79146289451E+01 -0.49166159288E+02  0.10007813224E+02  0.13500969223E+03  0.12509000000E+03 0.  0.
         25    1    3    3    0    0 -0.18755071800E+02  0.16806445641E+02  0.19336575542E+03  0.23167225298E+03  0.12509000000E+03 0.  0.
         25    1    4    4    0    0  0.10840442855E+02  0.32359713647E+02  0.88697716451E+01  0.12996479222E+03  0.12509000000E+03 0.  0.
<mgrwt>
<rscale>  2 0.44901085E+03</rscale>
<asrwt>0</asrwt>
<pdfrwt beam="1">  1       21 0.52124270E-01 0.44901085E+03</pdfrwt>
<pdfrwt beam="2">  1       21 0.20912015E-01 0.44901085E+03</pdfrwt>
<totfact> 0.68716138E+04</totfact>
</mgrwt>
</event>
<event>
 7    0  0.4775379E-002  0.4577279E+03  0.7546771E-02  0.1025442E+00
         21   -1    0    0  502  501  0.00000000000E+00  0.00000000000E+00  0.13899074099E+03  0.13899074099E+03  0.00000000000E+00 0.  1.
         21   -1    0    0  501  502 -0.00000000000E+00 -0.00000000000E+00 -0.37685025624E+03  0.37685025624E+03  0.00000000000E+00 0.  1.
      99926    2    1    2    0    0  0.00000000000E+00  0.00000000000E+00 -0.23785951525E+03  0.51584099723E+03  0.45772785083E+03 0.  0.
      99925    2    3    3    0    0 -0.94874048171E+02 -0.45748552065E+02 -0.20322936732E+03  0.34868606826E+03  0.26303190572E+03 0.  0.
         25    1    4    4    0    0 -0.69688114092E+02 -0.54484242265E+01 -0.68607203254E+02  0.15887282653E+03  0.12509000000E+03 0.  0.
         25    1    4    4    0    0 -0.25185934079E+02 -0.40300127838E+02 -0.13462216406E+03  0.18981324173E+03  0.12509000000E+03 0.  0.
         25    1    3    3    0    0  0.94874048171E+02  0.45748552065E+02 -0.34630147931E+02  0.16715492897E+03  0.12509000000E+03 0.  0.
<mgrwt>
<rscale>  2 0.45772785E+03</rscale>
<asrwt>0</asrwt>
<pdfrwt beam="1">  1       21 0.20439815E-01 0.45772785E+03</pdfrwt>
<pdfrwt beam="2">  1       21 0.55419156E-01 0.45772785E+03</pdfrwt>
<totfact> 0.62801055E+04</totfact>
</mgrwt>
</event>
<event>
 7    0  0.4775379E-002  0.4529754E+03  0.7546771E-02  0.1026838E+00
         21   -1    0    0  502  501  0.00000000000E+00  0.00000000000E+00  0.21346611055E+03  0.21346611055E+03  0.00000000000E+00 0.  1.
         21   -1    0    0  501  502 -0.00000000000E+00 -0.00000000000E+00 -0.24030362281E+03  0.24030362281E+03  0.00000000000E+00 0.  1.
      99926    2    1    2    0    0  0.00000000000E+00  0.00000000000E+00 -0.26837512268E+02  0.45376973336E+03  0.45297540645E+03 0.  0.
      99925    2    3    3    0    0 -0.99036301167E+01  0.10807230876E+03 -0.40146518447E+02  0.28763020298E+03  0.26332809366E+03 0.  0.
         25    1    4    4    0    0 -0.30734256484E+02  0.19990492386E+02 -0.15416898229E+02  0.13126082111E+03  0.12509000000E+03 0.  0.
         25    1    4    4    0    0  0.20830626367E+02  0.88081816372E+02 -0.24729620217E+02  0.15636938187E+03  0.12509000000E+03 0.  0.
         25    1    3    3    0    0  0.99036301167E+01 -0.10807230876E+03  0.13309006179E+02  0.16613953038E+03  0.12509000000E+03 0.  0.
<mgrwt>
<rscale>  2 0.45297541E+03</rscale>
<asrwt>0</asrwt>
<pdfrwt beam="1">  1       21 0.31392075E-01 0.45297541E+03</pdfrwt>
<pdfrwt beam="2">  1       21 0.35338768E-01 0.45297541E+03</pdfrwt>
<totfact> 0.69756087E+04</totfact>
</mgrwt>
</event>
<event>
 7    0  0.4775379E-002  0.4645317E+03  0.7546771E-02  0.1023475E+00
         21   -1    0    0  502  501  0.00000000000E+00  0.00000000000E+00  0.36246849558E+03  0.36246849558E+03  0.00000000000E+00 0. -1.
         21   -1    0    0  501  502 -0.00000000000E+00 -0.00000000000E+00 -0.14883343340E+03  0.14883343340E+03  0.00000000000E+00 0. -1.
      99926    2    1    2    0    0  0.00000000000E+00 -0.35527136788E-14  0.21363506218E+03  0.51130192897E+03  0.46453172419E+03 0.  0.
      99925    2    3    3    0    0  0.41382612077E+02  0.31999604910E+02  0.12072509631E+02  0.26837917173E+03  0.26295463303E+03 0.  0.
         25    1    4    4    0    0  0.12976043403E+02  0.55321915190E+02 -0.54260403447E+00  0.13739248350E+03  0.12509000000E+03 0.  0.
         25    1    3    3    0    0 -0.41382612077E+02 -0.31999604910E+02  0.20156255255E+03  0.24292275725E+03  0.12509000000E+03 0.  0.
         25    1    4    4    0    0  0.28406568673E+02 -0.23322310280E+02  0.12615113666E+02  0.13098668823E+03  0.12509000000E+03 0.  0.
<mgrwt>
<rscale>  2 0.46453172E+03</rscale>
<asrwt>0</asrwt>
<pdfrwt beam="1">  1       21 0.53304191E-01 0.46453172E+03</pdfrwt>
<pdfrwt beam="2">  1       21 0.21887270E-01 0.46453172E+03</pdfrwt>
<totfact> 0.59827768E+04</totfact>
</mgrwt>
</event>
<event>
 6    0  0.4775379E-002  0.4559639E+03  0.7546771E-02  0.1025958E+00
         21   -1    0    0  502  501  0.00000000000E+00  0.00000000000E+00  0.45113839415E+03  0.45113839415E+03  0.00000000000E+00 0.  1.
         21   -1    0    0  501  502 -0.00000000000E+00 -0.00000000000E+00 -0.11521023597E+03  0.11521023597E+03  0.00000000000E+00 0.  1.
      99926    2    1    2    0    0 -0.19984014443E-14  0.00000000000E+00  0.33592815818E+03  0.56634863011E+03  0.45596386191E+03 0.  0.
         25    1    3    3    0    0  0.67374356925E+02 -0.19091914989E+02  0.38960748096E+02  0.14855723874E+03  0.12509000000E+03 0.  0.
         25    1    3    3    0    0 -0.12579055622E+01  0.38559261995E+02  0.21882450014E+03  0.25499033114E+03  0.12509000000E+03 0.  0.
         25    1    3    3    0    0 -0.66116451363E+02 -0.19467347006E+02  0.78142909947E+02  0.16280106024E+03  0.12509000000E+03 0.  0.
<mgrwt>
<rscale>  2 0.45596386E+03</rscale>
<asrwt>0</asrwt>
<pdfrwt beam="1">  1       21 0.66343881E-01 0.45596386E+03</pdfrwt>
<pdfrwt beam="2">  1       21 0.16942682E-01 0.45596386E+03</pdfrwt>
<totfact> 0.60337675E+04</totfact>
</mgrwt>
</event>
<event>
 7    0  0.4775379E-002  0.4697319E+03  0.7546771E-02  0.1021996E+00
         21   -1    0    0  502  501  0.00000000000E+00  0.00000000000E+00  0.28779228241E+03  0.28779228241E+03  0.00000000000E+00 0. -1.
         21   -1    0    0  501  502 -0.00000000000E+00 -0.00000000000E+00 -0.19167302131E+03  0.19167302131E+03  0.00000000000E+00 0. -1.
      99926    2    1    2    0    0 -0.14210854715E-13 -0.71054273576E-14  0.96119261101E+02  0.47946530371E+03  0.46973190770E+03 0.  0.
      99925    2    3    3    0    0  0.86756576966E+02  0.62784710698E+02 -0.94696862914E+01  0.28385048460E+03  0.26270287229E+03 0.  0.
         25    1    4    4    0    0  0.37528839304E+01  0.36233872902E+02  0.72206002317E+01  0.13048610214E+03  0.12509000000E+03 0.  0.
         25    1    3    3    0    0 -0.86756576966E+02 -0.62784710698E+02  0.10558894739E+03  0.19561481911E+03  0.12509000000E+03 0.  0.
         25    1    4    4    0    0  0.83003693036E+02  0.26550837796E+02 -0.16690286523E+02  0.15336438247E+03  0.12509000000E+03 0.  0.
<mgrwt>
<rscale>  2 0.46973191E+03</rscale>
<asrwt>0</asrwt>
<pdfrwt beam="1">  1       21 0.42322395E-01 0.46973191E+03</pdfrwt>
<pdfrwt beam="2">  1       21 0.28187209E-01 0.46973191E+03</pdfrwt>
<totfact> 0.59473897E+04</totfact>
</mgrwt>
</event>
<event>
 7    0  0.4775379E-002  0.4489357E+03  0.7546771E-02  0.1028040E+00
         21   -1    0    0  502  501  0.00000000000E+00  0.00000000000E+00  0.26619876642E+03  0.26619876642E+03  0.00000000000E+00 0. -1.
         21   -1    0    0  501  502 -0.00000000000E+00 -0.00000000000E+00 -0.18927888153E+03  0.18927888153E+03  0.00000000000E+00 0. -1.
      99926    2    1    2    0    0  0.00000000000E+00  0.00000000000E+00  0.76919884893E+02  0.45547764795E+03  0.44893565139E+03 0.  0.
      99925    2    3    3    0    0  0.10060797725E+03 -0.24567043798E+02  0.77688172784E+02  0.29307813104E+03  0.26293313594E+03 0.  0.
         25    1    4    4    0    0  0.85676535216E+02 -0.21459895181E+02  0.19807360195E+02  0.15440477779E+03  0.12509000000E+03 0.  0.
         25    1    4    4    0    0  0.14931442030E+02 -0.31071486172E+01  0.57880812589E+02  0.13867335324E+03  0.12509000000E+03 0.  0.
         25    1    3    3    0    0 -0.10060797725E+03  0.24567043798E+02 -0.76828789075E+00  0.16239951691E+03  0.12509000000E+03 0.  0.
<mgrwt>
<rscale>  2 0.44893565E+03</rscale>
<asrwt>0</asrwt>
<pdfrwt beam="1">  1       21 0.39146878E-01 0.44893565E+03</pdfrwt>
<pdfrwt beam="2">  1       21 0.27835130E-01 0.44893565E+03</pdfrwt>
<totfact> 0.71927220E+04</totfact>
</mgrwt>
</event>
<event>
 7    0  0.4775379E-002  0.4607300E+03  0.7546771E-02  0.1024570E+00
         21   -1    0    0  502  501  0.00000000000E+00  0.00000000000E+00  0.24861731391E+03  0.24861731391E+03  0.00000000000E+00 0.  1.
         21   -1    0    0  501  502 -0.00000000000E+00 -0.00000000000E+00 -0.21345265287E+03  0.21345265287E+03  0.00000000000E+00 0.  1.
      99926    2    1    2    0    0  0.00000000000E+00 -0.71054273576E-14  0.35164661038E+02  0.46206996677E+03  0.46072996517E+03 0.  0.
      99925    2    3    3    0    0  0.44742819437E+02  0.52210710219E+02  0.11875142567E+03  0.29665493277E+03  0.26301020870E+03 0.  0.
         25    1    4    4    0    0  0.23941878319E+01  0.25322506098E+00  0.83522879631E+02  0.15043063445E+03  0.12509000000E+03 0.  0.
         25    1    3    3    0    0 -0.44742819437E+02 -0.52210710219E+02 -0.83586764635E+02  0.16541503401E+03  0.12509000000E+03 0.  0.
         25    1    4    4    0    0  0.42348631605E+02  0.51957485158E+02  0.35228546042E+02  0.14622429832E+03  0.12509000000E+03 0.  0.
<mgrwt>
<rscale>  2 0.46072997E+03</rscale>
<asrwt>0</asrwt>
<pdfrwt beam="1">  1       21 0.36561370E-01 0.46072997E+03</pdfrwt>
<pdfrwt beam="2">  1       21 0.31390096E-01 0.46072997E+03</pdfrwt>
<totfact> 0.65007723E+04</totfact>
</mgrwt>
</event>
<event>
 7    0  0.4775379E-002  0.4551936E+03  0.7546771E-02  0.1026184E+00
         21   -1    0    0  502  501  0.00000000000E+00  0.00000000000E+00  0.99169047755E+02  0.99169047755E+02  0.00000000000E+00 0. -1.
         21   -1    0    0  501  502 -0.00000000000E+00 -0.00000000000E+00 -0.52234337613E+03  0.52234337613E+03  0.00000000000E+00 0. -1.
      99926    2    1    2    0    0  0.00000000000E+00  0.35527136788E-14 -0.42317432837E+03  0.62151242388E+03  0.45519356415E+03 0.  0.
      99925    2    3    3    0    0  0.51192684983E+02 -0.24965223095E+02 -0.40006763474E+03  0.48213745931E+03  0.26297996870E+03 0.  0.
         25    1    3    3    0    0 -0.51192684983E+02  0.24965223095E+02 -0.23106693629E+02  0.13937496458E+03  0.12509000000E+03 0.  0.
         25    1    4    4    0    0  0.39956163348E+02  0.22538033370E+01 -0.26466399949E+03  0.29545916020E+03  0.12509000000E+03 0.  0.
         25    1    4    4    0    0  0.11236521635E+02 -0.27219026432E+02 -0.13540363525E+03  0.18667829911E+03  0.12509000000E+03 0.  0.
<mgrwt>
<rscale>  2 0.45519356E+03</rscale>
<asrwt>0</asrwt>
<pdfrwt beam="1">  1       21 0.14583683E-01 0.45519356E+03</pdfrwt>
<pdfrwt beam="2">  1       21 0.76815203E-01 0.45519356E+03</pdfrwt>
<totfact> 0.57285677E+04</totfact>
</mgrwt>
</event>
<event>
 7    0  0.4775379E-002  0.4385259E+03  0.7546771E-02  0.1031200E+00
         21   -1    0    0  502  501  0.00000000000E+00  0.00000000000E+00  0.88767335277E+02  0.88767335277E+02  0.00000000000E+00 0.  1.
         21   -1    0    0  501  502 -0.00000000000E+00 -0.00000000000E+00 -0.54159826085E+03  0.54159826085E+03  0.00000000000E+00 0.  1.
      99926    2    1    2    0    0  0.00000000000E+00  0.00000000000E+00 -0.45283092557E+03  0.63036559612E+03  0.43852586882E+03 0.  0.
      99925    2    3    3    0    0  0.71022455919E+02 -0.40066638286E+02 -0.36447949150E+03  0.45686340953E+03  0.26311470978E+03 0.  0.
         25    1    3    3    0    0 -0.71022455919E+02  0.40066638286E+02 -0.88351434074E+02  0.17350218659E+03  0.12509000000E+03 0.  0.
         25    1    4    4    0    0  0.69536811759E+02 -0.37450013886E+02 -0.22717183396E+03  0.27109485789E+03  0.12509000000E+03 0.  0.
         25    1    4    4    0    0  0.14856441600E+01 -0.26166244001E+01 -0.13730765754E+03  0.18576855164E+03  0.12509000000E+03 0.  0.
<mgrwt>
<rscale>  2 0.43852587E+03</rscale>
<asrwt>0</asrwt>
<pdfrwt beam="1">  1       21 0.13054020E-01 0.43852587E+03</pdfrwt>
<pdfrwt beam="2">  1       21 0.79646802E-01 0.43852587E+03</pdfrwt>
<totfact> 0.64880864E+04</totfact>
</mgrwt>
</event>
<event>
 7    0  0.4775379E-002  0.4513052E+03  0.7546771E-02  0.1027334E+00
         21   -1    0    0  502  501  0.00000000000E+00  0.00000000000E+00  0.22259919538E+03  0.22259919538E+03  0.00000000000E+00 0.  1.
         21   -1    0    0  501  502 -0.00000000000E+00 -0.00000000000E+00 -0.22874789523E+03  0.22874789523E+03  0.00000000000E+00 0.  1.
      99926    2    1    2    0    0  0.35527136788E-14  0.00000000000E+00 -0.61486998479E+01  0.45134709060E+03  0.45130520680E+03 0.  0.
      99925    2    3    3    0    0 -0.26984138330E+02  0.76321339275E+02  0.70602965679E+02  0.28374214792E+03  0.26262470789E+03 0.  0.
         25    1    4    4    0    0  0.10237644946E+02  0.70937740819E+02  0.39069994318E+02  0.14936848731E+03  0.12509000000E+03 0.  0.
         25    1    4    4    0    0 -0.37221783276E+02  0.53835984555E+01  0.31532971361E+02  0.13437366061E+03  0.12509000000E+03 0.  0.
         25    1    3    3    0    0  0.26984138330E+02 -0.76321339275E+02 -0.76751665527E+02  0.16760494268E+03  0.12509000000E+03 0.  0.
<mgrwt>
<rscale>  2 0.45130521E+03</rscale>
<asrwt>0</asrwt>
<pdfrwt beam="1">  1       21 0.32735176E-01 0.45130521E+03</pdfrwt>
<pdfrwt beam="2">  1       21 0.33639396E-01 0.45130521E+03</pdfrwt>
<totfact> 0.70880910E+04</totfact>
</mgrwt>
</event>
<event>
 7    0  0.4775379E-002  0.4334231E+03  0.7546771E-02  0.1032784E+00
         21   -1    0    0  502  501  0.00000000000E+00  0.00000000000E+00  0.24233243339E+03  0.24233243339E+03  0.00000000000E+00 0. -1.
         21   -1    0    0  501  502 -0.00000000000E+00 -0.00000000000E+00 -0.19379946367E+03  0.19379946367E+03  0.00000000000E+00 0. -1.
      99926    2    1    2    0    0  0.00000000000E+00  0.00000000000E+00  0.48532969715E+02  0.43613189706E+03  0.43342309870E+03 0.  0.
      99925    2    3    3    0    0  0.36104080807E+02  0.72735773220E+02  0.73480649298E+02  0.28492378824E+03  0.26303642700E+03 0.  0.
         25    1    3    3    0    0 -0.36104080807E+02 -0.72735773220E+02 -0.24947679582E+02  0.15120810882E+03  0.12509000000E+03 0.  0.
         25    1    4    4    0    0  0.25053486714E+02  0.60483667238E+02  0.47971230465E+01  0.14126737659E+03  0.12509000000E+03 0.  0.
         25    1    4    4    0    0  0.11050594092E+02  0.12252105982E+02  0.68683526251E+02  0.14365641165E+03  0.12509000000E+03 0.  0.
<mgrwt>
<rscale>  2 0.43342310E+03</rscale>
<asrwt>0</asrwt>
<pdfrwt beam="1">  1       21 0.35637123E-01 0.43342310E+03</pdfrwt>
<pdfrwt beam="2">  1       21 0.28499921E-01 0.43342310E+03</pdfrwt>
<totfact> 0.83411362E+04</totfact>
</mgrwt>
</event>
<event>
 7    0  0.4775379E-002  0.4562173E+03  0.7546771E-02  0.1025884E+00
         21   -1    0    0  502  501  0.00000000000E+00  0.00000000000E+00  0.31866526979E+03  0.31866526979E+03  0.00000000000E+00 0. -1.
         21   -1    0    0  501  502 -0.00000000000E+00 -0.00000000000E+00 -0.16328594199E+03  0.16328594199E+03  0.00000000000E+00 0. -1.
      99926    2    1    2    0    0  0.35527136788E-14  0.00000000000E+00  0.15537932780E+03  0.48195121178E+03  0.45621731119E+03 0.  0.
      99925    2    3    3    0    0 -0.28654565314E+02  0.40259762058E+02 -0.11157396575E+02  0.26788598523E+03  0.26305224011E+03 0.  0.
         25    1    3    3    0    0  0.28654565314E+02 -0.40259762058E+02  0.16653672437E+03  0.21406522655E+03  0.12509000000E+03 0.  0.
         25    1    4    4    0    0  0.24007498585E+02  0.26993476915E+02  0.65757230017E+01  0.13036777216E+03  0.12509000000E+03 0.  0.
         25    1    4    4    0    0 -0.52662063899E+02  0.13266285142E+02 -0.17733119577E+02  0.13751821307E+03  0.12509000000E+03 0.  0.
<mgrwt>
<rscale>  2 0.45621731E+03</rscale>
<asrwt>0</asrwt>
<pdfrwt beam="1">  1       21 0.46862540E-01 0.45621731E+03</pdfrwt>
<pdfrwt beam="2">  1       21 0.24012639E-01 0.45621731E+03</pdfrwt>
<totfact> 0.65919076E+04</totfact>
</mgrwt>
</event>
<event>
 7    0  0.4775379E-002  0.4396008E+03  0.7546771E-02  0.1030869E+00
         21   -1    0    0  502  501  0.00000000000E+00  0.00000000000E+00  0.14069819545E+03  0.14069819545E+03  0.00000000000E+00 0.  1.
         21   -1    0    0  501  502 -0.00000000000E+00 -0.00000000000E+00 -0.34337477215E+03  0.34337477215E+03  0.00000000000E+00 0.  1.
      99926    2    1    2    0    0  0.00000000000E+00  0.00000000000E+00 -0.20267657670E+03  0.48407296760E+03  0.43960077709E+03 0.  0.
      99925    2    3    3    0    0  0.56326313320E+02 -0.68500423855E+02 -0.83467207703E+02  0.28984798621E+03  0.26302113738E+03 0.  0.
         25    1    4    4    0    0  0.57014790598E+01 -0.56190019840E+02 -0.68866157956E+02  0.15355741924E+03  0.12509000000E+03 0.  0.
         25    1    3    3    0    0 -0.56326313320E+02  0.68500423855E+02 -0.11920936899E+03  0.19422498139E+03  0.12509000000E+03 0.  0.
         25    1    4    4    0    0  0.50624834260E+02 -0.12310404015E+02 -0.14601049747E+02  0.13629056697E+03  0.12509000000E+03 0.  0.
<mgrwt>
<rscale>  2 0.43960078E+03</rscale>
<asrwt>0</asrwt>
<pdfrwt beam="1">  1       21 0.20690911E-01 0.43960078E+03</pdfrwt>
<pdfrwt beam="2">  1       21 0.50496289E-01 0.43960078E+03</pdfrwt>
<totfact> 0.75183963E+04</totfact>
</mgrwt>
</event>
<event>
 7    0  0.4775379E-002  0.4497019E+03  0.7546771E-02  0.1027811E+00
         21   -1    0    0  502  501  0.00000000000E+00  0.00000000000E+00  0.28293586046E+03  0.28293586046E+03  0.00000000000E+00 0.  1.
         21   -1    0    0  501  502 -0.00000000000E+00 -0.00000000000E+00 -0.17869051113E+03  0.17869051113E+03  0.00000000000E+00 0.  1.
      99926    2    1    2    0    0  0.00000000000E+00  0.00000000000E+00  0.10424534933E+03  0.46162637159E+03  0.44970191693E+03 0.  0.
      99925    2    3    3    0    0  0.79342704055E+02 -0.43108782593E+02  0.12705910927E+03  0.30567250800E+03  0.26294112093E+03 0.  0.
         25    1    3    3    0    0 -0.79342704055E+02  0.43108782593E+02 -0.22813759940E+02  0.15595386358E+03  0.12509000000E+03 0.  0.
         25    1    4    4    0    0  0.70066327667E+02  0.23621718994E+00  0.48005610391E+02  0.15119984392E+03  0.12509000000E+03 0.  0.
         25    1    4    4    0    0  0.92763763880E+01 -0.43344999783E+02  0.79053498881E+02  0.15447266409E+03  0.12509000000E+03 0.  0.
<mgrwt>
<rscale>  2 0.44970192E+03</rscale>
<asrwt>0</asrwt>
<pdfrwt beam="1">  1       21 0.41608215E-01 0.44970192E+03</pdfrwt>
<pdfrwt beam="2">  1       21 0.26278016E-01 0.44970192E+03</pdfrwt>
<totfact> 0.71001100E+04</totfact>
</mgrwt>
</event>
<event>
 7    0  0.4775379E-002  0.4656878E+03  0.7546771E-02  0.1023144E+00
         21   -1    0    0  502  501  0.00000000000E+00  0.00000000000E+00  0.23426801107E+03  0.23426801107E+03  0.00000000000E+00 0. -1.
         21   -1    0    0  501  502 -0.00000000000E+00 -0.00000000000E+00 -0.23142844745E+03  0.23142844745E+03  0.00000000000E+00 0. -1.
      99926    2    1    2    0    0  0.00000000000E+00  0.00000000000E+00  0.28395636192E+01  0.46569645852E+03  0.46568780139E+03 0.  0.
      99925    2    3    3    0    0 -0.10418208322E+03 -0.64697781436E+02  0.97817018881E+01  0.29038128300E+03  0.26303212434E+03 0.  0.
         25    1    4    4    0    0 -0.48488381080E+02 -0.64107246926E+02  0.30808046591E+02  0.15184698233E+03  0.12509000000E+03 0.  0.
         25    1    3    3    0    0  0.10418208322E+03  0.64697781436E+02 -0.69421382689E+01  0.17531517553E+03  0.12509000000E+03 0.  0.
         25    1    4    4    0    0 -0.55693702141E+02 -0.59053450983E+00 -0.21026344703E+02  0.13853430067E+03  0.12509000000E+03 0.  0.
<mgrwt>
<rscale>  2 0.46568780E+03</rscale>
<asrwt>0</asrwt>
<pdfrwt beam="1">  1       21 0.34451178E-01 0.46568780E+03</pdfrwt>
<pdfrwt beam="2">  1       21 0.34033595E-01 0.46568780E+03</pdfrwt>
<totfact> 0.62285715E+04</totfact>
</mgrwt>
</event>
<event>
 7    0  0.4775379E-002  0.4531279E+03  0.7546771E-02  0.1026793E+00
         21   -1    0    0  502  501  0.00000000000E+00  0.00000000000E+00  0.56103619863E+03  0.56103619863E+03  0.00000000000E+00 0.  1.
         21   -1    0    0  501  502 -0.00000000000E+00 -0.00000000000E+00 -0.91493594240E+02  0.91493594240E+02  0.00000000000E+00 0.  1.
      99926    2    1    2    0    0  0.00000000000E+00 -0.71054273576E-14  0.46954260439E+03  0.65252979287E+03  0.45312787737E+03 0.  0.
      99925    2    3    3    0    0 -0.59603705714E+02  0.63127429605E+02  0.19532744978E+03  0.33887531224E+03  0.26295625207E+03 0.  0.
         25    1    4    4    0    0 -0.44775447892E+01  0.26176386510E+01  0.11053557393E+03  0.16701054351E+03  0.12509000000E+03 0.  0.
         25    1    3    3    0    0  0.59603705714E+02 -0.63127429605E+02  0.27421515462E+03  0.31365448064E+03  0.12509000000E+03 0.  0.
         25    1    4    4    0    0 -0.55126160925E+02  0.60509790954E+02  0.84791875847E+02  0.17186476873E+03  0.12509000000E+03 0.  0.
<mgrwt>
<rscale>  2 0.45312788E+03</rscale>
<asrwt>0</asrwt>
<pdfrwt beam="1">  1       21 0.82505322E-01 0.45312788E+03</pdfrwt>
<pdfrwt beam="2">  1       21 0.13454941E-01 0.45312788E+03</pdfrwt>
<totfact> 0.56384043E+04</totfact>
</mgrwt>
</event>
<event>
 7    0  0.4775379E-002  0.4532052E+03  0.7546771E-02  0.1026770E+00
         21   -1    0    0  502  501  0.00000000000E+00  0.00000000000E+00  0.10682885181E+03  0.10682885181E+03  0.00000000000E+00 0. -1.
         21   -1    0    0  501  502 -0.00000000000E+00 -0.00000000000E+00 -0.48066368527E+03  0.48066368527E+03  0.00000000000E+00 0. -1.
      99926    2    1    2    0    0  0.00000000000E+00  0.00000000000E+00 -0.37383483346E+03  0.58749253708E+03  0.45320524977E+03 0.  0.
      99925    2    3    3    0    0  0.75843076142E+02  0.74754094097E+02 -0.27835799187E+03  0.39748284742E+03  0.26300018170E+03 0.  0.
         25    1    4    4    0    0  0.50219313786E+01  0.38048550226E+02 -0.95392007872E+02  0.16192607954E+03  0.12509000000E+03 0.  0.
         25    1    3    3    0    0 -0.75843076142E+02 -0.74754094097E+02 -0.95476841595E+02  0.19000968966E+03  0.12509000000E+03 0.  0.
         25    1    4    4    0    0  0.70821144763E+02  0.36705543871E+02 -0.18296598400E+03  0.23555676788E+03  0.12509000000E+03 0.  0.
<mgrwt>
<rscale>  2 0.45320525E+03</rscale>
<asrwt>0</asrwt>
<pdfrwt beam="1">  1       21 0.15710125E-01 0.45320525E+03</pdfrwt>
<pdfrwt beam="2">  1       21 0.70685836E-01 0.45320525E+03</pdfrwt>
<totfact> 0.60305753E+04</totfact>
</mgrwt>
</event>
<event>
 6    0  0.4775379E-002  0.4515866E+03  0.7546771E-02  0.1027250E+00
         21   -1    0    0  502  501  0.00000000000E+00  0.00000000000E+00  0.33754496625E+03  0.33754496625E+03  0.00000000000E+00 0. -1.
         21   -1    0    0  501  502 -0.00000000000E+00 -0.00000000000E+00 -0.15103950525E+03  0.15103950525E+03  0.00000000000E+00 0. -1.
      99926    2    1    2    0    0 -0.14210854715E-13  0.00000000000E+00  0.18650546100E+03  0.48858447150E+03  0.45158664595E+03 0.  0.
         25    1    3    3    0    0 -0.78268378614E+02 -0.41962865137E+02  0.73295275108E+02  0.17001919478E+03  0.12509000000E+03 0.  0.
         25    1    3    3    0    0  0.10318281528E+03  0.33974243755E+02  0.36956119979E+02  0.16974747571E+03  0.12509000000E+03 0.  0.
         25    1    3    3    0    0 -0.24914436663E+02  0.79886213823E+01  0.76254065915E+02  0.14881780100E+03  0.12509000000E+03 0.  0.
<mgrwt>
<rscale>  2 0.45158665E+03</rscale>
<asrwt>0</asrwt>
<pdfrwt beam="1">  1       21 0.49638966E-01 0.45158665E+03</pdfrwt>
<pdfrwt beam="2">  1       21 0.22211692E-01 0.45158665E+03</pdfrwt>
<totfact> 0.67901722E+04</totfact>
</mgrwt>
</event>
<event>
 7    0  0.4775379E-002  0.4558671E+03  0.7546771E-02  0.1025987E+00
         21   -1    0    0  502  501  0.00000000000E+00  0.00000000000E+00  0.86507721464E+02  0.86507721464E+02  0.00000000000E+00 0.  1.
         21   -1    0    0  501  502 -0.00000000000E+00 -0.00000000000E+00 -0.60056717291E+03  0.60056717291E+03  0.00000000000E+00 0.  1.
      99926    2    1    2    0    0  0.14210854715E-13  0.35527136788E-14 -0.51405945144E+03  0.68707489437E+03  0.45586707586E+03 0.  0.
      99925    2    3    3    0    0 -0.92171385930E+02 -0.26508402581E+02 -0.41603159988E+03  0.50145370061E+03  0.26301190460E+03 0.  0.
         25    1    3    3    0    0  0.92171385930E+02  0.26508402581E+02 -0.98027851557E+02  0.18562119376E+03  0.12509000000E+03 0.  0.
         25    1    4    4    0    0 -0.35948037926E+02  0.25842691481E+02 -0.18316569481E+03  0.22617976477E+03  0.12509000000E+03 0.  0.
         25    1    4    4    0    0 -0.56223348004E+02 -0.52351094063E+02 -0.23286590507E+03  0.27527393584E+03  0.12509000000E+03 0.  0.
<mgrwt>
<rscale>  2 0.45586708E+03</rscale>
<asrwt>0</asrwt>
<pdfrwt beam="1">  1       21 0.12721723E-01 0.45586708E+03</pdfrwt>
<pdfrwt beam="2">  1       21 0.88318705E-01 0.45586708E+03</pdfrwt>
<totfact> 0.53246112E+04</totfact>
</mgrwt>
</event>
<event>
 7    0  0.4775379E-002  0.4522220E+03  0.7546771E-02  0.1027061E+00
         21   -1    0    0  502  501  0.00000000000E+00  0.00000000000E+00  0.37445362797E+02  0.37445362797E+02  0.00000000000E+00 0. -1.
         21   -1    0    0  501  502 -0.00000000000E+00 -0.00000000000E+00 -0.13653540872E+04  0.13653540872E+04  0.00000000000E+00 0. -1.
      99926    2    1    2    0    0 -0.71054273576E-14  0.22204460493E-14 -0.13279087244E+04  0.14027994500E+04  0.45222197710E+03 0.  0.
      99925    2    3    3    0    0  0.46441800143E+02 -0.21467723178E+01 -0.52778402544E+03  0.59162222434E+03  0.26324784784E+03 0.  0.
         25    1    4    4    0    0  0.37620211338E+02  0.20734000560E+02 -0.33846618630E+03  0.36338966200E+03  0.12509000000E+03 0.  0.
         25    1    4    4    0    0  0.88215888051E+01 -0.22880772877E+02 -0.18931783914E+03  0.22823256235E+03  0.12509000000E+03 0.  0.
         25    1    3    3    0    0 -0.46441800143E+02  0.21467723178E+01 -0.80012469896E+03  0.81117722565E+03  0.12509000000E+03 0.  0.
<mgrwt>
<rscale>  2 0.45222198E+03</rscale>
<asrwt>0</asrwt>
<pdfrwt beam="1">  1       21 0.55066734E-02 0.45222198E+03</pdfrwt>
<pdfrwt beam="2">  1       21 0.20078728E+00 0.45222198E+03</pdfrwt>
<totfact> 0.26832113E+04</totfact>
</mgrwt>
</event>
<event>
 7    0  0.4775379E-002  0.4561251E+03  0.7546771E-02  0.1025911E+00
         21   -1    0    0  502  501  0.00000000000E+00  0.00000000000E+00  0.97698560615E+02  0.97698560615E+02  0.00000000000E+00 0. -1.
         21   -1    0    0  501  502 -0.00000000000E+00 -0.00000000000E+00 -0.53237772845E+03  0.53237772845E+03  0.00000000000E+00 0. -1.
      99926    2    1    2    0    0  0.00000000000E+00  0.00000000000E+00 -0.43467916784E+03  0.63007628907E+03  0.45612514850E+03 0.  0.
      99925    2    3    3    0    0  0.56968772453E+02 -0.63649305557E+02 -0.17197822093E+03  0.32683386008E+03  0.26447530790E+03 0.  0.
         25    1    4    4    0    0  0.39012182031E+02 -0.74160939831E+01 -0.12364818234E+03  0.18031453045E+03  0.12509000000E+03 0.  0.
         25    1    4    4    0    0  0.17956590422E+02 -0.56233211574E+02 -0.48330038589E+02  0.14651932962E+03  0.12509000000E+03 0.  0.
         25    1    3    3    0    0 -0.56968772453E+02  0.63649305557E+02 -0.26270094691E+03  0.30324242899E+03  0.12509000000E+03 0.  0.
<mgrwt>
<rscale>  2 0.45612515E+03</rscale>
<asrwt>0</asrwt>
<pdfrwt beam="1">  1       21 0.14367435E-01 0.45612515E+03</pdfrwt>
<pdfrwt beam="2">  1       21 0.78290842E-01 0.45612515E+03</pdfrwt>
<totfact> 0.56361873E+04</totfact>
</mgrwt>
</event>
<event>
 7    0  0.4775379E-002  0.4474839E+03  0.7546771E-02  0.1028475E+00
         21   -1    0    0  502  501  0.00000000000E+00  0.00000000000E+00  0.18732949887E+03  0.18732949887E+03  0.00000000000E+00 0. -1.
         21   -1    0    0  501  502 -0.00000000000E+00 -0.00000000000E+00 -0.26723213580E+03  0.26723213580E+03  0.00000000000E+00 0. -1.
      99926    2    1    2    0    0 -0.35527136788E-14  0.17763568394E-14 -0.79902636939E+02  0.45456163467E+03  0.44748390845E+03 0.  0.
      99925    2    3    3    0    0 -0.17801016323E+02  0.15459964393E+02 -0.15573965534E+03  0.30639062488E+03  0.26280123305E+03 0.  0.
         25    1    3    3    0    0  0.17801016323E+02 -0.15459964393E+02  0.75837018401E+02  0.14817100979E+03  0.12509000000E+03 0.  0.
         25    1    4    4    0    0  0.18183331626E+02 -0.17107476514E+02 -0.56538053961E+02  0.13952547777E+03  0.12509000000E+03 0.  0.
         25    1    4    4    0    0 -0.35984347949E+02  0.32567440908E+02 -0.99201601379E+02  0.16686514711E+03  0.12509000000E+03 0.  0.
<mgrwt>
<rscale>  2 0.44748391E+03</rscale>
<asrwt>0</asrwt>
<pdfrwt beam="1">  1       21 0.27548456E-01 0.44748391E+03</pdfrwt>
<pdfrwt beam="2">  1       21 0.39298843E-01 0.44748391E+03</pdfrwt>
<totfact> 0.72847762E+04</totfact>
</mgrwt>
</event>
<event>
 7    0  0.4775379E-002  0.4526298E+03  0.7546771E-02  0.1026941E+00
         21   -1    0    0  502  501  0.00000000000E+00  0.00000000000E+00  0.82666488536E+02  0.82666488536E+02  0.00000000000E+00 0. -1.
         21   -1    0    0  501  502 -0.00000000000E+00 -0.00000000000E+00 -0.61957919902E+03  0.61957919902E+03  0.00000000000E+00 0. -1.
      99926    2    1    2    0    0  0.14210854715E-13  0.00000000000E+00 -0.53691271048E+03  0.70224568755E+03  0.45262981233E+03 0.  0.
      99925    2    3    3    0    0  0.81809691333E+02 -0.18348220757E+02 -0.45128986493E+03  0.52901675642E+03  0.26299563416E+03 0.  0.
         25    1    4    4    0    0  0.82316225231E+02 -0.33296914673E+01 -0.23351979819E+03  0.27742756177E+03  0.12509000000E+03 0.  0.
         25    1    4    4    0    0 -0.50653389793E+00 -0.15018529290E+02 -0.21777006674E+03  0.25158919465E+03  0.12509000000E+03 0.  0.
         25    1    3    3    0    0 -0.81809691333E+02  0.18348220757E+02 -0.85622845550E+02  0.17322893113E+03  0.12509000000E+03 0.  0.
<mgrwt>
<rscale>  2 0.45262981E+03</rscale>
<asrwt>0</asrwt>
<pdfrwt beam="1">  1       21 0.12156837E-01 0.45262981E+03</pdfrwt>
<pdfrwt beam="2">  1       21 0.91114588E-01 0.45262981E+03</pdfrwt>
<totfact> 0.53777232E+04</totfact>
</mgrwt>
</event>
<event>
 7    0  0.4775379E-002  0.4557624E+03  0.7546771E-02  0.1026017E+00
         21   -1    0    0  502  501  0.00000000000E+00  0.00000000000E+00  0.33978177087E+03  0.33978177087E+03  0.00000000000E+00 0. -1.
         21   -1    0    0  501  502 -0.00000000000E+00 -0.00000000000E+00 -0.15283290505E+03  0.15283290505E+03  0.00000000000E+00 0. -1.
      99926    2    1    2    0    0  0.00000000000E+00 -0.35527136788E-14  0.18694886583E+03  0.49261467592E+03  0.45576237284E+03 0.  0.
      99925    2    3    3    0    0 -0.34959252728E+02 -0.25236511409E+02  0.37252243440E+01  0.26661148622E+03  0.26307560971E+03 0.  0.
         25    1    3    3    0    0  0.34959252728E+02  0.25236511409E+02  0.18322364148E+03  0.22600318971E+03  0.12509000000E+03 0.  0.
         25    1    4    4    0    0 -0.40031893248E+02 -0.44811450458E+02  0.14019981959E+02  0.13948005794E+03  0.12509000000E+03 0.  0.
         25    1    4    4    0    0  0.50726405199E+01  0.19574939049E+02 -0.10294757615E+02  0.12713142827E+03  0.12509000000E+03 0.  0.
<mgrwt>
<rscale>  2 0.45576237E+03</rscale>
<asrwt>0</asrwt>
<pdfrwt beam="1">  1       21 0.49967908E-01 0.45576237E+03</pdfrwt>
<pdfrwt beam="2">  1       21 0.22475427E-01 0.45576237E+03</pdfrwt>
<totfact> 0.65395987E+04</totfact>
</mgrwt>
</event>
<event>
 7    0  0.4775379E-002  0.4549903E+03  0.7546771E-02  0.1026244E+00
         21   -1    0    0  502  501  0.00000000000E+00  0.00000000000E+00  0.15325349671E+03  0.15325349671E+03  0.00000000000E+00 0. -1.
         21   -1    0    0  501  502 -0.00000000000E+00 -0.00000000000E+00 -0.33770217540E+03  0.33770217540E+03  0.00000000000E+00 0. -1.
      99926    2    1    2    0    0  0.00000000000E+00  0.00000000000E+00 -0.18444867869E+03  0.49095567211E+03  0.45499028221E+03 0.  0.
      99925    2    3    3    0    0 -0.95586739620E+02 -0.45672846476E+02 -0.73459013248E+02  0.29299343422E+03  0.26310851786E+03 0.  0.
         25    1    4    4    0    0 -0.59458974760E+02 -0.38180895376E+02 -0.73695883495E+00  0.14367046203E+03  0.12509000000E+03 0.  0.
         25    1    3    3    0    0  0.95586739620E+02  0.45672846476E+02 -0.11098966544E+03  0.19796223789E+03  0.12509000000E+03 0.  0.
         25    1    4    4    0    0 -0.36127764861E+02 -0.74919511007E+01 -0.72722054413E+02  0.14932297219E+03  0.12509000000E+03 0.  0.
<mgrwt>
<rscale>  2 0.45499028E+03</rscale>
<asrwt>0</asrwt>
<pdfrwt beam="1">  1       21 0.22537279E-01 0.45499028E+03</pdfrwt>
<pdfrwt beam="2">  1       21 0.49662085E-01 0.45499028E+03</pdfrwt>
<totfact> 0.65915923E+04</totfact>
</mgrwt>
</event>
<event>
 7    0  0.4775379E-002  0.4566853E+03  0.7546771E-02  0.1025747E+00
         21   -1    0    0  502  501  0.00000000000E+00  0.00000000000E+00  0.40395841475E+03  0.40395841475E+03  0.00000000000E+00 0.  1.
         21   -1    0    0  501  502 -0.00000000000E+00 -0.00000000000E+00 -0.12907361607E+03  0.12907361607E+03  0.00000000000E+00 0.  1.
      99926    2    1    2    0    0  0.00000000000E+00  0.00000000000E+00  0.27488479868E+03  0.53303203081E+03  0.45668533295E+03 0.  0.
      99925    2    3    3    0    0 -0.39998768962E+02 -0.52156580374E+02  0.28244679795E+03  0.39152265894E+03  0.26304674185E+03 0.  0.
         25    1    4    4    0    0 -0.55754947236E+02 -0.36089618958E+02  0.12273009071E+03  0.18740666478E+03  0.12509000000E+03 0.  0.
         25    1    4    4    0    0  0.15756178274E+02 -0.16066961416E+02  0.15971670723E+03  0.20411599416E+03  0.12509000000E+03 0.  0.
         25    1    3    3    0    0  0.39998768962E+02  0.52156580374E+02 -0.75619992709E+01  0.14150937187E+03  0.12509000000E+03 0.  0.
<mgrwt>
<rscale>  2 0.45668533E+03</rscale>
<asrwt>0</asrwt>
<pdfrwt beam="1">  1       21 0.59405649E-01 0.45668533E+03</pdfrwt>
<pdfrwt beam="2">  1       21 0.18981414E-01 0.45668533E+03</pdfrwt>
<totfact> 0.62167179E+04</totfact>
</mgrwt>
</event>
<event>
 7    0  0.4775379E-002  0.4560418E+03  0.7546771E-02  0.1025935E+00
         21   -1    0    0  502  501  0.00000000000E+00  0.00000000000E+00  0.21692743618E+03  0.21692743618E+03  0.00000000000E+00 0. -1.
         21   -1    0    0  501  502 -0.00000000000E+00 -0.00000000000E+00 -0.23968163759E+03  0.23968163759E+03  0.00000000000E+00 0. -1.
      99926    2    1    2    0    0  0.00000000000E+00  0.00000000000E+00 -0.22754201416E+02  0.45660907377E+03  0.45604176626E+03 0.  0.
      99925    2    3    3    0    0  0.91872731010E+01 -0.53398058203E+02 -0.11483912080E+03  0.29210102204E+03  0.26305745533E+03 0.  0.
         25    1    4    4    0    0 -0.18006734047E+02 -0.29778816604E+02 -0.20758050198E+02  0.13148925864E+03  0.12509000000E+03 0.  0.
         25    1    4    4    0    0  0.27194007148E+02 -0.23619241599E+02 -0.94081070598E+02  0.16061176340E+03  0.12509000000E+03 0.  0.
         25    1    3    3    0    0 -0.91872731010E+01  0.53398058203E+02  0.92084919380E+02  0.16450805173E+03  0.12509000000E+03 0.  0.
<mgrwt>
<rscale>  2 0.45604177E+03</rscale>
<asrwt>0</asrwt>
<pdfrwt beam="1">  1       21 0.31901094E-01 0.45604177E+03</pdfrwt>
<pdfrwt beam="2">  1       21 0.35247300E-01 0.45604177E+03</pdfrwt>
<totfact> 0.67862266E+04</totfact>
</mgrwt>
</event>
<event>
 7    0  0.4775379E-002  0.4707518E+03  0.7546771E-02  0.1021708E+00
         21   -1    0    0  502  501  0.00000000000E+00  0.00000000000E+00  0.53465326699E+03  0.53465326699E+03  0.00000000000E+00 0. -1.
         21   -1    0    0  501  502 -0.00000000000E+00 -0.00000000000E+00 -0.10362196430E+03  0.10362196430E+03  0.00000000000E+00 0. -1.
      99926    2    1    2    0    0  0.00000000000E+00  0.00000000000E+00  0.43103130269E+03  0.63827523130E+03  0.47075183164E+03 0.  0.
      99925    2    3    3    0    0 -0.10313732729E+03 -0.31225229883E+02  0.35958130585E+03  0.45837266486E+03  0.26304840071E+03 0.  0.
         25    1    3    3    0    0  0.10313732729E+03  0.31225229883E+02  0.71449996839E+02  0.17990256643E+03  0.12509000000E+03 0.  0.
         25    1    4    4    0    0 -0.75958399640E+02 -0.19112861541E+02  0.24565714321E+03  0.28658318175E+03  0.12509000000E+03 0.  0.
         25    1    4    4    0    0 -0.27178927648E+02 -0.12112368342E+02  0.11392416264E+03  0.17178948311E+03  0.12509000000E+03 0.  0.
<mgrwt>
<rscale>  2 0.47075183E+03</rscale>
<asrwt>0</asrwt>
<pdfrwt beam="1">  1       21 0.78625480E-01 0.47075183E+03</pdfrwt>
<pdfrwt beam="2">  1       21 0.15238524E-01 0.47075183E+03</pdfrwt>
<totfact> 0.49884611E+04</totfact>
</mgrwt>
</event>
<event>
 7    0  0.4775379E-002  0.4622176E+03  0.7546771E-02  0.1024140E+00
         21   -1    0    0  502  501  0.00000000000E+00  0.00000000000E+00  0.34902339447E+03  0.34902339447E+03  0.00000000000E+00 0. -1.
         21   -1    0    0  501  502 -0.00000000000E+00 -0.00000000000E+00 -0.15303066994E+03  0.15303066994E+03  0.00000000000E+00 0. -1.
      99926    2    1    2    0    0  0.00000000000E+00  0.71054273576E-14  0.19599272453E+03  0.50205406442E+03  0.46221762789E+03 0.  0.
      99925    2    3    3    0    0  0.10361358500E+03  0.35038739591E+02  0.69397515971E+02  0.29315853264E+03  0.26298749356E+03 0.  0.
         25    1    4    4    0    0  0.81045688642E+02  0.48760118488E+02  0.33414430027E+02  0.16034333487E+03  0.12509000000E+03 0.  0.
         25    1    3    3    0    0 -0.10361358500E+03 -0.35038739591E+02  0.12659520856E+03  0.20889553178E+03  0.12509000000E+03 0.  0.
         25    1    4    4    0    0  0.22567896356E+02 -0.13721378898E+02  0.35983085944E+02  0.13281519777E+03  0.12509000000E+03 0.  0.
<mgrwt>
<rscale>  2 0.46221763E+03</rscale>
<asrwt>0</asrwt>
<pdfrwt beam="1">  1       21 0.51326970E-01 0.46221763E+03</pdfrwt>
<pdfrwt beam="2">  1       21 0.22504510E-01 0.46221763E+03</pdfrwt>
<totfact> 0.61525197E+04</totfact>
</mgrwt>
</event>
<event>
 7    0  0.4775379E-002  0.4537980E+03  0.7546771E-02  0.1026595E+00
         21   -1    0    0  502  501  0.00000000000E+00  0.00000000000E+00  0.25161637463E+02  0.25161637463E+02  0.00000000000E+00 0.  1.
         21   -1    0    0  501  502 -0.00000000000E+00 -0.00000000000E+00 -0.20460974789E+04  0.20460974789E+04  0.00000000000E+00 0.  1.
      99926    2    1    2    0    0  0.00000000000E+00  0.35527136788E-14 -0.20209358414E+04  0.20712591163E+04  0.45379802987E+03 0.  0.
      99925    2    3    3    0    0 -0.96985309841E+02 -0.28055526308E+02 -0.14942022519E+04  0.15205422696E+04  0.26308774414E+03 0.  0.
         25    1    3    3    0    0  0.96985309841E+02  0.28055526308E+02 -0.52673358947E+03  0.55071684672E+03  0.12509000000E+03 0.  0.
         25    1    4    4    0    0 -0.49545821935E+02 -0.52538297370E+02 -0.69502990553E+03  0.70987966505E+03  0.12509000000E+03 0.  0.
         25    1    4    4    0    0 -0.47439487906E+02  0.24482771062E+02 -0.79917234641E+03  0.81066260458E+03  0.12509000000E+03 0.  0.
<mgrwt>
<rscale>  2 0.45379803E+03</rscale>
<asrwt>0</asrwt>
<pdfrwt beam="1">  1       21 0.37002400E-02 0.45379803E+03</pdfrwt>
<pdfrwt beam="2">  1       21 0.30089675E+00 0.45379803E+03</pdfrwt>
<totfact> 0.12699216E+04</totfact>
</mgrwt>
</event>
<event>
 7    0  0.4775379E-002  0.4538199E+03  0.7546771E-02  0.1026589E+00
         21   -1    0    0  502  501  0.00000000000E+00  0.00000000000E+00  0.20010241897E+03  0.20010241897E+03  0.00000000000E+00 0. -1.
         21   -1    0    0  501  502 -0.00000000000E+00 -0.00000000000E+00 -0.25730883946E+03  0.25730883946E+03  0.00000000000E+00 0. -1.
      99926    2    1    2    0    0  0.00000000000E+00  0.00000000000E+00 -0.57206420486E+02  0.45741125843E+03  0.45381988145E+03 0.  0.
      99925    2    3    3    0    0 -0.93714201038E+02 -0.14359312598E+02 -0.96302798413E+02  0.29565657936E+03  0.26296395685E+03 0.  0.
         25    1    4    4    0    0 -0.46134215833E+02 -0.31580209592E+02 -0.82692704661E+02  0.16003520554E+03  0.12509000000E+03 0.  0.
         25    1    4    4    0    0 -0.47579985205E+02  0.17220896994E+02 -0.13610093752E+02  0.13562137382E+03  0.12509000000E+03 0.  0.
         25    1    3    3    0    0  0.93714201038E+02  0.14359312598E+02  0.39096377927E+02  0.16175467907E+03  0.12509000000E+03 0.  0.
<mgrwt>
<rscale>  2 0.45381988E+03</rscale>
<asrwt>0</asrwt>
<pdfrwt beam="1">  1       21 0.29426827E-01 0.45381988E+03</pdfrwt>
<pdfrwt beam="2">  1       21 0.37839535E-01 0.45381988E+03</pdfrwt>
<totfact> 0.69016869E+04</totfact>
</mgrwt>
</event>
<event>
 7    0  0.4775379E-002  0.4537497E+03  0.7546771E-02  0.1026610E+00
         21   -1    0    0  502  501  0.00000000000E+00  0.00000000000E+00  0.54243651495E+02  0.54243651495E+02  0.00000000000E+00 0. -1.
         21   -1    0    0  501  502 -0.00000000000E+00 -0.00000000000E+00 -0.94890751229E+03  0.94890751229E+03  0.00000000000E+00 0. -1.
      99926    2    1    2    0    0  0.00000000000E+00  0.00000000000E+00 -0.89466386080E+03  0.10031511638E+04  0.45374974776E+03 0.  0.
      99925    2    3    3    0    0 -0.39121730493E+02  0.63598976468E+02 -0.37865884272E+03  0.46697579472E+03  0.26288502066E+03 0.  0.
         25    1    4    4    0    0 -0.59611382767E+02  0.37664600399E+02 -0.21018180199E+03  0.25455065717E+03  0.12509000000E+03 0.  0.
         25    1    3    3    0    0  0.39121730493E+02 -0.63598976468E+02 -0.51600501808E+03  0.53617536906E+03  0.12509000000E+03 0.  0.
         25    1    4    4    0    0  0.20489652274E+02  0.25934376069E+02 -0.16847704072E+03  0.21242513755E+03  0.12509000000E+03 0.  0.
<mgrwt>
<rscale>  2 0.45374975E+03</rscale>
<asrwt>0</asrwt>
<pdfrwt beam="1">  1       21 0.79770078E-02 0.45374975E+03</pdfrwt>
<pdfrwt beam="2">  1       21 0.13954522E+00 0.45374975E+03</pdfrwt>
<totfact> 0.39428015E+04</totfact>
</mgrwt>
</event>
<event>
 7    0  0.4775379E-002  0.4494800E+03  0.7546771E-02  0.1027877E+00
         21   -1    0    0  502  501  0.00000000000E+00  0.00000000000E+00  0.59008191973E+03  0.59008191973E+03  0.00000000000E+00 0.  1.
         21   -1    0    0  501  502 -0.00000000000E+00 -0.00000000000E+00 -0.85595022069E+02  0.85595022069E+02  0.00000000000E+00 0.  1.
      99926    2    1    2    0    0 -0.35527136788E-14  0.00000000000E+00  0.50448689766E+03  0.67567694180E+03  0.44948003267E+03 0.  0.
      99925    2    3    3    0    0 -0.24100394324E+02  0.10509497564E+03  0.32492774071E+03  0.43172042548E+03  0.26301845216E+03 0.  0.
         25    1    3    3    0    0  0.24100394324E+02 -0.10509497564E+03  0.17955915695E+03  0.24395651632E+03  0.12509000000E+03 0.  0.
         25    1    4    4    0    0  0.16397014804E+02  0.49214852797E+02  0.11427868583E+03  0.17719506191E+03  0.12509000000E+03 0.  0.
         25    1    4    4    0    0 -0.40497409128E+02  0.55880122845E+02  0.21064905489E+03  0.25452536357E+03  0.12509000000E+03 0.  0.
<mgrwt>
<rscale>  2 0.44948003E+03</rscale>
<asrwt>0</asrwt>
<pdfrwt beam="1">  1       21 0.86776751E-01 0.44948003E+03</pdfrwt>
<pdfrwt beam="2">  1       21 0.12587504E-01 0.44948003E+03</pdfrwt>
<totfact> 0.56667636E+04</totfact>
</mgrwt>
</event>
<event>
 7    0  0.4775379E-002  0.4542940E+03  0.7546771E-02  0.1026449E+00
         21   -1    0    0  502  501  0.00000000000E+00  0.00000000000E+00  0.57756807446E+03  0.57756807446E+03  0.00000000000E+00 0.  1.
         21   -1    0    0  501  502 -0.00000000000E+00 -0.00000000000E+00 -0.89332777127E+02  0.89332777127E+02  0.00000000000E+00 0.  1.
      99926    2    1    2    0    0  0.14210854715E-13  0.71054273576E-14  0.48823529733E+03  0.66690085158E+03  0.45429400204E+03 0.  0.
      99925    2    3    3    0    0  0.95627282077E+02 -0.37019454164E+02  0.23954338318E+03  0.37023573175E+03  0.26301796055E+03 0.  0.
         25    1    4    4    0    0  0.12017214028E+02 -0.14748361315E+01  0.85573632069E+02  0.15204257029E+03  0.12509000000E+03 0.  0.
         25    1    3    3    0    0 -0.95627282077E+02  0.37019454164E+02  0.24869191415E+03  0.29666511984E+03  0.12509000000E+03 0.  0.
         25    1    4    4    0    0  0.83610068049E+02 -0.35544618033E+02  0.15396975111E+03  0.21819316146E+03  0.12509000000E+03 0.  0.
<mgrwt>
<rscale>  2 0.45429400E+03</rscale>
<asrwt>0</asrwt>
<pdfrwt beam="1">  1       21 0.84936480E-01 0.45429400E+03</pdfrwt>
<pdfrwt beam="2">  1       21 0.13137173E-01 0.45429400E+03</pdfrwt>
<totfact> 0.55042760E+04</totfact>
</mgrwt>
</event>
<event>
 7    0  0.4775379E-002  0.4481667E+03  0.7546771E-02  0.1028270E+00
         21   -1    0    0  502  501  0.00000000000E+00  0.00000000000E+00  0.17695622759E+03  0.17695622759E+03  0.00000000000E+00 0. -1.
         21   -1    0    0  501  502 -0.00000000000E+00 -0.00000000000E+00 -0.28376140468E+03  0.28376140468E+03  0.00000000000E+00 0. -1.
      99926    2    1    2    0    0  0.00000000000E+00  0.00000000000E+00 -0.10680517709E+03  0.46071763227E+03  0.44816669983E+03 0.  0.
      99925    2    3    3    0    0  0.59410707526E+02 -0.80478649964E+02 -0.29334224415E+02  0.28279713914E+03  0.26288263525E+03 0.  0.
         25    1    4    4    0    0  0.48456074098E+02 -0.61154100718E+02  0.15108207037E+02  0.14820115105E+03  0.12509000000E+03 0.  0.
         25    1    3    3    0    0 -0.59410707526E+02  0.80478649964E+02 -0.77470952673E+02  0.17792049313E+03  0.12509000000E+03 0.  0.
         25    1    4    4    0    0  0.10954633427E+02 -0.19324549245E+02 -0.44442431452E+02  0.13459598809E+03  0.12509000000E+03 0.  0.
<mgrwt>
<rscale>  2 0.44816670E+03</rscale>
<asrwt>0</asrwt>
<pdfrwt beam="1">  1       21 0.26022975E-01 0.44816670E+03</pdfrwt>
<pdfrwt beam="2">  1       21 0.41729618E-01 0.44816670E+03</pdfrwt>
<totfact> 0.71954279E+04</totfact>
</mgrwt>
</event>
<event>
 7    0  0.4775379E-002  0.4498982E+03  0.7546771E-02  0.1027752E+00
         21   -1    0    0  502  501  0.00000000000E+00  0.00000000000E+00  0.23084019349E+03  0.23084019349E+03  0.00000000000E+00 0.  1.
         21   -1    0    0  501  502 -0.00000000000E+00 -0.00000000000E+00 -0.21920835764E+03  0.21920835764E+03  0.00000000000E+00 0.  1.
      99926    2    1    2    0    0  0.00000000000E+00 -0.14210854715E-13  0.11631835848E+02  0.45004855112E+03  0.44989820934E+03 0.  0.
      99925    2    3    3    0    0  0.58826612108E+02 -0.90786393339E+02  0.12150017135E+02  0.28466863663E+03  0.26303207077E+03 0.  0.
         25    1    4    4    0    0  0.56091017221E+02 -0.73842991518E+02 -0.11784649373E+02  0.15615817516E+03  0.12509000000E+03 0.  0.
         25    1    4    4    0    0  0.27355948865E+01 -0.16943401821E+02  0.23934666508E+02  0.12851046146E+03  0.12509000000E+03 0.  0.
         25    1    3    3    0    0 -0.58826612108E+02  0.90786393339E+02 -0.51818128706E+00  0.16537991450E+03  0.12509000000E+03 0.  0.
<mgrwt>
<rscale>  2 0.44989821E+03</rscale>
<asrwt>0</asrwt>
<pdfrwt beam="1">  1       21 0.33947088E-01 0.44989821E+03</pdfrwt>
<pdfrwt beam="2">  1       21 0.32236523E-01 0.44989821E+03</pdfrwt>
<totfact> 0.71788136E+04</totfact>
</mgrwt>
</event>
<event>
 7    0  0.4775379E-002  0.4583928E+03  0.7546771E-02  0.1025248E+00
         21   -1    0    0  502  501  0.00000000000E+00  0.00000000000E+00  0.17040283534E+04  0.17040283534E+04  0.00000000000E+00 0. -1.
         21   -1    0    0  501  502 -0.00000000000E+00 -0.00000000000E+00 -0.30827527603E+02  0.30827527603E+02  0.00000000000E+00 0. -1.
      99926    2    1    2    0    0  0.00000000000E+00  0.71054273576E-14  0.16732008258E+04  0.17348558810E+04  0.45839276217E+03 0.  0.
      99925    2    3    3    0    0 -0.27320707594E+02  0.37935237469E+02  0.64652482814E+03  0.69953147987E+03  0.26299132045E+03 0.  0.
         25    1    3    3    0    0  0.27320707594E+02 -0.37935237469E+02  0.10266759977E+04  0.10353244011E+04  0.12509000000E+03 0.  0.
         25    1    4    4    0    0 -0.13905222627E+02  0.53961430954E+02  0.39052965316E+03  0.41384309750E+03  0.12509000000E+03 0.  0.
         25    1    4    4    0    0 -0.13415484967E+02 -0.16026193484E+02  0.25599517498E+03  0.28568838238E+03  0.12509000000E+03 0.  0.
<mgrwt>
<rscale>  2 0.45839276E+03</rscale>
<asrwt>0</asrwt>
<pdfrwt beam="1">  1       21 0.25059234E+00 0.45839276E+03</pdfrwt>
<pdfrwt beam="2">  1       21 0.45334611E-02 0.45839276E+03</pdfrwt>
<totfact> 0.18064927E+04</totfact>
</mgrwt>
</event>
<event>
 7    0  0.4775379E-002  0.4552618E+03  0.7546771E-02  0.1026164E+00
         21   -1    0    0  502  501  0.00000000000E+00  0.00000000000E+00  0.21462564009E+03  0.21462564009E+03  0.00000000000E+00 0.  1.
         21   -1    0    0  501  502 -0.00000000000E+00 -0.00000000000E+00 -0.24142416473E+03  0.24142416473E+03  0.00000000000E+00 0.  1.
      99926    2    1    2    0    0  0.00000000000E+00  0.00000000000E+00 -0.26798524639E+02  0.45604980483E+03  0.45526175280E+03 0.  0.
      99925    2    3    3    0    0 -0.33001228055E+02 -0.97154836068E+02  0.32083689939E+02  0.28387905668E+03  0.26273525161E+03 0.  0.
         25    1    4    4    0    0 -0.28296378284E+02 -0.89849942680E+02  0.14534690676E+02  0.15726557969E+03  0.12509000000E+03 0.  0.
         25    1    4    4    0    0 -0.47048497711E+01 -0.73048933875E+01  0.17548999263E+02  0.12661347698E+03  0.12509000000E+03 0.  0.
         25    1    3    3    0    0  0.33001228055E+02  0.97154836068E+02 -0.58882214578E+02  0.17217074815E+03  0.12509000000E+03 0.  0.
<mgrwt>
<rscale>  2 0.45526175E+03</rscale>
<asrwt>0</asrwt>
<pdfrwt beam="1">  1       21 0.31562594E-01 0.45526175E+03</pdfrwt>
<pdfrwt beam="2">  1       21 0.35503553E-01 0.45526175E+03</pdfrwt>
<totfact> 0.68326177E+04</totfact>
</mgrwt>
</event>
<event>
 7    0  0.4775379E-002  0.4537625E+03  0.7546771E-02  0.1026606E+00
         21   -1    0    0  502  501  0.00000000000E+00  0.00000000000E+00  0.60619210266E+03  0.60619210266E+03  0.00000000000E+00 0.  1.
         21   -1    0    0  501  502 -0.00000000000E+00 -0.00000000000E+00 -0.84915495545E+02  0.84915495545E+02  0.00000000000E+00 0.  1.
      99926    2    1    2    0    0 -0.71054273576E-14  0.00000000000E+00  0.52127660711E+03  0.69110759820E+03  0.45376250525E+03 0.  0.
      99925    2    3    3    0    0  0.35882089524E+02 -0.98445324192E+02  0.26806377755E+03  0.38987139294E+03  0.26298765750E+03 0.  0.
         25    1    3    3    0    0 -0.35882089524E+02  0.98445324192E+02  0.25321282956E+03  0.30123620526E+03  0.12509000000E+03 0.  0.
         25    1    4    4    0    0  0.29597211157E+02 -0.19962740445E+02  0.16292278050E+03  0.20848464313E+03  0.12509000000E+03 0.  0.
         25    1    4    4    0    0  0.62848783672E+01 -0.78482583747E+02  0.10514099705E+03  0.18138674981E+03  0.12509000000E+03 0.  0.
<mgrwt>
<rscale>  2 0.45376251E+03</rscale>
<asrwt>0</asrwt>
<pdfrwt beam="1">  1       21 0.89145896E-01 0.45376251E+03</pdfrwt>
<pdfrwt beam="2">  1       21 0.12487573E-01 0.45376251E+03</pdfrwt>
<totfact> 0.53911753E+04</totfact>
</mgrwt>
</event>
<event>
 7    0  0.4775379E-002  0.4582822E+03  0.7546771E-02  0.1025281E+00
         21   -1    0    0  502  501  0.00000000000E+00  0.00000000000E+00  0.38130893917E+03  0.38130893917E+03  0.00000000000E+00 0. -1.
         21   -1    0    0  501  502 -0.00000000000E+00 -0.00000000000E+00 -0.13769840833E+03  0.13769840833E+03  0.00000000000E+00 0. -1.
      99926    2    1    2    0    0  0.00000000000E+00  0.00000000000E+00  0.24361053084E+03  0.51900734750E+03  0.45828215766E+03 0.  0.
      99925    2    3    3    0    0 -0.10364174965E+02 -0.11574217532E+03  0.15193561231E+03  0.32521502037E+03  0.26301466103E+03 0.  0.
         25    1    3    3    0    0  0.10364174965E+02  0.11574217532E+03  0.91674918529E+02  0.19379232714E+03  0.12509000000E+03 0.  0.
         25    1    4    4    0    0  0.17718310561E+02 -0.47488325286E+02  0.10978856595E+03  0.17398309367E+03  0.12509000000E+03 0.  0.
         25    1    4    4    0    0 -0.28082485526E+02 -0.68253850029E+02  0.42147046360E+02  0.15123192670E+03  0.12509000000E+03 0.  0.
<mgrwt>
<rscale>  2 0.45828216E+03</rscale>
<asrwt>0</asrwt>
<pdfrwt beam="1">  1       21 0.56074844E-01 0.45828216E+03</pdfrwt>
<pdfrwt beam="2">  1       21 0.20249766E-01 0.45828216E+03</pdfrwt>
<totfact> 0.62316206E+04</totfact>
</mgrwt>
</event>
<event>
 7    0  0.4775379E-002  0.4156778E+03  0.7546771E-02  0.1038482E+00
         21   -1    0    0  502  501  0.00000000000E+00  0.00000000000E+00  0.23221816523E+03  0.23221816523E+03  0.00000000000E+00 0. -1.
         21   -1    0    0  501  502 -0.00000000000E+00 -0.00000000000E+00 -0.18601905840E+03  0.18601905840E+03  0.00000000000E+00 0. -1.
      99926    2    1    2    0    0 -0.17763568394E-14  0.00000000000E+00  0.46199106835E+02  0.41823722363E+03  0.41567778117E+03 0.  0.
      99925    2    3    3    0    0  0.15642414057E+02  0.65253190868E+02  0.51068910253E+02  0.27620241409E+03  0.26301535301E+03 0.  0.
         25    1    3    3    0    0 -0.15642414057E+02 -0.65253190868E+02 -0.48698034182E+01  0.14203480954E+03  0.12509000000E+03 0.  0.
         25    1    4    4    0    0 -0.10477203697E+02  0.57057175630E+02  0.54089294919E+02  0.14811634958E+03  0.12509000000E+03 0.  0.
         25    1    4    4    0    0  0.26119617754E+02  0.81960152387E+01 -0.30203846664E+01  0.12808606451E+03  0.12509000000E+03 0.  0.
<mgrwt>
<rscale>  2 0.41567778E+03</rscale>
<asrwt>0</asrwt>
<pdfrwt beam="1">  1       21 0.34149731E-01 0.41567778E+03</pdfrwt>
<pdfrwt beam="2">  1       21 0.27355744E-01 0.41567778E+03</pdfrwt>
<totfact> 0.98900130E+04</totfact>
</mgrwt>
</event>
<event>
 7    0  0.4775379E-002  0.4541300E+03  0.7546771E-02  0.1026498E+00
         21   -1    0    0  502  501  0.00000000000E+00  0.00000000000E+00  0.26460577443E+03  0.26460577443E+03  0.00000000000E+00 0.  1.
         21   -1    0    0  501  502 -0.00000000000E+00 -0.00000000000E+00 -0.19485034083E+03  0.19485034083E+03  0.00000000000E+00 0.  1.
      99926    2    1    2    0    0  0.00000000000E+00  0.00000000000E+00  0.69755433606E+02  0.45945611526E+03  0.45413004892E+03 0.  0.
      99925    2    3    3    0    0 -0.96769896676E+02  0.23746098473E+02 -0.84753052337E+01  0.28142284113E+03  0.26305644759E+03 0.  0.
         25    1    3    3    0    0  0.96769896676E+02 -0.23746098473E+02  0.78230738840E+02  0.17803327412E+03  0.12509000000E+03 0.  0.
         25    1    4    4    0    0 -0.81389859750E+02 -0.11215126601E+02  0.63574837426E+01  0.14979323761E+03  0.12509000000E+03 0.  0.
         25    1    4    4    0    0 -0.15380036925E+02  0.34961225074E+02 -0.14832788976E+02  0.13162960352E+03  0.12509000000E+03 0.  0.
<mgrwt>
<rscale>  2 0.45413005E+03</rscale>
<asrwt>0</asrwt>
<pdfrwt beam="1">  1       21 0.38912614E-01 0.45413005E+03</pdfrwt>
<pdfrwt beam="2">  1       21 0.28654462E-01 0.45413005E+03</pdfrwt>
<totfact> 0.68695555E+04</totfact>
</mgrwt>
</event>
<event>
 7    0  0.4775379E-002  0.4462976E+03  0.7546771E-02  0.1028832E+00
         21   -1    0    0  502  501  0.00000000000E+00  0.00000000000E+00  0.50721648434E+02  0.50721648434E+02  0.00000000000E+00 0. -1.
         21   -1    0    0  501  502 -0.00000000000E+00 -0.00000000000E+00 -0.98173855859E+03  0.98173855859E+03  0.00000000000E+00 0. -1.
      99926    2    1    2    0    0  0.00000000000E+00 -0.35527136788E-14 -0.93101691016E+03  0.10324602070E+04  0.44629764966E+03 0.  0.
      99925    2    3    3    0    0 -0.83495263034E+02  0.24480180010E+02 -0.45576503842E+03  0.53337846237E+03  0.26305907266E+03 0.  0.
         25    1    3    3    0    0  0.83495263034E+02 -0.24480180010E+02 -0.47525187173E+03  0.49908174466E+03  0.12509000000E+03 0.  0.
         25    1    4    4    0    0 -0.62423261912E+02 -0.20514211474E+02 -0.20876984240E+03  0.25209095917E+03  0.12509000000E+03 0.  0.
         25    1    4    4    0    0 -0.21072001122E+02  0.44994391485E+02 -0.24699519602E+03  0.28128750319E+03  0.12509000000E+03 0.  0.
<mgrwt>
<rscale>  2 0.44629765E+03</rscale>
<asrwt>0</asrwt>
<pdfrwt beam="1">  1       21 0.74590654E-02 0.44629765E+03</pdfrwt>
<pdfrwt beam="2">  1       21 0.14437333E+00 0.44629765E+03</pdfrwt>
<totfact> 0.40617682E+04</totfact>
</mgrwt>
</event>
<event>
 7    0  0.4775379E-002  0.4548170E+03  0.7546771E-02  0.1026295E+00
         21   -1    0    0  502  501  0.00000000000E+00  0.00000000000E+00  0.16727905727E+03  0.16727905727E+03  0.00000000000E+00 0.  1.
         21   -1    0    0  501  502 -0.00000000000E+00 -0.00000000000E+00 -0.30915187857E+03  0.30915187857E+03  0.00000000000E+00 0.  1.
      99926    2    1    2    0    0  0.00000000000E+00 -0.35527136788E-14 -0.14187282131E+03  0.47643093584E+03  0.45481703926E+03 0.  0.
      99925    2    3    3    0    0  0.10841175689E+03  0.28878868956E+02 -0.10313191154E+03  0.30399119479E+03  0.26303489736E+03 0.  0.
         25    1    4    4    0    0  0.87678361670E+02  0.10265754493E+02 -0.28638672176E+02  0.15575802536E+03  0.12509000000E+03 0.  0.
         25    1    3    3    0    0 -0.10841175689E+03 -0.28878868956E+02 -0.38740909768E+02  0.17243974105E+03  0.12509000000E+03 0.  0.
         25    1    4    4    0    0  0.20733395219E+02  0.18613114464E+02 -0.74493239363E+02  0.14823316943E+03  0.12509000000E+03 0.  0.
<mgrwt>
<rscale>  2 0.45481704E+03</rscale>
<asrwt>0</asrwt>
<pdfrwt beam="1">  1       21 0.24599861E-01 0.45481704E+03</pdfrwt>
<pdfrwt beam="2">  1       21 0.45463512E-01 0.45481704E+03</pdfrwt>
<totfact> 0.67058148E+04</totfact>
</mgrwt>
</event>
<event>
 7    0  0.4775379E-002  0.4760617E+03  0.7546771E-02  0.1020223E+00
         21   -1    0    0  502  501  0.00000000000E+00  0.00000000000E+00  0.51346495980E+03  0.51346495980E+03  0.00000000000E+00 0.  1.
         21   -1    0    0  501  502 -0.00000000000E+00 -0.00000000000E+00 -0.11034577422E+03  0.11034577422E+03  0.00000000000E+00 0.  1.
      99926    2    1    2    0    0  0.00000000000E+00  0.88817841970E-15  0.40311918558E+03  0.62381073402E+03  0.47606171248E+03 0.  0.
      99925    2    3    3    0    0 -0.12599014053E+03  0.68105822100E+01  0.19637262428E+03  0.35120928822E+03  0.26242304972E+03 0.  0.
         25    1    4    4    0    0 -0.30807809605E+02 -0.14150882944E+02  0.11353670528E+03  0.17230049381E+03  0.12509000000E+03 0.  0.
         25    1    4    4    0    0 -0.95182330927E+02  0.20961465154E+02  0.82835919005E+02  0.17890879442E+03  0.12509000000E+03 0.  0.
         25    1    3    3    0    0  0.12599014053E+03 -0.68105822100E+01  0.20674656130E+03  0.27260144580E+03  0.12509000000E+03 0.  0.
<mgrwt>
<rscale>  2 0.47606171E+03</rscale>
<asrwt>0</asrwt>
<pdfrwt beam="1">  1       21 0.75509552E-01 0.47606171E+03</pdfrwt>
<pdfrwt beam="2">  1       21 0.16227320E-01 0.47606171E+03</pdfrwt>
<totfact> 0.48629238E+04</totfact>
</mgrwt>
</event>
<event>
 7    0  0.4775379E-002  0.4618719E+03  0.7546771E-02  0.1024240E+00
         21   -1    0    0  502  501  0.00000000000E+00  0.00000000000E+00  0.13973754464E+03  0.13973754464E+03  0.00000000000E+00 0. -1.
         21   -1    0    0  501  502 -0.00000000000E+00 -0.00000000000E+00 -0.38165406367E+03  0.38165406367E+03  0.00000000000E+00 0. -1.
      99926    2    1    2    0    0  0.71054273576E-14  0.00000000000E+00 -0.24191651903E+03  0.52139160831E+03  0.46187185132E+03 0.  0.
      99925    2    3    3    0    0 -0.62199477314E+02  0.42044533054E+02 -0.46435382615E+02  0.27747174333E+03  0.26305475828E+03 0.  0.
         25    1    4    4    0    0  0.10010112408E+02  0.23222074778E+02 -0.15415428050E+02  0.12854808684E+03  0.12509000000E+03 0.  0.
         25    1    4    4    0    0 -0.72209589722E+02  0.18822458276E+02 -0.31019954565E+02  0.14892365650E+03  0.12509000000E+03 0.  0.
         25    1    3    3    0    0  0.62199477314E+02 -0.42044533054E+02 -0.19548113641E+03  0.24391986498E+03  0.12509000000E+03 0.  0.
<mgrwt>
<rscale>  2 0.46187185E+03</rscale>
<asrwt>0</asrwt>
<pdfrwt beam="1">  1       21 0.20549639E-01 0.46187185E+03</pdfrwt>
<pdfrwt beam="2">  1       21 0.56125598E-01 0.46187185E+03</pdfrwt>
<totfact> 0.60429809E+04</totfact>
</mgrwt>
</event>
<event>
 7    0  0.4775379E-002  0.4529188E+03  0.7546771E-02  0.1026855E+00
         21   -1    0    0  502  501  0.00000000000E+00  0.00000000000E+00  0.47715360570E+02  0.47715360570E+02  0.00000000000E+00 0. -1.
         21   -1    0    0  501  502 -0.00000000000E+00 -0.00000000000E+00 -0.10747873207E+04  0.10747873207E+04  0.00000000000E+00 0. -1.
      99926    2    1    2    0    0  0.35527136788E-14 -0.14210854715E-13 -0.10270719602E+04  0.11225026813E+04  0.45291882074E+03 0.  0.
      99925    2    3    3    0    0  0.26710043709E+02 -0.90052363552E+02 -0.79508990094E+03  0.84270625795E+03  0.26298865375E+03 0.  0.
         25    1    3    3    0    0 -0.26710043709E+02  0.90052363552E+02 -0.23198205922E+03  0.27979642334E+03  0.12509000000E+03 0.  0.
         25    1    4    4    0    0  0.34518334431E+02 -0.76728571173E+02 -0.48808293533E+03  0.51083387603E+03  0.12509000000E+03 0.  0.
         25    1    4    4    0    0 -0.78082907216E+01 -0.13323792379E+02 -0.30700696561E+03  0.33187238192E+03  0.12509000000E+03 0.  0.
<mgrwt>
<rscale>  2 0.45291882E+03</rscale>
<asrwt>0</asrwt>
<pdfrwt beam="1">  1       21 0.70169648E-02 0.45291882E+03</pdfrwt>
<pdfrwt beam="2">  1       21 0.15805696E+00 0.45291882E+03</pdfrwt>
<totfact> 0.35282797E+04</totfact>
</mgrwt>
</event>
<event>
 7    0  0.4775379E-002  0.4572135E+03  0.7546771E-02  0.1025592E+00
         21   -1    0    0  502  501  0.00000000000E+00  0.00000000000E+00  0.15677148887E+03  0.15677148887E+03  0.00000000000E+00 0.  1.
         21   -1    0    0  501  502 -0.00000000000E+00 -0.00000000000E+00 -0.33335805448E+03  0.33335805448E+03  0.00000000000E+00 0.  1.
      99926    2    1    2    0    0  0.00000000000E+00 -0.17763568394E-14 -0.17658656560E+03  0.49012954335E+03  0.45721346668E+03 0.  0.
      99925    2    3    3    0    0  0.88077332173E+01  0.93998464693E+01 -0.23363686032E+03  0.35204197148E+03  0.26302363754E+03 0.  0.
         25    1    4    4    0    0 -0.14468740653E+02 -0.30350876029E+02 -0.10423369569E+03  0.16626091408E+03  0.12509000000E+03 0.  0.
         25    1    3    3    0    0 -0.88077332173E+01 -0.93998464693E+01  0.57050294713E+02  0.13808757187E+03  0.12509000000E+03 0.  0.
         25    1    4    4    0    0  0.23276473871E+02  0.39750722498E+02 -0.12940316462E+03  0.18578105740E+03  0.12509000000E+03 0.  0.
<mgrwt>
<rscale>  2 0.45721347E+03</rscale>
<asrwt>0</asrwt>
<pdfrwt beam="1">  1       21 0.23054631E-01 0.45721347E+03</pdfrwt>
<pdfrwt beam="2">  1       21 0.49023242E-01 0.45721347E+03</pdfrwt>
<totfact> 0.64823229E+04</totfact>
</mgrwt>
</event>
<event>
 7    0  0.4775379E-002  0.4039610E+03  0.7546771E-02  0.1042417E+00
         21   -1    0    0  502  501  0.00000000000E+00  0.00000000000E+00  0.27757681465E+03  0.27757681465E+03  0.00000000000E+00 0.  1.
         21   -1    0    0  501  502 -0.00000000000E+00 -0.00000000000E+00 -0.14697236250E+03  0.14697236250E+03  0.00000000000E+00 0.  1.
      99926    2    1    2    0    0 -0.35527136788E-14  0.00000000000E+00  0.13060445215E+03  0.42454917715E+03  0.40396098932E+03 0.  0.
      99925    2    3    3    0    0  0.22013351164E+02 -0.45047928308E+02  0.70070898505E+02  0.27681386420E+03  0.26306288435E+03 0.  0.
         25    1    3    3    0    0 -0.22013351164E+02  0.45047928308E+02  0.60533553641E+02  0.14773531294E+03  0.12509000000E+03 0.  0.
         25    1    4    4    0    0 -0.17042896797E+02 -0.22934933577E+02  0.64957668547E+02  0.14381751741E+03  0.12509000000E+03 0.  0.
         25    1    4    4    0    0  0.39056247961E+02 -0.22112994731E+02  0.51132299578E+01  0.13299634680E+03  0.12509000000E+03 0.  0.
<mgrwt>
<rscale>  2 0.40396099E+03</rscale>
<asrwt>0</asrwt>
<pdfrwt beam="1">  1       21 0.40820120E-01 0.40396099E+03</pdfrwt>
<pdfrwt beam="2">  1       21 0.21613583E-01 0.40396099E+03</pdfrwt>
<totfact> 0.10878362E+05</totfact>
</mgrwt>
</event>
<event>
 7    0  0.4775379E-002  0.4541165E+03  0.7546771E-02  0.1026502E+00
         21   -1    0    0  502  501  0.00000000000E+00  0.00000000000E+00  0.11735286832E+03  0.11735286832E+03  0.00000000000E+00 0. -1.
         21   -1    0    0  501  502 -0.00000000000E+00 -0.00000000000E+00 -0.43931983624E+03  0.43931983624E+03  0.00000000000E+00 0. -1.
      99926    2    1    2    0    0  0.71054273576E-14  0.00000000000E+00 -0.32196696792E+03  0.55667270456E+03  0.45411647357E+03 0.  0.
      99925    2    3    3    0    0 -0.55826233446E+02 -0.85944177785E+02 -0.14643324686E+03  0.31800438792E+03  0.26302305016E+03 0.  0.
         25    1    3    3    0    0  0.55826233446E+02  0.85944177785E+02 -0.17553372106E+03  0.23866831664E+03  0.12509000000E+03 0.  0.
         25    1    4    4    0    0 -0.34906681517E+02 -0.41604682463E+02 -0.11875061447E+03  0.18082765981E+03  0.12509000000E+03 0.  0.
         25    1    4    4    0    0 -0.20919551928E+02 -0.44339495322E+02 -0.27682632388E+02  0.13717672811E+03  0.12509000000E+03 0.  0.
<mgrwt>
<rscale>  2 0.45411647E+03</rscale>
<asrwt>0</asrwt>
<pdfrwt beam="1">  1       21 0.17257775E-01 0.45411647E+03</pdfrwt>
<pdfrwt beam="2">  1       21 0.64605857E-01 0.45411647E+03</pdfrwt>
<totfact> 0.61858927E+04</totfact>
</mgrwt>
</event>
<event>
 7    0  0.4775379E-002  0.4544741E+03  0.7546771E-02  0.1026396E+00
         21   -1    0    0  502  501  0.00000000000E+00  0.00000000000E+00  0.11475284396E+04  0.11475284396E+04  0.00000000000E+00 0.  1.
         21   -1    0    0  501  502 -0.00000000000E+00 -0.00000000000E+00 -0.44998161220E+02  0.44998161220E+02  0.00000000000E+00 0.  1.
      99926    2    1    2    0    0  0.35527136788E-14  0.14210854715E-13  0.11025302784E+04  0.11925266008E+04  0.45447406848E+03 0.  0.
      99925    2    3    3    0    0 -0.18229983802E+02 -0.10948502838E+03  0.64314721933E+03  0.70365074052E+03  0.26299565613E+03 0.  0.
         25    1    3    3    0    0  0.18229983802E+02  0.10948502838E+03  0.45938305905E+03  0.48887586030E+03  0.12509000000E+03 0.  0.
         25    1    4    4    0    0 -0.88813520988E+01 -0.85683294697E+02  0.41917538487E+03  0.44584304053E+03  0.12509000000E+03 0.  0.
         25    1    4    4    0    0 -0.93486317029E+01 -0.23801733682E+02  0.22397183446E+03  0.25780769999E+03  0.12509000000E+03 0.  0.
<mgrwt>
<rscale>  2 0.45447407E+03</rscale>
<asrwt>0</asrwt>
<pdfrwt beam="1">  1       21 0.16875416E+00 0.45447407E+03</pdfrwt>
<pdfrwt beam="2">  1       21 0.66173774E-02 0.45447407E+03</pdfrwt>
<totfact> 0.32526777E+04</totfact>
</mgrwt>
</event>
<event>
 7    0  0.4775379E-002  0.4523724E+03  0.7546771E-02  0.1027017E+00
         21   -1    0    0  502  501  0.00000000000E+00  0.00000000000E+00  0.30164925995E+03  0.30164925995E+03  0.00000000000E+00 0.  1.
         21   -1    0    0  501  502 -0.00000000000E+00 -0.00000000000E+00 -0.16960163155E+03  0.16960163155E+03  0.00000000000E+00 0.  1.
      99926    2    1    2    0    0  0.00000000000E+00  0.35527136788E-14  0.13204762840E+03  0.47125089151E+03  0.45237244233E+03 0.  0.
      99925    2    3    3    0    0  0.95241470157E+02 -0.29239095025E+02  0.32386377114E+02  0.28282123507E+03  0.26270346642E+03 0.  0.
         25    1    4    4    0    0  0.28502370186E+02 -0.10754932903E+02 -0.20511346495E+02  0.13036977074E+03  0.12509000000E+03 0.  0.
         25    1    4    4    0    0  0.66739099972E+02 -0.18484162123E+02  0.52897723609E+02  0.15245146433E+03  0.12509000000E+03 0.  0.
         25    1    3    3    0    0 -0.95241470157E+02  0.29239095025E+02  0.99661251287E+02  0.18842965643E+03  0.12509000000E+03 0.  0.
<mgrwt>
<rscale>  2 0.45237244E+03</rscale>
<asrwt>0</asrwt>
<pdfrwt beam="1">  1       21 0.44360185E-01 0.45237244E+03</pdfrwt>
<pdfrwt beam="2">  1       21 0.24941416E-01 0.45237244E+03</pdfrwt>
<totfact> 0.68765307E+04</totfact>
</mgrwt>
</event>
<event>
 7    0  0.4775379E-002  0.4534980E+03  0.7546771E-02  0.1026684E+00
         21   -1    0    0  502  501  0.00000000000E+00  0.00000000000E+00  0.22930072120E+03  0.22930072120E+03  0.00000000000E+00 0.  1.
         21   -1    0    0  501  502 -0.00000000000E+00 -0.00000000000E+00 -0.22422564697E+03  0.22422564697E+03  0.00000000000E+00 0.  1.
      99926    2    1    2    0    0 -0.35527136788E-14  0.35527136788E-14  0.50750742343E+01  0.45352636817E+03  0.45349797161E+03 0.  0.
      99925    2    3    3    0    0 -0.22388546393E+02  0.16043233884E+02  0.11192678301E+03  0.28672280667E+03  0.26253329455E+03 0.  0.
         25    1    3    3    0    0  0.22388546393E+02 -0.16043233884E+02 -0.10685170878E+03  0.16680356151E+03  0.12509000000E+03 0.  0.
         25    1    4    4    0    0 -0.39942504756E+02  0.33404967253E+02  0.69963864936E+02  0.15249179001E+03  0.12509000000E+03 0.  0.
         25    1    4    4    0    0  0.17553958363E+02 -0.17361733369E+02  0.41962918074E+02  0.13423101666E+03  0.12509000000E+03 0.  0.
<mgrwt>
<rscale>  2 0.45349797E+03</rscale>
<asrwt>0</asrwt>
<pdfrwt beam="1">  1       21 0.33720695E-01 0.45349797E+03</pdfrwt>
<pdfrwt beam="2">  1       21 0.32974360E-01 0.45349797E+03</pdfrwt>
<totfact> 0.69482883E+04</totfact>
</mgrwt>
</event>
<event>
 7    0  0.4775379E-002  0.4526429E+03  0.7546771E-02  0.1026937E+00
         21   -1    0    0  502  501  0.00000000000E+00  0.00000000000E+00  0.14161611998E+03  0.14161611998E+03  0.00000000000E+00 0. -1.
         21   -1    0    0  501  502 -0.00000000000E+00 -0.00000000000E+00 -0.36169180725E+03  0.36169180725E+03  0.00000000000E+00 0. -1.
      99926    2    1    2    0    0  0.00000000000E+00  0.00000000000E+00 -0.22007568727E+03  0.50330792724E+03  0.45264286307E+03 0.  0.
      99925    2    3    3    0    0  0.10359859861E+03  0.36731830977E+02 -0.15550161558E+03  0.32470441138E+03  0.26300248151E+03 0.  0.
         25    1    4    4    0    0  0.61144919578E+02  0.28355149890E+02 -0.36484795668E+02  0.14670161598E+03  0.12509000000E+03 0.  0.
         25    1    4    4    0    0  0.42453679036E+02  0.83766810875E+01 -0.11901681991E+03  0.17800279540E+03  0.12509000000E+03 0.  0.
         25    1    3    3    0    0 -0.10359859861E+03 -0.36731830977E+02 -0.64574071691E+02  0.17860351586E+03  0.12509000000E+03 0.  0.
<mgrwt>
<rscale>  2 0.45264286E+03</rscale>
<asrwt>0</asrwt>
<pdfrwt beam="1">  1       21 0.20825900E-01 0.45264286E+03</pdfrwt>
<pdfrwt beam="2">  1       21 0.53189971E-01 0.45264286E+03</pdfrwt>
<totfact> 0.66270113E+04</totfact>
</mgrwt>
</event>
<event>
 7    0  0.4775379E-002  0.4537020E+03  0.7546771E-02  0.1026624E+00
         21   -1    0    0  502  501  0.00000000000E+00  0.00000000000E+00  0.83951430885E+02  0.83951430885E+02  0.00000000000E+00 0.  1.
         21   -1    0    0  501  502 -0.00000000000E+00 -0.00000000000E+00 -0.61298996310E+03  0.61298996310E+03  0.00000000000E+00 0.  1.
      99926    2    1    2    0    0  0.00000000000E+00 -0.35527136788E-14 -0.52903853221E+03  0.69694139398E+03  0.45370203667E+03 0.  0.
      99925    2    3    3    0    0  0.68829484939E+02  0.29535714535E+02 -0.46114265153E+03  0.53610851443E+03  0.26296375750E+03 0.  0.
         25    1    3    3    0    0 -0.68829484939E+02 -0.29535714535E+02 -0.67895880681E+02  0.16083287955E+03  0.12509000000E+03 0.  0.
         25    1    4    4    0    0  0.70170221038E+02  0.40880620722E+01 -0.27827497577E+03  0.31308951182E+03  0.12509000000E+03 0.  0.
         25    1    4    4    0    0 -0.13407360994E+01  0.25447652462E+02 -0.18286767576E+03  0.22301900262E+03  0.12509000000E+03 0.  0.
<mgrwt>
<rscale>  2 0.45370204E+03</rscale>
<asrwt>0</asrwt>
<pdfrwt beam="1">  1       21 0.12345798E-01 0.45370204E+03</pdfrwt>
<pdfrwt beam="2">  1       21 0.90145585E-01 0.45370204E+03</pdfrwt>
<totfact> 0.53614957E+04</totfact>
</mgrwt>
</event>
<event>
 7    0  0.4775379E-002  0.4501475E+03  0.7546771E-02  0.1027678E+00
         21   -1    0    0  502  501  0.00000000000E+00  0.00000000000E+00  0.12340303493E+03  0.12340303493E+03  0.00000000000E+00 0.  1.
         21   -1    0    0  501  502 -0.00000000000E+00 -0.00000000000E+00 -0.41051012057E+03  0.41051012057E+03  0.00000000000E+00 0.  1.
      99926    2    1    2    0    0  0.00000000000E+00 -0.71054273576E-14 -0.28710708564E+03  0.53391315550E+03  0.45014750803E+03 0.  0.
      99925    2    3    3    0    0 -0.90840055767E+02 -0.38328137817E+02 -0.12726817475E+03  0.30826531612E+03  0.26288658189E+03 0.  0.
         25    1    3    3    0    0  0.90840055767E+02  0.38328137817E+02 -0.15983891089E+03  0.22564783938E+03  0.12509000000E+03 0.  0.
         25    1    4    4    0    0 -0.23132079837E+02 -0.43692225910E+02 -0.87546957491E+02  0.16048701377E+03  0.12509000000E+03 0.  0.
         25    1    4    4    0    0 -0.67707975930E+02  0.53640880929E+01 -0.39721217260E+02  0.14777830235E+03  0.12509000000E+03 0.  0.
<mgrwt>
<rscale>  2 0.45014751E+03</rscale>
<asrwt>0</asrwt>
<pdfrwt beam="1">  1       21 0.18147505E-01 0.45014751E+03</pdfrwt>
<pdfrwt beam="2">  1       21 0.60369135E-01 0.45014751E+03</pdfrwt>
<totfact> 0.65418848E+04</totfact>
</mgrwt>
</event>
<event>
 7    0  0.4775379E-002  0.4532572E+03  0.7546771E-02  0.1026755E+00
         21   -1    0    0  502  501  0.00000000000E+00  0.00000000000E+00  0.33566482838E+02  0.33566482838E+02  0.00000000000E+00 0. -1.
         21   -1    0    0  501  502 -0.00000000000E+00 -0.00000000000E+00 -0.15301136364E+04  0.15301136364E+04  0.00000000000E+00 0. -1.
      99926    2    1    2    0    0  0.00000000000E+00  0.00000000000E+00 -0.14965471536E+04  0.15636801193E+04  0.45325724756E+03 0.  0.
      99925    2    3    3    0    0 -0.37705684908E+02 -0.76729162879E+02 -0.69681452406E+03  0.74972135499E+03  0.26310177892E+03 0.  0.
         25    1    4    4    0    0 -0.31497259871E+01 -0.19838603549E+01 -0.27582874396E+03  0.30289083936E+03  0.12509000000E+03 0.  0.
         25    1    3    3    0    0  0.37705684908E+02  0.76729162879E+02 -0.79973262952E+03  0.81395876427E+03  0.12509000000E+03 0.  0.
         25    1    4    4    0    0 -0.34555958921E+02 -0.74745302524E+02 -0.42098578010E+03  0.44683051563E+03  0.12509000000E+03 0.  0.
<mgrwt>
<rscale>  2 0.45325725E+03</rscale>
<asrwt>0</asrwt>
<pdfrwt beam="1">  1       21 0.49362491E-02 0.45325725E+03</pdfrwt>
<pdfrwt beam="2">  1       21 0.22501664E+00 0.45325725E+03</pdfrwt>
<totfact> 0.22564585E+04</totfact>
</mgrwt>
</event>
<event>
 7    0  0.4775379E-002  0.4457146E+03  0.7546771E-02  0.1029008E+00
         21   -1    0    0  502  501  0.00000000000E+00  0.00000000000E+00  0.70318273863E+03  0.70318273863E+03  0.00000000000E+00 0.  1.
         21   -1    0    0  501  502 -0.00000000000E+00 -0.00000000000E+00 -0.70629413929E+02  0.70629413929E+02  0.00000000000E+00 0.  1.
      99926    2    1    2    0    0  0.00000000000E+00  0.00000000000E+00  0.63255332470E+03  0.77381215256E+03  0.44571463837E+03 0.  0.
      99925    2    3    3    0    0 -0.35768348648E+02 -0.91834131376E+02  0.46042444270E+03  0.53931536672E+03  0.26297816429E+03 0.  0.
         25    1    4    4    0    0  0.22441541904E+02 -0.51117431046E+02  0.22589067425E+03  0.26417933185E+03  0.12509000000E+03 0.  0.
         25    1    3    3    0    0  0.35768348648E+02  0.91834131376E+02  0.17212888200E+03  0.23449678584E+03  0.12509000000E+03 0.  0.
         25    1    4    4    0    0 -0.58209890552E+02 -0.40716700330E+02  0.23453376844E+03  0.27513603487E+03  0.12509000000E+03 0.  0.
<mgrwt>
<rscale>  2 0.44571464E+03</rscale>
<asrwt>0</asrwt>
<pdfrwt beam="1">  1       21 0.10340922E+00 0.44571464E+03</pdfrwt>
<pdfrwt beam="2">  1       21 0.10386679E-01 0.44571464E+03</pdfrwt>
<totfact> 0.52802370E+04</totfact>
</mgrwt>
</event>
<event>
 7    0  0.4775379E-002  0.4525546E+03  0.7546771E-02  0.1026963E+00
         21   -1    0    0  502  501  0.00000000000E+00  0.00000000000E+00  0.79518878985E+03  0.79518878985E+03  0.00000000000E+00 0.  1.
         21   -1    0    0  501  502 -0.00000000000E+00 -0.00000000000E+00 -0.64389011341E+02  0.64389011341E+02  0.00000000000E+00 0.  1.
      99926    2    1    2    0    0  0.00000000000E+00  0.00000000000E+00  0.73079977851E+03  0.85957780119E+03  0.45255461552E+03 0.  0.
      99925    2    3    3    0    0  0.56334759528E+01 -0.75024855593E+02  0.30617382698E+03  0.41056201993E+03  0.26297964726E+03 0.  0.
         25    1    4    4    0    0  0.42005924717E+02 -0.46803843708E+02  0.14845859681E+03  0.20406508904E+03  0.12509000000E+03 0.  0.
         25    1    4    4    0    0 -0.36372448765E+02 -0.28221011885E+02  0.15771523016E+03  0.20649693089E+03  0.12509000000E+03 0.  0.
         25    1    3    3    0    0 -0.56334759528E+01  0.75024855593E+02  0.42462595153E+03  0.44901578126E+03  0.12509000000E+03 0.  0.
<mgrwt>
<rscale>  2 0.45255462E+03</rscale>
<asrwt>0</asrwt>
<pdfrwt beam="1">  1       21 0.11693952E+00 0.45255462E+03</pdfrwt>
<pdfrwt beam="2">  1       21 0.94689727E-02 0.45255462E+03</pdfrwt>
<totfact> 0.45887730E+04</totfact>
</mgrwt>
</event>
<event>
 7    0  0.4775379E-002  0.4552803E+03  0.7546771E-02  0.1026159E+00
         21   -1    0    0  502  501  0.00000000000E+00  0.00000000000E+00  0.13530595851E+04  0.13530595851E+04  0.00000000000E+00 0. -1.
         21   -1    0    0  501  502 -0.00000000000E+00 -0.00000000000E+00 -0.38298415212E+02  0.38298415212E+02  0.00000000000E+00 0. -1.
      99926    2    1    2    0    0  0.00000000000E+00  0.00000000000E+00  0.13147611698E+04  0.13913580003E+04  0.45528029957E+03 0.  0.
      99925    2    3    3    0    0 -0.35001814413E+02 -0.74593549529E+02  0.58870801848E+03  0.65001461738E+03  0.26296871895E+03 0.  0.
         25    1    3    3    0    0  0.35001814413E+02  0.74593549529E+02  0.72605315137E+03  0.74134338289E+03  0.12509000000E+03 0.  0.
         25    1    4    4    0    0  0.16044143684E+02 -0.12030169405E+02  0.27159924713E+03  0.29969284052E+03  0.12509000000E+03 0.  0.
         25    1    4    4    0    0 -0.51045958097E+02 -0.62563380123E+02  0.31710877135E+03  0.35032177686E+03  0.12509000000E+03 0.  0.
<mgrwt>
<rscale>  2 0.45528030E+03</rscale>
<asrwt>0</asrwt>
<pdfrwt beam="1">  1       21 0.19897932E+00 0.45528030E+03</pdfrwt>
<pdfrwt beam="2">  1       21 0.56321208E-02 0.45528030E+03</pdfrwt>
<totfact> 0.26505426E+04</totfact>
</mgrwt>
</event>
<event>
 7    0  0.4775379E-002  0.4474977E+03  0.7546771E-02  0.1028471E+00
         21   -1    0    0  502  501  0.00000000000E+00  0.00000000000E+00  0.36104641558E+02  0.36104641558E+02  0.00000000000E+00 0.  1.
         21   -1    0    0  501  502 -0.00000000000E+00 -0.00000000000E+00 -0.13866233264E+04  0.13866233264E+04  0.00000000000E+00 0.  1.
      99926    2    1    2    0    0  0.71054273576E-14  0.71054273576E-14 -0.13505186849E+04  0.14227279680E+04  0.44749765665E+03 0.  0.
      99925    2    3    3    0    0  0.44160534374E+02  0.50555373687E+02 -0.59181299279E+03  0.65085502902E+03  0.26241884796E+03 0.  0.
         25    1    4    4    0    0  0.35385123241E+02  0.50078761978E+01 -0.21703911966E+03  0.25304282905E+03  0.12509000000E+03 0.  0.
         25    1    3    3    0    0 -0.44160534374E+02 -0.50555373687E+02 -0.75870569208E+03  0.77187293896E+03  0.12509000000E+03 0.  0.
         25    1    4    4    0    0  0.87754111332E+01  0.45547497489E+02 -0.37477387313E+03  0.39781219997E+03  0.12509000000E+03 0.  0.
<mgrwt>
<rscale>  2 0.44749766E+03</rscale>
<asrwt>0</asrwt>
<pdfrwt beam="1">  1       21 0.53095055E-02 0.44749766E+03</pdfrwt>
<pdfrwt beam="2">  1       21 0.20391522E+00 0.44749766E+03</pdfrwt>
<totfact> 0.27289143E+04</totfact>
</mgrwt>
</event>
<event>
 7    0  0.4775379E-002  0.4485113E+03  0.7546771E-02  0.1028167E+00
         21   -1    0    0  502  501  0.00000000000E+00  0.00000000000E+00  0.15421081690E+03  0.15421081690E+03  0.00000000000E+00 0. -1.
         21   -1    0    0  501  502 -0.00000000000E+00 -0.00000000000E+00 -0.32611588058E+03  0.32611588058E+03  0.00000000000E+00 0. -1.
      99926    2    1    2    0    0  0.00000000000E+00  0.00000000000E+00 -0.17190506369E+03  0.48032669748E+03  0.44851129907E+03 0.  0.
      99925    2    3    3    0    0  0.88220582321E+02 -0.42819837589E+02 -0.63192113392E+02  0.28775872689E+03  0.26305024628E+03 0.  0.
         25    1    4    4    0    0  0.58991517062E+02 -0.30206647196E+01 -0.65939751813E+02  0.15324712875E+03  0.12509000000E+03 0.  0.
         25    1    4    4    0    0  0.29229065259E+02 -0.39799172870E+02  0.27476384207E+01  0.13451159814E+03  0.12509000000E+03 0.  0.
         25    1    3    3    0    0 -0.88220582321E+02  0.42819837589E+02 -0.10871295029E+03  0.19256797059E+03  0.12509000000E+03 0.  0.
<mgrwt>
<rscale>  2 0.44851130E+03</rscale>
<asrwt>0</asrwt>
<pdfrwt beam="1">  1       21 0.22678061E-01 0.44851130E+03</pdfrwt>
<pdfrwt beam="2">  1       21 0.47958217E-01 0.44851130E+03</pdfrwt>
<totfact> 0.70224381E+04</totfact>
</mgrwt>
</event>
<event>
 7    0  0.4775379E-002  0.4478716E+03  0.7546771E-02  0.1028359E+00
         21   -1    0    0  502  501  0.00000000000E+00  0.00000000000E+00  0.39560242784E+03  0.39560242784E+03  0.00000000000E+00 0. -1.
         21   -1    0    0  501  502 -0.00000000000E+00 -0.00000000000E+00 -0.12676171469E+03  0.12676171469E+03  0.00000000000E+00 0. -1.
      99926    2    1    2    0    0  0.14210854715E-13 -0.71054273576E-14  0.26884071315E+03  0.52236414253E+03  0.44787159807E+03 0.  0.
      99925    2    3    3    0    0  0.69406285404E+02 -0.58871750290E+02  0.10604503679E+03  0.29779109032E+03  0.26296552666E+03 0.  0.
         25    1    4    4    0    0  0.61460993524E+01 -0.20164710378E+02  0.18892380709E+02  0.12825295408E+03  0.12509000000E+03 0.  0.
         25    1    4    4    0    0  0.63260186052E+02 -0.38707039912E+02  0.87152656079E+02  0.16953813624E+03  0.12509000000E+03 0.  0.
         25    1    3    3    0    0 -0.69406285404E+02  0.58871750290E+02  0.16279567636E+03  0.22457305221E+03  0.12509000000E+03 0.  0.
<mgrwt>
<rscale>  2 0.44787160E+03</rscale>
<asrwt>0</asrwt>
<pdfrwt beam="1">  1       21 0.58176827E-01 0.44787160E+03</pdfrwt>
<pdfrwt beam="2">  1       21 0.18641429E-01 0.44787160E+03</pdfrwt>
<totfact> 0.67457825E+04</totfact>
</mgrwt>
</event>
<event>
 7    0  0.4775379E-002  0.4682001E+03  0.7546771E-02  0.1022429E+00
         21   -1    0    0  502  501  0.00000000000E+00  0.00000000000E+00  0.10053345999E+03  0.10053345999E+03  0.00000000000E+00 0.  1.
         21   -1    0    0  501  502 -0.00000000000E+00 -0.00000000000E+00 -0.54512028294E+03  0.54512028294E+03  0.00000000000E+00 0.  1.
      99926    2    1    2    0    0 -0.71054273576E-14  0.35527136788E-14 -0.44458682295E+03  0.64565374293E+03  0.46820007755E+03 0.  0.
      99925    2    3    3    0    0  0.63848092590E+02  0.23704390093E+02 -0.13258948124E+03  0.30268388074E+03  0.26343705906E+03 0.  0.
         25    1    4    4    0    0  0.46390273756E+02  0.32980335483E+02 -0.10530142653E+03  0.17313479880E+03  0.12509000000E+03 0.  0.
         25    1    3    3    0    0 -0.63848092590E+02 -0.23704390093E+02 -0.31199734170E+03  0.34296986219E+03  0.12509000000E+03 0.  0.
         25    1    4    4    0    0  0.17457818833E+02 -0.92759453902E+01 -0.27288054717E+02  0.12954908194E+03  0.12509000000E+03 0.  0.
<mgrwt>
<rscale>  2 0.46820008E+03</rscale>
<asrwt>0</asrwt>
<pdfrwt beam="1">  1       21 0.14784332E-01 0.46820008E+03</pdfrwt>
<pdfrwt beam="2">  1       21 0.80164749E-01 0.46820008E+03</pdfrwt>
<totfact> 0.50484895E+04</totfact>
</mgrwt>
</event>
<event>
 7    0  0.4775379E-002  0.4619461E+03  0.7546771E-02  0.1024218E+00
         21   -1    0    0  502  501  0.00000000000E+00  0.00000000000E+00  0.10215712121E+03  0.10215712121E+03  0.00000000000E+00 0.  1.
         21   -1    0    0  501  502 -0.00000000000E+00 -0.00000000000E+00 -0.52222046862E+03  0.52222046862E+03  0.00000000000E+00 0.  1.
      99926    2    1    2    0    0  0.00000000000E+00  0.00000000000E+00 -0.42006334742E+03  0.62437758983E+03  0.46194605620E+03 0.  0.
      99925    2    3    3    0    0  0.79548413390E+02 -0.87081386586E+02 -0.28957112261E+03  0.40853772605E+03  0.26294585106E+03 0.  0.
         25    1    4    4    0    0  0.46992058939E+02 -0.30848422792E+01 -0.12413075547E+03  0.18241086155E+03  0.12509000000E+03 0.  0.
         25    1    4    4    0    0  0.32556354451E+02 -0.83996544307E+02 -0.16544036714E+03  0.22612686450E+03  0.12509000000E+03 0.  0.
         25    1    3    3    0    0 -0.79548413390E+02  0.87081386586E+02 -0.13049222481E+03  0.21583986378E+03  0.12509000000E+03 0.  0.
<mgrwt>
<rscale>  2 0.46194606E+03</rscale>
<asrwt>0</asrwt>
<pdfrwt beam="1">  1       21 0.15023106E-01 0.46194606E+03</pdfrwt>
<pdfrwt beam="2">  1       21 0.76797129E-01 0.46194606E+03</pdfrwt>
<totfact> 0.54169679E+04</totfact>
</mgrwt>
</event>
<event>
 7    0  0.4775379E-002  0.4504509E+03  0.7546771E-02  0.1027588E+00
         21   -1    0    0  502  501  0.00000000000E+00  0.00000000000E+00  0.63449580104E+03  0.63449580104E+03  0.00000000000E+00 0.  1.
         21   -1    0    0  501  502 -0.00000000000E+00 -0.00000000000E+00 -0.79947741586E+02  0.79947741586E+02  0.00000000000E+00 0.  1.
      99926    2    1    2    0    0  0.00000000000E+00  0.00000000000E+00  0.55454805945E+03  0.71444354262E+03  0.45045091337E+03 0.  0.
      99925    2    3    3    0    0  0.11635367504E+02 -0.10125769987E+03  0.28975267427E+03  0.40435870315E+03  0.26298449575E+03 0.  0.
         25    1    3    3    0    0 -0.11635367504E+02  0.10125769987E+03  0.26479538519E+03  0.31008483948E+03  0.12509000000E+03 0.  0.
         25    1    4    4    0    0  0.15041820379E+02 -0.13198933897E+02  0.15739189715E+03  0.20204005941E+03  0.12509000000E+03 0.  0.
         25    1    4    4    0    0 -0.34064528750E+01 -0.88058765970E+02  0.13236077711E+03  0.20231864374E+03  0.12509000000E+03 0.  0.
<mgrwt>
<rscale>  2 0.45045091E+03</rscale>
<asrwt>0</asrwt>
<pdfrwt beam="1">  1       21 0.93308203E-01 0.45045091E+03</pdfrwt>
<pdfrwt beam="2">  1       21 0.11757021E-01 0.45045091E+03</pdfrwt>
<totfact> 0.54033648E+04</totfact>
</mgrwt>
</event>
<event>
 7    0  0.4775379E-002  0.4575100E+03  0.7546771E-02  0.1025506E+00
         21   -1    0    0  502  501  0.00000000000E+00  0.00000000000E+00  0.70635258237E+03  0.70635258237E+03  0.00000000000E+00 0.  1.
         21   -1    0    0  501  502 -0.00000000000E+00 -0.00000000000E+00 -0.74083181384E+02  0.74083181384E+02  0.00000000000E+00 0.  1.
      99926    2    1    2    0    0 -0.35527136788E-14  0.00000000000E+00  0.63226940098E+03  0.78043576375E+03  0.45750998451E+03 0.  0.
      99925    2    3    3    0    0 -0.17818516894E+02 -0.44712602836E+02  0.22022525869E+03  0.34714071451E+03  0.26399014131E+03 0.  0.
         25    1    4    4    0    0 -0.15948453458E+02  0.19456630416E+02  0.99056331786E+02  0.16153197393E+03  0.12509000000E+03 0.  0.
         25    1    4    4    0    0 -0.18700634367E+01 -0.64169233252E+02  0.12116892690E+03  0.18560874058E+03  0.12509000000E+03 0.  0.
         25    1    3    3    0    0  0.17818516894E+02  0.44712602836E+02  0.41204414230E+03  0.43329504924E+03  0.12509000000E+03 0.  0.
<mgrwt>
<rscale>  2 0.45750998E+03</rscale>
<asrwt>0</asrwt>
<pdfrwt beam="1">  1       21 0.10387538E+00 0.45750998E+03</pdfrwt>
<pdfrwt beam="2">  1       21 0.10894586E-01 0.45750998E+03</pdfrwt>
<totfact> 0.47777456E+04</totfact>
</mgrwt>
</event>
<event>
 7    0  0.4775379E-002  0.4591375E+03  0.7546771E-02  0.1025032E+00
         21   -1    0    0  502  501  0.00000000000E+00  0.00000000000E+00  0.19152135764E+03  0.19152135764E+03  0.00000000000E+00 0. -1.
         21   -1    0    0  501  502 -0.00000000000E+00 -0.00000000000E+00 -0.27517460843E+03  0.27517460843E+03  0.00000000000E+00 0. -1.
      99926    2    1    2    0    0  0.00000000000E+00  0.00000000000E+00 -0.83653250790E+02  0.46669596606E+03  0.45913751575E+03 0.  0.
      99925    2    3    3    0    0 -0.18231797729E+02  0.76521368355E+02  0.37533045094E+02  0.27558985765E+03  0.26144429981E+03 0.  0.
         25    1    4    4    0    0 -0.10546270494E+02  0.77547124397E+02  0.15933337120E+02  0.14841212772E+03  0.12509000000E+03 0.  0.
         25    1    4    4    0    0 -0.76855272348E+01 -0.10257560421E+01  0.21599707974E+02  0.12717772993E+03  0.12509000000E+03 0.  0.
         25    1    3    3    0    0  0.18231797729E+02 -0.76521368355E+02 -0.12118629588E+03  0.19110610841E+03  0.12509000000E+03 0.  0.
<mgrwt>
<rscale>  2 0.45913752E+03</rscale>
<asrwt>0</asrwt>
<pdfrwt beam="1">  1       21 0.28164906E-01 0.45913752E+03</pdfrwt>
<pdfrwt beam="2">  1       21 0.40466854E-01 0.45913752E+03</pdfrwt>
<totfact> 0.65503346E+04</totfact>
</mgrwt>
</event>
<event>
 7    0  0.4775379E-002  0.5333615E+03  0.7546771E-02  0.1005420E+00
         21   -1    0    0  502  501  0.00000000000E+00  0.00000000000E+00  0.22868822091E+03  0.22868822091E+03  0.00000000000E+00 0. -1.
         21   -1    0    0  501  502 -0.00000000000E+00 -0.00000000000E+00 -0.31098507816E+03  0.31098507816E+03  0.00000000000E+00 0. -1.
      99926    2    1    2    0    0 -0.28421709430E-13  0.00000000000E+00 -0.82296857253E+02  0.53967329907E+03  0.53336150688E+03 0.  0.
      99925    2    3    3    0    0  0.17410047570E+03  0.27537197404E+02 -0.37887988393E+02  0.31901762021E+03  0.26318713771E+03 0.  0.
         25    1    3    3    0    0 -0.17410047570E+03 -0.27537197404E+02 -0.44408868860E+02  0.22065567886E+03  0.12509000000E+03 0.  0.
         25    1    4    4    0    0  0.11515675018E+03  0.38010345875E+02 -0.45711690326E+02  0.18011921118E+03  0.12509000000E+03 0.  0.
         25    1    4    4    0    0  0.58943725525E+02 -0.10473148471E+02  0.78237019330E+01  0.13889840902E+03  0.12509000000E+03 0.  0.
<mgrwt>
<rscale>  2 0.53336151E+03</rscale>
<asrwt>0</asrwt>
<pdfrwt beam="1">  1       21 0.33630621E-01 0.53336151E+03</pdfrwt>
<pdfrwt beam="2">  1       21 0.45733099E-01 0.53336151E+03</pdfrwt>
<totfact> 0.35095272E+04</totfact>
</mgrwt>
</event>
<event>
 6    0  0.4775379E-002  0.4378274E+03  0.7546771E-02  0.1031415E+00
         21   -1    0    0  502  501  0.00000000000E+00  0.00000000000E+00  0.50495844827E+03  0.50495844827E+03  0.00000000000E+00 0. -1.
         21   -1    0    0  501  502 -0.00000000000E+00 -0.00000000000E+00 -0.94905266227E+02  0.94905266227E+02  0.00000000000E+00 0. -1.
      99926    2    1    2    0    0 -0.71054273576E-14  0.14210854715E-13  0.41005318204E+03  0.59986371449E+03  0.43782743617E+03 0.  0.
         25    1    3    3    0    0 -0.58347951284E+02 -0.27760936207E+01  0.13266411761E+03  0.19146661932E+03  0.12509000000E+03 0.  0.
         25    1    3    3    0    0  0.83184792552E+01  0.68056571019E+02  0.18054436429E+03  0.23009708719E+03  0.12509000000E+03 0.  0.
         25    1    3    3    0    0  0.50029472029E+02 -0.65280477399E+02  0.96844700148E+02  0.17830000799E+03  0.12509000000E+03 0.  0.
<mgrwt>
<rscale>  2 0.43782744E+03</rscale>
<asrwt>0</asrwt>
<pdfrwt beam="1">  1       21 0.74258594E-01 0.43782744E+03</pdfrwt>
<pdfrwt beam="2">  1       21 0.13956657E-01 0.43782744E+03</pdfrwt>
<totfact> 0.67372579E+04</totfact>
</mgrwt>
</event>
<event>
 7    0  0.4775379E-002  0.4556578E+03  0.7546771E-02  0.1026048E+00
         21   -1    0    0  502  501  0.00000000000E+00  0.00000000000E+00  0.12689398310E+03  0.12689398310E+03  0.00000000000E+00 0. -1.
         21   -1    0    0  501  502 -0.00000000000E+00 -0.00000000000E+00 -0.40905022257E+03  0.40905022257E+03  0.00000000000E+00 0. -1.
      99926    2    1    2    0    0  0.00000000000E+00  0.00000000000E+00 -0.28215623948E+03  0.53594420567E+03  0.45565781911E+03 0.  0.
      99925    2    3    3    0    0 -0.49659215121E+01  0.34737454247E+02 -0.30474389698E+03  0.40407661497E+03  0.26301657156E+03 0.  0.
         25    1    4    4    0    0 -0.11494312598E+02 -0.10701061169E+02 -0.19114982716E+03  0.22898121420E+03  0.12509000000E+03 0.  0.
         25    1    3    3    0    0  0.49659215121E+01 -0.34737454247E+02  0.22587657507E+02  0.13186759069E+03  0.12509000000E+03 0.  0.
         25    1    4    4    0    0  0.65283910855E+01  0.45438515416E+02 -0.11359406982E+03  0.17509540077E+03  0.12509000000E+03 0.  0.
<mgrwt>
<rscale>  2 0.45565782E+03</rscale>
<asrwt>0</asrwt>
<pdfrwt beam="1">  1       21 0.18660880E-01 0.45565782E+03</pdfrwt>
<pdfrwt beam="2">  1       21 0.60154444E-01 0.45565782E+03</pdfrwt>
<totfact> 0.62479062E+04</totfact>
</mgrwt>
</event>
<event>
 7    0  0.4775379E-002  0.4222820E+03  0.7546771E-02  0.1036326E+00
         21   -1    0    0  502  501  0.00000000000E+00  0.00000000000E+00  0.31328796347E+03  0.31328796347E+03  0.00000000000E+00 0. -1.
         21   -1    0    0  501  502 -0.00000000000E+00 -0.00000000000E+00 -0.14229887686E+03  0.14229887686E+03  0.00000000000E+00 0. -1.
      99926    2    1    2    0    0  0.00000000000E+00  0.35527136788E-14  0.17098908661E+03  0.45558684032E+03  0.42228201636E+03 0.  0.
      99925    2    3    3    0    0 -0.73007280832E+02 -0.29244917939E+02  0.10586313113E+03  0.29411168293E+03  0.26288657482E+03 0.  0.
         25    1    3    3    0    0  0.73007280832E+02  0.29244917939E+02  0.65125955480E+02  0.16147515740E+03  0.12509000000E+03 0.  0.
         25    1    4    4    0    0 -0.73217469902E+02  0.35236840377E+01  0.51941166504E+02  0.15400846446E+03  0.12509000000E+03 0.  0.
         25    1    4    4    0    0  0.21018906944E+00 -0.32768601977E+02  0.53921964625E+02  0.14010321846E+03  0.12509000000E+03 0.  0.
<mgrwt>
<rscale>  2 0.42228202E+03</rscale>
<asrwt>0</asrwt>
<pdfrwt beam="1">  1       21 0.46071760E-01 0.42228202E+03</pdfrwt>
<pdfrwt beam="2">  1       21 0.20926305E-01 0.42228202E+03</pdfrwt>
<totfact> 0.89630295E+04</totfact>
</mgrwt>
</event>
<event>
 7    0  0.4775379E-002  0.4453029E+03  0.7546771E-02  0.1029132E+00
         21   -1    0    0  502  501  0.00000000000E+00  0.00000000000E+00  0.11797242267E+03  0.11797242267E+03  0.00000000000E+00 0.  1.
         21   -1    0    0  501  502 -0.00000000000E+00 -0.00000000000E+00 -0.42021412938E+03  0.42021412938E+03  0.00000000000E+00 0.  1.
      99926    2    1    2    0    0  0.00000000000E+00  0.62172489379E-14 -0.30224170671E+03  0.53818655205E+03  0.44530294804E+03 0.  0.
      99925    2    3    3    0    0 -0.82097813247E+02  0.25379482730E+01 -0.11576450709E+03  0.29908877665E+03  0.26326067518E+03 0.  0.
         25    1    4    4    0    0 -0.58516082938E+02 -0.33940419405E+02 -0.73561773523E+02  0.16010910860E+03  0.12509000000E+03 0.  0.
         25    1    3    3    0    0  0.82097813247E+02 -0.25379482730E+01 -0.18647719962E+03  0.23909777540E+03  0.12509000000E+03 0.  0.
         25    1    4    4    0    0 -0.23581730309E+02  0.36478367678E+02 -0.42202733563E+02  0.13897966806E+03  0.12509000000E+03 0.  0.
<mgrwt>
<rscale>  2 0.44530295E+03</rscale>
<asrwt>0</asrwt>
<pdfrwt beam="1">  1       21 0.17348886E-01 0.44530295E+03</pdfrwt>
<pdfrwt beam="2">  1       21 0.61796195E-01 0.44530295E+03</pdfrwt>
<totfact> 0.67702016E+04</totfact>
</mgrwt>
</event>
<event>
 7    0  0.4775379E-002  0.4649127E+03  0.7546771E-02  0.1023366E+00
         21   -1    0    0  502  501  0.00000000000E+00  0.00000000000E+00  0.59794250320E+03  0.59794250320E+03  0.00000000000E+00 0.  1.
         21   -1    0    0  501  502 -0.00000000000E+00 -0.00000000000E+00 -0.90369815128E+02  0.90369815128E+02  0.00000000000E+00 0.  1.
      99926    2    1    2    0    0  0.00000000000E+00  0.00000000000E+00  0.50757268807E+03  0.68831231833E+03  0.46491269491E+03 0.  0.
      99925    2    3    3    0    0  0.29459434510E+02  0.66577803073E+02  0.46200970610E+03  0.53657585083E+03  0.26298329417E+03 0.  0.
         25    1    4    4    0    0  0.68302599845E+00  0.22963954370E+02  0.29655297125E+03  0.32267473187E+03  0.12509000000E+03 0.  0.
         25    1    3    3    0    0 -0.29459434510E+02 -0.66577803073E+02  0.45562981966E+02  0.15173646750E+03  0.12509000000E+03 0.  0.
         25    1    4    4    0    0  0.28776408512E+02  0.43613848702E+02  0.16545673485E+03  0.21390111896E+03  0.12509000000E+03 0.  0.
<mgrwt>
<rscale>  2 0.46491269E+03</rscale>
<asrwt>0</asrwt>
<pdfrwt beam="1">  1       21 0.87932719E-01 0.46491269E+03</pdfrwt>
<pdfrwt beam="2">  1       21 0.13289679E-01 0.46491269E+03</pdfrwt>
<totfact> 0.49558108E+04</totfact>
</mgrwt>
</event>
<event>
 7    0  0.4775379E-002  0.4560278E+03  0.7546771E-02  0.1025940E+00
         21   -1    0    0  502  501  0.00000000000E+00  0.00000000000E+00  0.47777830170E+03  0.47777830170E+03  0.00000000000E+00 0.  1.
         21   -1    0    0  501  502 -0.00000000000E+00 -0.00000000000E+00 -0.10881687671E+03  0.10881687671E+03  0.00000000000E+00 0.  1.
      99926    2    1    2    0    0  0.00000000000E+00  0.00000000000E+00  0.36896142499E+03  0.58659517842E+03  0.45602781737E+03 0.  0.
      99925    2    3    3    0    0  0.84383209932E+02 -0.75690135348E+02  0.21501349120E+03  0.35812855695E+03  0.26301281185E+03 0.  0.
         25    1    4    4    0    0  0.15326179603E+02 -0.10184346899E+02  0.71338167073E+02  0.14517318928E+03  0.12509000000E+03 0.  0.
         25    1    4    4    0    0  0.69057030329E+02 -0.65505788449E+02  0.14367532413E+03  0.21295536768E+03  0.12509000000E+03 0.  0.
         25    1    3    3    0    0 -0.84383209932E+02  0.75690135348E+02  0.15394793379E+03  0.22846662147E+03  0.12509000000E+03 0.  0.
<mgrwt>
<rscale>  2 0.45602782E+03</rscale>
<asrwt>0</asrwt>
<pdfrwt beam="1">  1       21 0.70261514E-01 0.45602782E+03</pdfrwt>
<pdfrwt beam="2">  1       21 0.16002482E-01 0.45602782E+03</pdfrwt>
<totfact> 0.59030013E+04</totfact>
</mgrwt>
</event>
<event>
 7    0  0.4775379E-002  0.4696631E+03  0.7546771E-02  0.1022015E+00
         21   -1    0    0  502  501  0.00000000000E+00  0.00000000000E+00  0.59494838593E+03  0.59494838593E+03  0.00000000000E+00 0.  1.
         21   -1    0    0  501  502 -0.00000000000E+00 -0.00000000000E+00 -0.92690151447E+02  0.92690151447E+02  0.00000000000E+00 0.  1.
      99926    2    1    2    0    0  0.17763568394E-14  0.00000000000E+00  0.50225823448E+03  0.68763853738E+03  0.46966309625E+03 0.  0.
      99925    2    3    3    0    0  0.94952691631E+01  0.10714317604E+03  0.21415301163E+03  0.35564162798E+03  0.26277297208E+03 0.  0.
         25    1    4    4    0    0 -0.11048398762E+02  0.35761377158E+02  0.14316506133E+03  0.19376451196E+03  0.12509000000E+03 0.  0.
         25    1    3    3    0    0 -0.94952691631E+01 -0.10714317604E+03  0.28810522286E+03  0.33199690939E+03  0.12509000000E+03 0.  0.
         25    1    4    4    0    0  0.20543667925E+02  0.71381798883E+02  0.70987950297E+02  0.16187711602E+03  0.12509000000E+03 0.  0.
<mgrwt>
<rscale>  2 0.46966310E+03</rscale>
<asrwt>0</asrwt>
<pdfrwt beam="1">  1       21 0.87492408E-01 0.46966310E+03</pdfrwt>
<pdfrwt beam="2">  1       21 0.13630905E-01 0.46966310E+03</pdfrwt>
<totfact> 0.47812340E+04</totfact>
</mgrwt>
</event>
<event>
 7    0  0.4775379E-002  0.4357868E+03  0.7546771E-02  0.1032047E+00
         21   -1    0    0  502  501  0.00000000000E+00  0.00000000000E+00  0.20946521488E+03  0.20946521488E+03  0.00000000000E+00 0. -1.
         21   -1    0    0  501  502 -0.00000000000E+00 -0.00000000000E+00 -0.22666067588E+03  0.22666067588E+03  0.00000000000E+00 0. -1.
      99926    2    1    2    0    0 -0.71054273576E-14 -0.35527136788E-14 -0.17195461003E+02  0.43612589076E+03  0.43578676978E+03 0.  0.
      99925    2    3    3    0    0 -0.48134687808E+02  0.28167653242E+02 -0.87105715028E+02  0.28235555365E+03  0.26272968661E+03 0.  0.
         25    1    3    3    0    0  0.48134687808E+02 -0.28167653242E+02  0.69910254026E+02  0.15377033712E+03  0.12509000000E+03 0.  0.
         25    1    4    4    0    0 -0.33835478030E+02  0.37971318867E+02 -0.12338501530E+02  0.13559648723E+03  0.12509000000E+03 0.  0.
         25    1    4    4    0    0 -0.14299209778E+02 -0.98036656249E+01 -0.74767213498E+02  0.14675906641E+03  0.12509000000E+03 0.  0.
<mgrwt>
<rscale>  2 0.43578677E+03</rscale>
<asrwt>0</asrwt>
<pdfrwt beam="1">  1       21 0.30803708E-01 0.43578677E+03</pdfrwt>
<pdfrwt beam="2">  1       21 0.33332452E-01 0.43578677E+03</pdfrwt>
<totfact> 0.81788539E+04</totfact>
</mgrwt>
</event>
<event>
 7    0  0.4775379E-002  0.4502881E+03  0.7546771E-02  0.1027636E+00
         21   -1    0    0  502  501  0.00000000000E+00  0.00000000000E+00  0.26061384495E+03  0.26061384495E+03  0.00000000000E+00 0.  1.
         21   -1    0    0  501  502 -0.00000000000E+00 -0.00000000000E+00 -0.19450176277E+03  0.19450176277E+03  0.00000000000E+00 0.  1.
      99926    2    1    2    0    0  0.00000000000E+00  0.00000000000E+00  0.66112082188E+02  0.45511560772E+03  0.45028813995E+03 0.  0.
      99925    2    3    3    0    0  0.87027821145E+02  0.64822813937E+02  0.47944016964E+02  0.28852201374E+03  0.26300282278E+03 0.  0.
         25    1    4    4    0    0  0.73903880127E+02  0.62262958571E+02  0.17087112908E+02  0.15899036774E+03  0.12509000000E+03 0.  0.
         25    1    4    4    0    0  0.13123941018E+02  0.25598553665E+01  0.30856904057E+02  0.12953164600E+03  0.12509000000E+03 0.  0.
         25    1    3    3    0    0 -0.87027821145E+02 -0.64822813937E+02  0.18168065224E+02  0.16659359398E+03  0.12509000000E+03 0.  0.
<mgrwt>
<rscale>  2 0.45028814E+03</rscale>
<asrwt>0</asrwt>
<pdfrwt beam="1">  1       21 0.38325565E-01 0.45028814E+03</pdfrwt>
<pdfrwt beam="2">  1       21 0.28603200E-01 0.45028814E+03</pdfrwt>
<totfact> 0.71175088E+04</totfact>
</mgrwt>
</event>
<event>
 7    0  0.4775379E-002  0.4547385E+03  0.7546771E-02  0.1026318E+00
         21   -1    0    0  502  501  0.00000000000E+00  0.00000000000E+00  0.14975683086E+03  0.14975683086E+03  0.00000000000E+00 0. -1.
         21   -1    0    0  501  502 -0.00000000000E+00 -0.00000000000E+00 -0.34520475629E+03  0.34520475629E+03  0.00000000000E+00 0. -1.
      99926    2    1    2    0    0 -0.71054273576E-14  0.00000000000E+00 -0.19544792542E+03  0.49496158715E+03  0.45473847561E+03 0.  0.
      99925    2    3    3    0    0  0.62564464893E+02  0.74238786508E+02 -0.59785796704E+02  0.28644916316E+03  0.26277951194E+03 0.  0.
         25    1    4    4    0    0  0.14665486353E+01  0.13108693250E+02 -0.45400615016E+02  0.13372625975E+03  0.12509000000E+03 0.  0.
         25    1    4    4    0    0  0.61097916258E+02  0.61130093259E+02 -0.14385181688E+02  0.15272290341E+03  0.12509000000E+03 0.  0.
         25    1    3    3    0    0 -0.62564464893E+02 -0.74238786508E+02 -0.13566212872E+03  0.20851242399E+03  0.12509000000E+03 0.  0.
<mgrwt>
<rscale>  2 0.45473848E+03</rscale>
<asrwt>0</asrwt>
<pdfrwt beam="1">  1       21 0.22023064E-01 0.45473848E+03</pdfrwt>
<pdfrwt beam="2">  1       21 0.50765405E-01 0.45473848E+03</pdfrwt>
<totfact> 0.65762514E+04</totfact>
</mgrwt>
</event>
<event>
 7    0  0.4775379E-002  0.4527008E+03  0.7546771E-02  0.1026920E+00
         21   -1    0    0  502  501  0.00000000000E+00  0.00000000000E+00  0.32684744616E+03  0.32684744616E+03  0.00000000000E+00 0. -1.
         21   -1    0    0  501  502 -0.00000000000E+00 -0.00000000000E+00 -0.15675356238E+03  0.15675356238E+03  0.00000000000E+00 0. -1.
      99926    2    1    2    0    0  0.00000000000E+00  0.00000000000E+00  0.17009388378E+03  0.48360100854E+03  0.45270079099E+03 0.  0.
      99925    2    3    3    0    0 -0.45550495390E+02  0.36633492266E+02  0.63716028173E+01  0.26942968980E+03  0.26293516318E+03 0.  0.
         25    1    3    3    0    0  0.45550495390E+02 -0.36633492266E+02  0.16372228097E+03  0.21417131874E+03  0.12509000000E+03 0.  0.
         25    1    4    4    0    0 -0.59472894229E+02  0.26692449231E+01  0.11112850057E+02  0.13897896802E+03  0.12509000000E+03 0.  0.
         25    1    4    4    0    0  0.13922398839E+02  0.33964247343E+02 -0.47412472399E+01  0.13045072178E+03  0.12509000000E+03 0.  0.
<mgrwt>
<rscale>  2 0.45270079E+03</rscale>
<asrwt>0</asrwt>
<pdfrwt beam="1">  1       21 0.48065801E-01 0.45270079E+03</pdfrwt>
<pdfrwt beam="2">  1       21 0.23051994E-01 0.45270079E+03</pdfrwt>
<totfact> 0.67665514E+04</totfact>
</mgrwt>
</event>
<event>
 7    0  0.4775379E-002  0.4556376E+03  0.7546771E-02  0.1026054E+00
         21   -1    0    0  502  501  0.00000000000E+00  0.00000000000E+00  0.33105931561E+03  0.33105931561E+03  0.00000000000E+00 0.  1.
         21   -1    0    0  501  502 -0.00000000000E+00 -0.00000000000E+00 -0.15677370991E+03  0.15677370991E+03  0.00000000000E+00 0.  1.
      99926    2    1    2    0    0  0.00000000000E+00  0.00000000000E+00  0.17428560570E+03  0.48783302553E+03  0.45563756259E+03 0.  0.
      99925    2    3    3    0    0  0.27205785173E+02 -0.10617968504E+03  0.14497540850E+03  0.31895177724E+03  0.26210319890E+03 0.  0.
         25    1    4    4    0    0 -0.22718451231E+02 -0.57723640616E+02  0.87045144237E+02  0.16453726614E+03  0.12509000000E+03 0.  0.
         25    1    4    4    0    0  0.49924236404E+02 -0.48456044426E+02  0.57930264265E+02  0.15441451110E+03  0.12509000000E+03 0.  0.
         25    1    3    3    0    0 -0.27205785173E+02  0.10617968504E+03  0.29310197196E+02  0.16888124828E+03  0.12509000000E+03 0.  0.
<mgrwt>
<rscale>  2 0.45563756E+03</rscale>
<asrwt>0</asrwt>
<pdfrwt beam="1">  1       21 0.48685194E-01 0.45563756E+03</pdfrwt>
<pdfrwt beam="2">  1       21 0.23054957E-01 0.45563756E+03</pdfrwt>
<totfact> 0.65800514E+04</totfact>
</mgrwt>
</event>
<event>
 7    0  0.4775379E-002  0.4542153E+03  0.7546771E-02  0.1026472E+00
         21   -1    0    0  502  501  0.00000000000E+00  0.00000000000E+00  0.38480240300E+03  0.38480240300E+03  0.00000000000E+00 0. -1.
         21   -1    0    0  501  502 -0.00000000000E+00 -0.00000000000E+00 -0.13403732018E+03  0.13403732018E+03  0.00000000000E+00 0. -1.
      99926    2    1    2    0    0  0.41633363423E-16 -0.14210854715E-13  0.25076508282E+03  0.51883972317E+03  0.45421529210E+03 0.  0.
      99925    2    3    3    0    0 -0.48648216017E-01 -0.76571466033E+02  0.25133467523E+03  0.37217335241E+03  0.26359190711E+03 0.  0.
         25    1    3    3    0    0  0.48648216017E-01  0.76571466033E+02 -0.56959240761E+00  0.14666637076E+03  0.12509000000E+03 0.  0.
         25    1    4    4    0    0 -0.17688060602E+02 -0.55867651410E+02  0.17565128256E+03  0.22346127881E+03  0.12509000000E+03 0.  0.
         25    1    4    4    0    0  0.17639412386E+02 -0.20703814623E+02  0.75683392668E+02  0.14871207360E+03  0.12509000000E+03 0.  0.
<mgrwt>
<rscale>  2 0.45421529E+03</rscale>
<asrwt>0</asrwt>
<pdfrwt beam="1">  1       21 0.56588589E-01 0.45421529E+03</pdfrwt>
<pdfrwt beam="2">  1       21 0.19711371E-01 0.45421529E+03</pdfrwt>
<totfact> 0.64366192E+04</totfact>
</mgrwt>
</event>
<event>
 7    0  0.4775379E-002  0.4579361E+03  0.7546771E-02  0.1025382E+00
         21   -1    0    0  502  501  0.00000000000E+00  0.00000000000E+00  0.52008903076E+03  0.52008903076E+03  0.00000000000E+00 0. -1.
         21   -1    0    0  501  502 -0.00000000000E+00 -0.00000000000E+00 -0.10080268537E+03  0.10080268537E+03  0.00000000000E+00 0. -1.
      99926    2    1    2    0    0  0.00000000000E+00  0.00000000000E+00  0.41928634539E+03  0.62089171613E+03  0.45793611314E+03 0.  0.
      99925    2    3    3    0    0  0.93659085924E+02  0.67055871626E+02  0.28031488869E+03  0.40128049562E+03  0.26302297437E+03 0.  0.
         25    1    4    4    0    0  0.15503437807E+02  0.24492638976E+02  0.90189101010E+02  0.15691344107E+03  0.12509000000E+03 0.  0.
         25    1    3    3    0    0 -0.93659085924E+02 -0.67055871626E+02  0.13897145670E+03  0.21961122051E+03  0.12509000000E+03 0.  0.
         25    1    4    4    0    0  0.78155648117E+02  0.42563232651E+02  0.19012578768E+03  0.24436705455E+03  0.12509000000E+03 0.  0.
<mgrwt>
<rscale>  2 0.45793611E+03</rscale>
<asrwt>0</asrwt>
<pdfrwt beam="1">  1       21 0.76483680E-01 0.45793611E+03</pdfrwt>
<pdfrwt beam="2">  1       21 0.14823925E-01 0.45793611E+03</pdfrwt>
<totfact> 0.56098417E+04</totfact>
</mgrwt>
</event>
<event>
 7    0  0.4775379E-002  0.4474130E+03  0.7546771E-02  0.1028496E+00
         21   -1    0    0  502  501  0.00000000000E+00  0.00000000000E+00  0.12153650060E+03  0.12153650060E+03  0.00000000000E+00 0. -1.
         21   -1    0    0  501  502 -0.00000000000E+00 -0.00000000000E+00 -0.41176600681E+03  0.41176600681E+03  0.00000000000E+00 0. -1.
      99926    2    1    2    0    0  0.00000000000E+00  0.00000000000E+00 -0.29022950621E+03  0.53330250741E+03  0.44741300621E+03 0.  0.
      99925    2    3    3    0    0 -0.82158405070E+02 -0.65980151644E+02 -0.17177183747E+03  0.33135421868E+03  0.26303359131E+03 0.  0.
         25    1    4    4    0    0 -0.19556136789E+02 -0.67354315675E+02 -0.90285467965E+02  0.16946391991E+03  0.12509000000E+03 0.  0.
         25    1    4    4    0    0 -0.62602268281E+02  0.13741640301E+01 -0.81486369501E+02  0.16189029877E+03  0.12509000000E+03 0.  0.
         25    1    3    3    0    0  0.82158405070E+02  0.65980151644E+02 -0.11845766875E+03  0.20194828873E+03  0.12509000000E+03 0.  0.
<mgrwt>
<rscale>  2 0.44741301E+03</rscale>
<asrwt>0</asrwt>
<pdfrwt beam="1">  1       21 0.17873015E-01 0.44741301E+03</pdfrwt>
<pdfrwt beam="2">  1       21 0.60553825E-01 0.44741301E+03</pdfrwt>
<totfact> 0.66912172E+04</totfact>
</mgrwt>
</event>
<event>
 7    0  0.4775379E-002  0.4406170E+03  0.7546771E-02  0.1030558E+00
         21   -1    0    0  502  501  0.00000000000E+00  0.00000000000E+00  0.58259235554E+02  0.58259235554E+02  0.00000000000E+00 0.  1.
         21   -1    0    0  501  502 -0.00000000000E+00 -0.00000000000E+00 -0.83310104108E+03  0.83310104108E+03  0.00000000000E+00 0.  1.
      99926    2    1    2    0    0  0.71054273576E-14  0.00000000000E+00 -0.77484180552E+03  0.89136027663E+03  0.44061697558E+03 0.  0.
      99925    2    3    3    0    0 -0.24717766805E+02 -0.76117868802E+02 -0.37577379542E+03  0.46555787793E+03  0.26293210994E+03 0.  0.
         25    1    4    4    0    0 -0.52886483412E+02 -0.37887906060E+02 -0.18857353795E+03  0.23545691934E+03  0.12509000000E+03 0.  0.
         25    1    4    4    0    0  0.28168716607E+02 -0.38229962741E+02 -0.18720025747E+03  0.23010095859E+03  0.12509000000E+03 0.  0.
         25    1    3    3    0    0  0.24717766805E+02  0.76117868802E+02 -0.39906801010E+03  0.42580239870E+03  0.12509000000E+03 0.  0.
<mgrwt>
<rscale>  2 0.44061698E+03</rscale>
<asrwt>0</asrwt>
<pdfrwt beam="1">  1       21 0.85675346E-02 0.44061698E+03</pdfrwt>
<pdfrwt beam="2">  1       21 0.12251486E+00 0.44061698E+03</pdfrwt>
<totfact> 0.48885120E+04</totfact>
</mgrwt>
</event>
<event>
 7    0  0.4775379E-002  0.4476297E+03  0.7546771E-02  0.1028431E+00
         21   -1    0    0  502  501  0.00000000000E+00  0.00000000000E+00  0.61522353096E+03  0.61522353096E+03  0.00000000000E+00 0. -1.
         21   -1    0    0  501  502 -0.00000000000E+00 -0.00000000000E+00 -0.81422577523E+02  0.81422577523E+02  0.00000000000E+00 0. -1.
      99926    2    1    2    0    0  0.00000000000E+00  0.00000000000E+00  0.53380095344E+03  0.69664610849E+03  0.44762969358E+03 0.  0.
      99925    2    3    3    0    0  0.91870011347E+02  0.34406284168E+02  0.40118711587E+03  0.48962478255E+03  0.26297801121E+03 0.  0.
         25    1    4    4    0    0  0.60365459069E+02 -0.16257611318E+02  0.23241180394E+03  0.27123984457E+03  0.12509000000E+03 0.  0.
         25    1    4    4    0    0  0.31504552278E+02  0.50663895485E+02  0.16877531193E+03  0.21838493798E+03  0.12509000000E+03 0.  0.
         25    1    3    3    0    0 -0.91870011347E+02 -0.34406284168E+02  0.13261383758E+03  0.20702132593E+03  0.12509000000E+03 0.  0.
<mgrwt>
<rscale>  2 0.44762969E+03</rscale>
<asrwt>0</asrwt>
<pdfrwt beam="1">  1       21 0.90474046E-01 0.44762969E+03</pdfrwt>
<pdfrwt beam="2">  1       21 0.11973909E-01 0.44762969E+03</pdfrwt>
<totfact> 0.56279707E+04</totfact>
</mgrwt>
</event>
<event>
 7    0  0.4775379E-002  0.4606023E+03  0.7546771E-02  0.1024607E+00
         21   -1    0    0  502  501  0.00000000000E+00  0.00000000000E+00  0.26083163330E+03  0.26083163330E+03  0.00000000000E+00 0. -1.
         21   -1    0    0  501  502 -0.00000000000E+00 -0.00000000000E+00 -0.20334426266E+03  0.20334426266E+03  0.00000000000E+00 0. -1.
      99926    2    1    2    0    0  0.71054273576E-14  0.00000000000E+00  0.57487370634E+02  0.46417589596E+03  0.46060228463E+03 0.  0.
      99925    2    3    3    0    0 -0.55019347379E+02  0.24250396865E+02  0.13884649174E+03  0.30329698180E+03  0.26286023009E+03 0.  0.
         25    1    3    3    0    0  0.55019347379E+02 -0.24250396865E+02 -0.81359121108E+02  0.16087891416E+03  0.12509000000E+03 0.  0.
         25    1    4    4    0    0  0.11637776382E+02  0.13393484119E+01  0.73358379271E+02  0.14548605295E+03  0.12509000000E+03 0.  0.
         25    1    4    4    0    0 -0.66657123760E+02  0.22911048453E+02  0.65488112471E+02  0.15781092885E+03  0.12509000000E+03 0.  0.
<mgrwt>
<rscale>  2 0.46060228E+03</rscale>
<asrwt>0</asrwt>
<pdfrwt beam="1">  1       21 0.38357593E-01 0.46060228E+03</pdfrwt>
<pdfrwt beam="2">  1       21 0.29903568E-01 0.46060228E+03</pdfrwt>
<totfact> 0.64927607E+04</totfact>
</mgrwt>
</event>
<event>
 7    0  0.4775379E-002  0.4539025E+03  0.7546771E-02  0.1026565E+00
         21   -1    0    0  502  501  0.00000000000E+00  0.00000000000E+00  0.61831270352E+02  0.61831270352E+02  0.00000000000E+00 0.  1.
         21   -1    0    0  501  502 -0.00000000000E+00 -0.00000000000E+00 -0.83302314398E+03  0.83302314398E+03  0.00000000000E+00 0.  1.
      99926    2    1    2    0    0  0.00000000000E+00  0.71054273576E-14 -0.77119187363E+03  0.89485441433E+03  0.45390254119E+03 0.  0.
      99925    2    3    3    0    0  0.80912844744E+02  0.37662772594E+02 -0.61864807676E+03  0.67833076448E+03  0.26351814030E+03 0.  0.
         25    1    4    4    0    0  0.23340557531E+02  0.59023803383E+00 -0.37518248233E+03  0.39617487698E+03  0.12509000000E+03 0.  0.
         25    1    4    4    0    0  0.57572287213E+02  0.37072534560E+02 -0.24346559444E+03  0.28215588749E+03  0.12509000000E+03 0.  0.
         25    1    3    3    0    0 -0.80912844744E+02 -0.37662772594E+02 -0.15254379686E+03  0.21652364985E+03  0.12509000000E+03 0.  0.
<mgrwt>
<rscale>  2 0.45390254E+03</rscale>
<asrwt>0</asrwt>
<pdfrwt beam="1">  1       21 0.90928336E-02 0.45390254E+03</pdfrwt>
<pdfrwt beam="2">  1       21 0.12250341E+00 0.45390254E+03</pdfrwt>
<totfact> 0.43832353E+04</totfact>
</mgrwt>
</event>
<event>
 7    0  0.4775379E-002  0.4537653E+03  0.7546771E-02  0.1026605E+00
         21   -1    0    0  502  501  0.00000000000E+00  0.00000000000E+00  0.49580543590E+03  0.49580543590E+03  0.00000000000E+00 0.  1.
         21   -1    0    0  501  502 -0.00000000000E+00 -0.00000000000E+00 -0.10382244389E+03  0.10382244389E+03  0.00000000000E+00 0.  1.
      99926    2    1    2    0    0 -0.35527136788E-14  0.00000000000E+00  0.39198299202E+03  0.59962787979E+03  0.45376527874E+03 0.  0.
      99925    2    3    3    0    0  0.21566693833E+02 -0.55419033434E+02  0.37238778561E+03  0.45974267055E+03  0.26297199224E+03 0.  0.
         25    1    4    4    0    0 -0.20020298505E+02 -0.42901538410E+01  0.15222650838E+03  0.19808996876E+03  0.12509000000E+03 0.  0.
         25    1    3    3    0    0 -0.21566693833E+02  0.55419033434E+02  0.19595206412E+02  0.13988520924E+03  0.12509000000E+03 0.  0.
         25    1    4    4    0    0  0.41586992338E+02 -0.51128879594E+02  0.22016127723E+03  0.26165270178E+03  0.12509000000E+03 0.  0.
<mgrwt>
<rscale>  2 0.45376528E+03</rscale>
<asrwt>0</asrwt>
<pdfrwt beam="1">  1       21 0.72912563E-01 0.45376528E+03</pdfrwt>
<pdfrwt beam="2">  1       21 0.15268007E-01 0.45376528E+03</pdfrwt>
<totfact> 0.59277369E+04</totfact>
</mgrwt>
</event>
<event>
 7    0  0.4775379E-002  0.4575663E+03  0.7546771E-02  0.1025489E+00
         21   -1    0    0  502  501  0.00000000000E+00  0.00000000000E+00  0.53848458217E+03  0.53848458217E+03  0.00000000000E+00 0.  1.
         21   -1    0    0  501  502 -0.00000000000E+00 -0.00000000000E+00 -0.97201895078E+02  0.97201895078E+02  0.00000000000E+00 0.  1.
      99926    2    1    2    0    0  0.00000000000E+00  0.88817841970E-15  0.44128268710E+03  0.63568647725E+03  0.45756626562E+03 0.  0.
      99925    2    3    3    0    0  0.83106484313E+02 -0.29478094591E+01  0.38844291207E+03  0.47645417136E+03  0.26306901024E+03 0.  0.
         25    1    3    3    0    0 -0.83106484313E+02  0.29478094591E+01  0.52839775023E+02  0.15923230589E+03  0.12509000000E+03 0.  0.
         25    1    4    4    0    0  0.22257449771E+01  0.14318575312E+02  0.17478947164E+03  0.21542711769E+03  0.12509000000E+03 0.  0.
         25    1    4    4    0    0  0.80880739336E+02 -0.17266384771E+02  0.21365344044E+03  0.26102705367E+03  0.12509000000E+03 0.  0.
<mgrwt>
<rscale>  2 0.45756627E+03</rscale>
<asrwt>0</asrwt>
<pdfrwt beam="1">  1       21 0.79188908E-01 0.45756627E+03</pdfrwt>
<pdfrwt beam="2">  1       21 0.14294397E-01 0.45756627E+03</pdfrwt>
<totfact> 0.55402974E+04</totfact>
</mgrwt>
</event>
<event>
 7    0  0.4775379E-002  0.4570630E+03  0.7546771E-02  0.1025636E+00
         21   -1    0    0  502  501  0.00000000000E+00  0.00000000000E+00  0.25389946294E+03  0.25389946294E+03  0.00000000000E+00 0. -1.
         21   -1    0    0  501  502 -0.00000000000E+00 -0.00000000000E+00 -0.20569817636E+03  0.20569817636E+03  0.00000000000E+00 0. -1.
      99926    2    1    2    0    0  0.44408920985E-15  0.17763568394E-14  0.48201286580E+02  0.45959763931E+03  0.45706304382E+03 0.  0.
      99925    2    3    3    0    0 -0.36818689633E+01 -0.15460925619E+02 -0.84226678476E+02  0.27673903161E+03  0.26313069351E+03 0.  0.
         25    1    4    4    0    0  0.26521580614E+02 -0.30504819563E+02 -0.61762764047E+02  0.14524491515E+03  0.12509000000E+03 0.  0.
         25    1    4    4    0    0 -0.30203449578E+02  0.15043893945E+02 -0.22463914429E+02  0.13149411646E+03  0.12509000000E+03 0.  0.
         25    1    3    3    0    0  0.36818689633E+01  0.15460925619E+02  0.13242796506E+03  0.18285860770E+03  0.12509000000E+03 0.  0.
<mgrwt>
<rscale>  2 0.45706304E+03</rscale>
<asrwt>0</asrwt>
<pdfrwt beam="1">  1       21 0.37338157E-01 0.45706304E+03</pdfrwt>
<pdfrwt beam="2">  1       21 0.30249732E-01 0.45706304E+03</pdfrwt>
<totfact> 0.67098974E+04</totfact>
</mgrwt>
</event>
<event>
 7    0  0.4775379E-002  0.4586233E+03  0.7546771E-02  0.1025181E+00
         21   -1    0    0  502  501  0.00000000000E+00  0.00000000000E+00  0.16632047623E+04  0.16632047623E+04  0.00000000000E+00 0.  1.
         21   -1    0    0  501  502 -0.00000000000E+00 -0.00000000000E+00 -0.31615974507E+02  0.31615974507E+02  0.00000000000E+00 0.  1.
      99926    2    1    2    0    0 -0.14210854715E-13  0.00000000000E+00  0.16315887878E+04  0.16948207368E+04  0.45862332852E+03 0.  0.
      99925    2    3    3    0    0 -0.91445945707E+02  0.48236306719E+02  0.12216936256E+04  0.12539685457E+04  0.26308306032E+03 0.  0.
         25    1    4    4    0    0 -0.58416929480E+02  0.61227217642E+02  0.58921207237E+03  0.60825955328E+03  0.12509000000E+03 0.  0.
         25    1    4    4    0    0 -0.33029016227E+02 -0.12990910923E+02  0.63248155322E+03  0.64570899246E+03  0.12509000000E+03 0.  0.
         25    1    3    3    0    0  0.91445945707E+02 -0.48236306719E+02  0.40989516221E+03  0.44085219108E+03  0.12509000000E+03 0.  0.
<mgrwt>
<rscale>  2 0.45862333E+03</rscale>
<asrwt>0</asrwt>
<pdfrwt beam="1">  1       21 0.24458888E+00 0.45862333E+03</pdfrwt>
<pdfrwt beam="2">  1       21 0.46494091E-02 0.45862333E+03</pdfrwt>
<totfact> 0.18834142E+04</totfact>
</mgrwt>
</event>
<event>
 7    0  0.4775379E-002  0.4549538E+03  0.7546771E-02  0.1026255E+00
         21   -1    0    0  502  501  0.00000000000E+00  0.00000000000E+00  0.18614581770E+04  0.18614581770E+04  0.00000000000E+00 0. -1.
         21   -1    0    0  501  502 -0.00000000000E+00 -0.00000000000E+00 -0.27798491397E+02  0.27798491397E+02  0.00000000000E+00 0. -1.
      99926    2    1    2    0    0  0.00000000000E+00 -0.71054273576E-14  0.18336596856E+04  0.18892566684E+04  0.45495375202E+03 0.  0.
      99925    2    3    3    0    0  0.60981806590E+02 -0.51222855061E+02  0.82062138731E+03  0.86542237345E+03  0.26304726102E+03 0.  0.
         25    1    4    4    0    0  0.71682686119E+02 -0.26142768818E+02  0.45762749078E+03  0.48051251833E+03  0.12509000000E+03 0.  0.
         25    1    3    3    0    0 -0.60981806590E+02  0.51222855061E+02  0.10130382983E+04  0.10238342950E+04  0.12509000000E+03 0.  0.
         25    1    4    4    0    0 -0.10700879529E+02 -0.25080086243E+02  0.36299389653E+03  0.38490985512E+03  0.12509000000E+03 0.  0.
<mgrwt>
<rscale>  2 0.45495375E+03</rscale>
<asrwt>0</asrwt>
<pdfrwt beam="1">  1       21 0.27374376E+00 0.45495375E+03</pdfrwt>
<pdfrwt beam="2">  1       21 0.40880147E-02 0.45495375E+03</pdfrwt>
<totfact> 0.15608872E+04</totfact>
</mgrwt>
</event>
<event>
 7    0  0.4775379E-002  0.4567300E+03  0.7546771E-02  0.1025734E+00
         21   -1    0    0  502  501  0.00000000000E+00  0.00000000000E+00  0.33883897673E+03  0.33883897673E+03  0.00000000000E+00 0. -1.
         21   -1    0    0  501  502 -0.00000000000E+00 -0.00000000000E+00 -0.15390963670E+03  0.15390963670E+03  0.00000000000E+00 0. -1.
      99926    2    1    2    0    0 -0.35527136788E-14  0.00000000000E+00  0.18492934003E+03  0.49274861343E+03  0.45673004635E+03 0.  0.
      99925    2    3    3    0    0 -0.28706529522E+02  0.58207441281E+02  0.14097436963E+02  0.27129157863E+03  0.26303652189E+03 0.  0.
         25    1    3    3    0    0  0.28706529522E+02 -0.58207441281E+02  0.17083190306E+03  0.22145703480E+03  0.12509000000E+03 0.  0.
         25    1    4    4    0    0 -0.26411966911E+02 -0.21809889354E+01 -0.16825565475E+02  0.12896881973E+03  0.12509000000E+03 0.  0.
         25    1    4    4    0    0 -0.22945626106E+01  0.60388430216E+02  0.30923002438E+02  0.14232275890E+03  0.12509000000E+03 0.  0.
<mgrwt>
<rscale>  2 0.45673005E+03</rscale>
<asrwt>0</asrwt>
<pdfrwt beam="1">  1       21 0.49829261E-01 0.45673005E+03</pdfrwt>
<pdfrwt beam="2">  1       21 0.22633770E-01 0.45673005E+03</pdfrwt>
<totfact> 0.64887380E+04</totfact>
</mgrwt>
</event>
<event>
 7    0  0.4775379E-002  0.4396408E+03  0.7546771E-02  0.1030857E+00
         21   -1    0    0  502  501  0.00000000000E+00  0.00000000000E+00  0.53928238670E+03  0.53928238670E+03  0.00000000000E+00 0.  1.
         21   -1    0    0  501  502 -0.00000000000E+00 -0.00000000000E+00 -0.89602429560E+02  0.89602429560E+02  0.00000000000E+00 0.  1.
      99926    2    1    2    0    0 -0.71054273576E-14 -0.71054273576E-14  0.44967995714E+03  0.62888481626E+03  0.43964081734E+03 0.  0.
      99925    2    3    3    0    0  0.39281191638E+02  0.56097093688E+02  0.38760260913E+03  0.47335025042E+03  0.26293493687E+03 0.  0.
         25    1    4    4    0    0  0.49272258329E+01  0.18549551456E+02  0.12404944892E+03  0.17721212512E+03  0.12509000000E+03 0.  0.
         25    1    4    4    0    0  0.34353965805E+02  0.37547542232E+02  0.26355316022E+03  0.29613812530E+03  0.12509000000E+03 0.  0.
         25    1    3    3    0    0 -0.39281191638E+02 -0.56097093688E+02  0.62077348010E+02  0.15553456585E+03  0.12509000000E+03 0.  0.
<mgrwt>
<rscale>  2 0.43964082E+03</rscale>
<asrwt>0</asrwt>
<pdfrwt beam="1">  1       21 0.79306232E-01 0.43964082E+03</pdfrwt>
<pdfrwt beam="2">  1       21 0.13176828E-01 0.43964082E+03</pdfrwt>
<totfact> 0.64393590E+04</totfact>
</mgrwt>
</event>
<event>
 7    0  0.4775379E-002  0.4552249E+03  0.7546771E-02  0.1026175E+00
         21   -1    0    0  502  501  0.00000000000E+00  0.00000000000E+00  0.17713382430E+03  0.17713382430E+03  0.00000000000E+00 0.  1.
         21   -1    0    0  501  502 -0.00000000000E+00 -0.00000000000E+00 -0.29247620976E+03  0.29247620976E+03  0.00000000000E+00 0.  1.
      99926    2    1    2    0    0  0.00000000000E+00  0.00000000000E+00 -0.11534238546E+03  0.46961003406E+03  0.45522490947E+03 0.  0.
      99925    2    3    3    0    0  0.17854866107E+02 -0.10512941039E+03 -0.11304700875E+03  0.30522096499E+03  0.26269606413E+03 0.  0.
         25    1    4    4    0    0  0.29579223866E+02 -0.88868350618E+02 -0.71934230174E+02  0.17203068272E+03  0.12509000000E+03 0.  0.
         25    1    4    4    0    0 -0.11724357759E+02 -0.16261059772E+02 -0.41112778581E+02  0.13319028227E+03  0.12509000000E+03 0.  0.
         25    1    3    3    0    0 -0.17854866107E+02  0.10512941039E+03 -0.22953767072E+01  0.16438906906E+03  0.12509000000E+03 0.  0.
<mgrwt>
<rscale>  2 0.45522491E+03</rscale>
<asrwt>0</asrwt>
<pdfrwt beam="1">  1       21 0.26049092E-01 0.45522491E+03</pdfrwt>
<pdfrwt beam="2">  1       21 0.43011207E-01 0.45522491E+03</pdfrwt>
<totfact> 0.67344513E+04</totfact>
</mgrwt>
</event>
<event>
 7    0  0.4775379E-002  0.4415435E+03  0.7546771E-02  0.1030274E+00
         21   -1    0    0  502  501  0.00000000000E+00  0.00000000000E+00  0.17313950741E+03  0.17313950741E+03  0.00000000000E+00 0. -1.
         21   -1    0    0  501  502 -0.00000000000E+00 -0.00000000000E+00 -0.28150800978E+03  0.28150800978E+03  0.00000000000E+00 0. -1.
      99926    2    1    2    0    0  0.00000000000E+00  0.00000000000E+00 -0.10836850237E+03  0.45464751718E+03  0.44154346623E+03 0.  0.
      99925    2    3    3    0    0  0.66769919930E+02  0.62143454924E+02 -0.26762733449E+02  0.27964168637E+03  0.26298896870E+03 0.  0.
         25    1    3    3    0    0 -0.66769919930E+02 -0.62143454924E+02 -0.81605768921E+02  0.17500583081E+03  0.12509000000E+03 0.  0.
         25    1    4    4    0    0  0.65965638622E+01  0.59863541731E+01  0.88722726866E+01  0.12572023073E+03  0.12509000000E+03 0.  0.
         25    1    4    4    0    0  0.60173356068E+02  0.56157100751E+02 -0.35635006136E+02  0.15392145564E+03  0.12509000000E+03 0.  0.
<mgrwt>
<rscale>  2 0.44154347E+03</rscale>
<asrwt>0</asrwt>
<pdfrwt beam="1">  1       21 0.25461693E-01 0.44154347E+03</pdfrwt>
<pdfrwt beam="2">  1       21 0.41398236E-01 0.44154347E+03</pdfrwt>
<totfact> 0.76433087E+04</totfact>
</mgrwt>
</event>
<event>
 7    0  0.4775379E-002  0.4569778E+03  0.7546771E-02  0.1025661E+00
         21   -1    0    0  502  501  0.00000000000E+00  0.00000000000E+00  0.23844292317E+03  0.23844292317E+03  0.00000000000E+00 0.  1.
         21   -1    0    0  501  502 -0.00000000000E+00 -0.00000000000E+00 -0.21895037549E+03  0.21895037549E+03  0.00000000000E+00 0.  1.
      99926    2    1    2    0    0  0.00000000000E+00 -0.14210854715E-13  0.19492547678E+02  0.45739329866E+03  0.45697775684E+03 0.  0.
      99925    2    3    3    0    0 -0.38667410894E+02 -0.90123694373E+02 -0.48561161791E+02  0.28448793603E+03  0.26259807760E+03 0.  0.
         25    1    4    4    0    0 -0.54470041169E+02 -0.27574104811E+02 -0.16817291180E+02  0.14020572750E+03  0.12509000000E+03 0.  0.
         25    1    4    4    0    0  0.15802630275E+02 -0.62549589561E+02 -0.31743870610E+02  0.14428220853E+03  0.12509000000E+03 0.  0.
         25    1    3    3    0    0  0.38667410894E+02  0.90123694373E+02  0.68053709469E+02  0.17290536263E+03  0.12509000000E+03 0.  0.
<mgrwt>
<rscale>  2 0.45697776E+03</rscale>
<asrwt>0</asrwt>
<pdfrwt beam="1">  1       21 0.35065136E-01 0.45697776E+03</pdfrwt>
<pdfrwt beam="2">  1       21 0.32198585E-01 0.45697776E+03</pdfrwt>
<totfact> 0.67302497E+04</totfact>
</mgrwt>
</event>
<event>
 7    0  0.4775379E-002  0.4455288E+03  0.7546771E-02  0.1029064E+00
         21   -1    0    0  502  501  0.00000000000E+00  0.00000000000E+00  0.76031408797E+02  0.76031408797E+02  0.00000000000E+00 0. -1.
         21   -1    0    0  501  502 -0.00000000000E+00 -0.00000000000E+00 -0.65267720251E+03  0.65267720251E+03  0.00000000000E+00 0. -1.
      99926    2    1    2    0    0  0.00000000000E+00  0.71054273576E-14 -0.57664579371E+03  0.72870861131E+03  0.44552875192E+03 0.  0.
      99925    2    3    3    0    0 -0.85132600557E+02  0.42440979012E+02 -0.29731068509E+03  0.40820212559E+03  0.26303333532E+03 0.  0.
         25    1    3    3    0    0  0.85132600557E+02 -0.42440979012E+02 -0.27933510862E+03  0.32050648571E+03  0.12509000000E+03 0.  0.
         25    1    4    4    0    0 -0.70984341156E+02 -0.35564833231E+01 -0.13070634415E+03  0.19437870707E+03  0.12509000000E+03 0.  0.
         25    1    4    4    0    0 -0.14148259401E+02  0.45997462335E+02 -0.16660434094E+03  0.21382341852E+03  0.12509000000E+03 0.  0.
<mgrwt>
<rscale>  2 0.44552875E+03</rscale>
<asrwt>0</asrwt>
<pdfrwt beam="1">  1       21 0.11181089E-01 0.44552875E+03</pdfrwt>
<pdfrwt beam="2">  1       21 0.95981947E-01 0.44552875E+03</pdfrwt>
<totfact> 0.55382898E+04</totfact>
</mgrwt>
</event>
<event>
 7    0  0.4775379E-002  0.4449162E+03  0.7546771E-02  0.1029249E+00
         21   -1    0    0  502  501  0.00000000000E+00  0.00000000000E+00  0.42658644532E+03  0.42658644532E+03  0.00000000000E+00 0.  1.
         21   -1    0    0  501  502 -0.00000000000E+00 -0.00000000000E+00 -0.11600838559E+03  0.11600838559E+03  0.00000000000E+00 0.  1.
      99926    2    1    2    0    0  0.00000000000E+00  0.00000000000E+00  0.31057805972E+03  0.54259483091E+03  0.44491619362E+03 0.  0.
      99925    2    3    3    0    0 -0.19580456475E+02  0.74644355505E+02  0.28125832488E+03  0.39272045339E+03  0.26299797550E+03 0.  0.
         25    1    4    4    0    0 -0.48192298359E+02  0.47158130834E+02  0.16069318486E+03  0.21451385663E+03  0.12509000000E+03 0.  0.
         25    1    3    3    0    0  0.19580456475E+02 -0.74644355505E+02  0.29319734842E+02  0.14987437752E+03  0.12509000000E+03 0.  0.
         25    1    4    4    0    0  0.28611841885E+02  0.27486224671E+02  0.12056514002E+03  0.17820659677E+03  0.12509000000E+03 0.  0.
<mgrwt>
<rscale>  2 0.44491619E+03</rscale>
<asrwt>0</asrwt>
<pdfrwt beam="1">  1       21 0.62733300E-01 0.44491619E+03</pdfrwt>
<pdfrwt beam="2">  1       21 0.17060057E-01 0.44491619E+03</pdfrwt>
<totfact> 0.67592833E+04</totfact>
</mgrwt>
</event>
<event>
 7    0  0.4775379E-002  0.4536379E+03  0.7546771E-02  0.1026643E+00
         21   -1    0    0  502  501  0.00000000000E+00  0.00000000000E+00  0.35040196824E+02  0.35040196824E+02  0.00000000000E+00 0. -1.
         21   -1    0    0  501  502 -0.00000000000E+00 -0.00000000000E+00 -0.14682230900E+04  0.14682230900E+04  0.00000000000E+00 0. -1.
      99926    2    1    2    0    0  0.00000000000E+00  0.14210854715E-13 -0.14331828932E+04  0.15032632868E+04  0.45363785581E+03 0.  0.
      99925    2    3    3    0    0  0.21799955155E+02  0.91350975455E+02 -0.70015425683E+03  0.75373094691E+03  0.26281955449E+03 0.  0.
         25    1    4    4    0    0  0.40424725264E+02  0.17974233931E+02 -0.31891363652E+03  0.34541373331E+03  0.12509000000E+03 0.  0.
         25    1    3    3    0    0 -0.21799955155E+02 -0.91350975455E+02 -0.73302863637E+03  0.74953233993E+03  0.12509000000E+03 0.  0.
         25    1    4    4    0    0 -0.18624770109E+02  0.73376741524E+02 -0.38124062030E+03  0.40831721361E+03  0.12509000000E+03 0.  0.
<mgrwt>
<rscale>  2 0.45363786E+03</rscale>
<asrwt>0</asrwt>
<pdfrwt beam="1">  1       21 0.51529710E-02 0.45363786E+03</pdfrwt>
<pdfrwt beam="2">  1       21 0.21591512E+00 0.45363786E+03</pdfrwt>
<totfact> 0.23951671E+04</totfact>
</mgrwt>
</event>
<event>
 7    0  0.4775379E-002  0.4553014E+03  0.7546771E-02  0.1026153E+00
         21   -1    0    0  502  501  0.00000000000E+00  0.00000000000E+00  0.24448333451E+02  0.24448333451E+02  0.00000000000E+00 0. -1.
         21   -1    0    0  501  502 -0.00000000000E+00 -0.00000000000E+00 -0.21197696126E+04  0.21197696126E+04  0.00000000000E+00 0. -1.
      99926    2    1    2    0    0 -0.22204460493E-15  0.00000000000E+00 -0.20953212791E+04  0.21442179460E+04  0.45530136976E+03 0.  0.
      99925    2    3    3    0    0 -0.85327289641E+00  0.65863415955E+02 -0.17533940434E+04  0.17742173240E+04  0.26290249881E+03 0.  0.
         25    1    4    4    0    0  0.18201877578E+02  0.33044778145E+02 -0.64184309523E+03  0.65500636082E+03  0.12509000000E+03 0.  0.
         25    1    4    4    0    0 -0.19055150475E+02  0.32818637810E+02 -0.11115509481E+04  0.11192109632E+04  0.12509000000E+03 0.  0.
         25    1    3    3    0    0  0.85327289641E+00 -0.65863415955E+02 -0.34192723575E+03  0.37000062200E+03  0.12509000000E+03 0.  0.
<mgrwt>
<rscale>  2 0.45530137E+03</rscale>
<asrwt>0</asrwt>
<pdfrwt beam="1">  1       21 0.35953423E-02 0.45530137E+03</pdfrwt>
<pdfrwt beam="2">  1       21 0.31173090E+00 0.45530137E+03</pdfrwt>
<totfact> 0.11467999E+04</totfact>
</mgrwt>
</event>
<event>
 7    0  0.4775379E-002  0.4553335E+03  0.7546771E-02  0.1026143E+00
         21   -1    0    0  502  501  0.00000000000E+00  0.00000000000E+00  0.10711597676E+03  0.10711597676E+03  0.00000000000E+00 0. -1.
         21   -1    0    0  501  502 -0.00000000000E+00 -0.00000000000E+00 -0.48388817202E+03  0.48388817202E+03  0.00000000000E+00 0. -1.
      99926    2    1    2    0    0  0.14210854715E-13  0.00000000000E+00 -0.37677219527E+03  0.59100414878E+03  0.45533352254E+03 0.  0.
      99925    2    3    3    0    0 -0.72359303637E+02 -0.62268105652E+02 -0.15686702808E+03  0.32059894088E+03  0.26279884054E+03 0.  0.
         25    1    4    4    0    0 -0.15536659558E+02 -0.58482109824E+02 -0.10303636098E+03  0.17299001342E+03  0.12509000000E+03 0.  0.
         25    1    3    3    0    0  0.72359303637E+02  0.62268105652E+02 -0.21990516719E+03  0.27040520790E+03  0.12509000000E+03 0.  0.
         25    1    4    4    0    0 -0.56822644079E+02 -0.37859958282E+01 -0.53830667097E+02  0.14760892746E+03  0.12509000000E+03 0.  0.
<mgrwt>
<rscale>  2 0.45533352E+03</rscale>
<asrwt>0</asrwt>
<pdfrwt beam="1">  1       21 0.15752349E-01 0.45533352E+03</pdfrwt>
<pdfrwt beam="2">  1       21 0.71160026E-01 0.45533352E+03</pdfrwt>
<totfact> 0.59079544E+04</totfact>
</mgrwt>
</event>
<event>
 7    0  0.4775379E-002  0.4597729E+03  0.7546771E-02  0.1024847E+00
         21   -1    0    0  502  501  0.00000000000E+00  0.00000000000E+00  0.12669121809E+03  0.12669121809E+03  0.00000000000E+00 0. -1.
         21   -1    0    0  501  502 -0.00000000000E+00 -0.00000000000E+00 -0.41713846875E+03  0.41713846875E+03  0.00000000000E+00 0. -1.
      99926    2    1    2    0    0  0.00000000000E+00  0.00000000000E+00 -0.29044725066E+03  0.54382968684E+03  0.45977290358E+03 0.  0.
      99925    2    3    3    0    0 -0.91856724693E+02 -0.34179465533E+02 -0.10523347573E+03  0.29978554276E+03  0.26304256974E+03 0.  0.
         25    1    3    3    0    0  0.91856724693E+02  0.34179465533E+02 -0.18521377494E+03  0.24404414408E+03  0.12509000000E+03 0.  0.
         25    1    4    4    0    0 -0.63192815672E+01 -0.10798861259E+02 -0.63678440723E+02  0.14092196648E+03  0.12509000000E+03 0.  0.
         25    1    4    4    0    0 -0.85537443126E+02 -0.23380604274E+02 -0.41555035003E+02  0.15886357627E+03  0.12509000000E+03 0.  0.
<mgrwt>
<rscale>  2 0.45977290E+03</rscale>
<asrwt>0</asrwt>
<pdfrwt beam="1">  1       21 0.18631061E-01 0.45977290E+03</pdfrwt>
<pdfrwt beam="2">  1       21 0.61343893E-01 0.45977290E+03</pdfrwt>
<totfact> 0.59978460E+04</totfact>
</mgrwt>
</event>
<event>
 7    0  0.4775379E-002  0.4558642E+03  0.7546771E-02  0.1025988E+00
         21   -1    0    0  502  501  0.00000000000E+00  0.00000000000E+00  0.28725675833E+03  0.28725675833E+03  0.00000000000E+00 0. -1.
         21   -1    0    0  501  502 -0.00000000000E+00 -0.00000000000E+00 -0.18085927482E+03  0.18085927482E+03  0.00000000000E+00 0. -1.
      99926    2    1    2    0    0  0.88817841970E-15  0.00000000000E+00  0.10639748351E+03  0.46811603314E+03  0.45586422977E+03 0.  0.
      99925    2    3    3    0    0  0.50945566850E+01  0.23320075931E+02 -0.47901741321E+02  0.26805219500E+03  0.26265494850E+03 0.  0.
         25    1    4    4    0    0  0.19900523240E+02  0.18572136345E+02  0.11830844829E+02  0.12856294981E+03  0.12509000000E+03 0.  0.
         25    1    4    4    0    0 -0.14805966555E+02  0.47479395862E+01 -0.59732586150E+02  0.13948924519E+03  0.12509000000E+03 0.  0.
         25    1    3    3    0    0 -0.50945566850E+01 -0.23320075931E+02  0.15429922483E+03  0.20006383814E+03  0.12509000000E+03 0.  0.
<mgrwt>
<rscale>  2 0.45586423E+03</rscale>
<asrwt>0</asrwt>
<pdfrwt beam="1">  1       21 0.42243641E-01 0.45586423E+03</pdfrwt>
<pdfrwt beam="2">  1       21 0.26596952E-01 0.45586423E+03</pdfrwt>
<totfact> 0.67115015E+04</totfact>
</mgrwt>
</event>
<event>
 7    0  0.4775379E-002  0.4686486E+03  0.7546771E-02  0.1022302E+00
         21   -1    0    0  502  501  0.00000000000E+00  0.00000000000E+00  0.11624548131E+04  0.11624548131E+04  0.00000000000E+00 0. -1.
         21   -1    0    0  501  502 -0.00000000000E+00 -0.00000000000E+00 -0.47234423071E+02  0.47234423071E+02  0.00000000000E+00 0. -1.
      99926    2    1    2    0    0 -0.14210854715E-13 -0.35527136788E-14  0.11152203900E+04  0.12096892362E+04  0.46864862079E+03 0.  0.
      99925    2    3    3    0    0  0.11527842949E+03 -0.27131624592E+02  0.59412460497E+03  0.66085996703E+03  0.26405796415E+03 0.  0.
         25    1    4    4    0    0  0.49904575355E+02 -0.53578458310E+02  0.27303462290E+03  0.30912219467E+03  0.12509000000E+03 0.  0.
         25    1    3    3    0    0 -0.11527842949E+03  0.27131624592E+02  0.52109578507E+03  0.54882926915E+03  0.12509000000E+03 0.  0.
         25    1    4    4    0    0  0.65373854138E+02  0.26446833718E+02  0.32108998208E+03  0.35173777236E+03  0.12509000000E+03 0.  0.
<mgrwt>
<rscale>  2 0.46864862E+03</rscale>
<asrwt>0</asrwt>
<pdfrwt beam="1">  1       21 0.17094922E+00 0.46864862E+03</pdfrwt>
<pdfrwt beam="2">  1       21 0.69462394E-02 0.46864862E+03</pdfrwt>
<totfact> 0.28678015E+04</totfact>
</mgrwt>
</event>
<event>
 7    0  0.4775379E-002  0.4597198E+03  0.7546771E-02  0.1024863E+00
         21   -1    0    0  502  501  0.00000000000E+00  0.00000000000E+00  0.30085045711E+03  0.30085045711E+03  0.00000000000E+00 0. -1.
         21   -1    0    0  501  502 -0.00000000000E+00 -0.00000000000E+00 -0.17562073050E+03  0.17562073050E+03  0.00000000000E+00 0. -1.
      99926    2    1    2    0    0  0.35527136788E-14  0.14210854715E-13  0.12522972662E+03  0.47647118761E+03  0.45971981488E+03 0.  0.
      99925    2    3    3    0    0  0.15558165440E+02  0.11585411979E+03  0.66541348082E+02  0.29548481392E+03  0.26309559227E+03 0.  0.
         25    1    3    3    0    0 -0.15558165440E+02 -0.11585411979E+03  0.58688378535E+02  0.18098637369E+03  0.12509000000E+03 0.  0.
         25    1    4    4    0    0  0.36292681508E+02  0.81257071107E+02  0.56817182138E+02  0.16369352651E+03  0.12509000000E+03 0.  0.
         25    1    4    4    0    0 -0.20734516067E+02  0.34597048688E+02  0.97241659447E+01  0.13179128741E+03  0.12509000000E+03 0.  0.
<mgrwt>
<rscale>  2 0.45971981E+03</rscale>
<asrwt>0</asrwt>
<pdfrwt beam="1">  1       21 0.44242714E-01 0.45971981E+03</pdfrwt>
<pdfrwt beam="2">  1       21 0.25826578E-01 0.45971981E+03</pdfrwt>
<totfact> 0.64507841E+04</totfact>
</mgrwt>
</event>
<event>
 7    0  0.4775379E-002  0.4539466E+03  0.7546771E-02  0.1026552E+00
         21   -1    0    0  502  501  0.00000000000E+00  0.00000000000E+00  0.34688528917E+02  0.34688528917E+02  0.00000000000E+00 0.  1.
         21   -1    0    0  501  502 -0.00000000000E+00 -0.00000000000E+00 -0.14851274547E+04  0.14851274547E+04  0.00000000000E+00 0.  1.
      99926    2    1    2    0    0  0.71054273576E-14  0.00000000000E+00 -0.14504389258E+04  0.15198159836E+04  0.45394663413E+03 0.  0.
      99925    2    3    3    0    0  0.49889081794E+02 -0.78975283724E+02 -0.11215261806E+04  0.11557320401E+04  0.26300106217E+03 0.  0.
         25    1    4    4    0    0 -0.54965346064E+01 -0.11361172279E+02 -0.54968799288E+03  0.56388268793E+03  0.12509000000E+03 0.  0.
         25    1    4    4    0    0  0.55385616401E+02 -0.67614111445E+02 -0.57183818774E+03  0.59184935214E+03  0.12509000000E+03 0.  0.
         25    1    3    3    0    0 -0.49889081794E+02  0.78975283724E+02 -0.32891274519E+03  0.36408394358E+03  0.12509000000E+03 0.  0.
<mgrwt>
<rscale>  2 0.45394663E+03</rscale>
<asrwt>0</asrwt>
<pdfrwt beam="1">  1       21 0.51012550E-02 0.45394663E+03</pdfrwt>
<pdfrwt beam="2">  1       21 0.21840106E+00 0.45394663E+03</pdfrwt>
<totfact> 0.23489204E+04</totfact>
</mgrwt>
</event>
<event>
 7    0  0.4775379E-002  0.4503624E+03  0.7546771E-02  0.1027614E+00
         21   -1    0    0  502  501  0.00000000000E+00  0.00000000000E+00  0.20521636895E+03  0.20521636895E+03  0.00000000000E+00 0. -1.
         21   -1    0    0  501  502 -0.00000000000E+00 -0.00000000000E+00 -0.24708832547E+03  0.24708832547E+03  0.00000000000E+00 0. -1.
      99926    2    1    2    0    0  0.00000000000E+00 -0.71054273576E-14 -0.41871956513E+02  0.45230469442E+03  0.45036238281E+03 0.  0.
      99925    2    3    3    0    0  0.90173550319E+02 -0.59952589748E+02 -0.16117665733E+02  0.28486403691E+03  0.26298699241E+03 0.  0.
         25    1    4    4    0    0  0.21072729823E+02  0.60461177281E+01 -0.72630445047E+01  0.12720406989E+03  0.12509000000E+03 0.  0.
         25    1    4    4    0    0  0.69100820496E+02 -0.65998707476E+02 -0.88546212280E+01  0.15765996701E+03  0.12509000000E+03 0.  0.
         25    1    3    3    0    0 -0.90173550319E+02  0.59952589748E+02 -0.25754290780E+02  0.16744065751E+03  0.12509000000E+03 0.  0.
<mgrwt>
<rscale>  2 0.45036238E+03</rscale>
<asrwt>0</asrwt>
<pdfrwt beam="1">  1       21 0.30178878E-01 0.45036238E+03</pdfrwt>
<pdfrwt beam="2">  1       21 0.36336519E-01 0.45036238E+03</pdfrwt>
<totfact> 0.71347367E+04</totfact>
</mgrwt>
</event>
<event>
 7    0  0.4775379E-002  0.4579271E+03  0.7546771E-02  0.1025384E+00
         21   -1    0    0  502  501  0.00000000000E+00  0.00000000000E+00  0.11797224381E+03  0.11797224381E+03  0.00000000000E+00 0. -1.
         21   -1    0    0  501  502 -0.00000000000E+00 -0.00000000000E+00 -0.44437830205E+03  0.44437830205E+03  0.00000000000E+00 0. -1.
      99926    2    1    2    0    0  0.14210854715E-13  0.00000000000E+00 -0.32640605824E+03  0.56235054587E+03  0.45792709199E+03 0.  0.
      99925    2    3    3    0    0 -0.98442050983E+02  0.61058652843E+02 -0.20045655361E+03  0.35038408082E+03  0.26299653556E+03 0.  0.
         25    1    4    4    0    0 -0.32604145126E+02  0.32849618581E+02 -0.51148008515E+02  0.14284871226E+03  0.12509000000E+03 0.  0.
         25    1    3    3    0    0  0.98442050983E+02 -0.61058652843E+02 -0.12594950463E+03  0.21196646505E+03  0.12509000000E+03 0.  0.
         25    1    4    4    0    0 -0.65837905857E+02  0.28209034262E+02 -0.14930854510E+03  0.20753536856E+03  0.12509000000E+03 0.  0.
<mgrwt>
<rscale>  2 0.45792709E+03</rscale>
<asrwt>0</asrwt>
<pdfrwt beam="1">  1       21 0.17348859E-01 0.45792709E+03</pdfrwt>
<pdfrwt beam="2">  1       21 0.65349750E-01 0.45792709E+03</pdfrwt>
<totfact> 0.59664305E+04</totfact>
</mgrwt>
</event>
<event>
 7    0  0.4775379E-002  0.4583049E+03  0.7546771E-02  0.1025274E+00
         21   -1    0    0  502  501  0.00000000000E+00  0.00000000000E+00  0.86170784342E+02  0.86170784342E+02  0.00000000000E+00 0. -1.
         21   -1    0    0  501  502 -0.00000000000E+00 -0.00000000000E+00 -0.60938098421E+03  0.60938098421E+03  0.00000000000E+00 0. -1.
      99926    2    1    2    0    0  0.00000000000E+00 -0.14210854715E-13 -0.52321019987E+03  0.69555176855E+03  0.45830486523E+03 0.  0.
      99925    2    3    3    0    0  0.24816019756E+02  0.11328292303E+03 -0.31704765501E+03  0.42797120407E+03  0.26304235492E+03 0.  0.
         25    1    4    4    0    0  0.20456558570E+02  0.38156839359E+02 -0.97842653815E+02  0.16460591783E+03  0.12509000000E+03 0.  0.
         25    1    4    4    0    0  0.43594611863E+01  0.75126083666E+02 -0.21920500120E+03  0.26336528624E+03  0.12509000000E+03 0.  0.
         25    1    3    3    0    0 -0.24816019756E+02 -0.11328292303E+03 -0.20616254486E+03  0.26758056448E+03  0.12509000000E+03 0.  0.
<mgrwt>
<rscale>  2 0.45830487E+03</rscale>
<asrwt>0</asrwt>
<pdfrwt beam="1">  1       21 0.12672175E-01 0.45830487E+03</pdfrwt>
<pdfrwt beam="2">  1       21 0.89614846E-01 0.45830487E+03</pdfrwt>
<totfact> 0.51784923E+04</totfact>
</mgrwt>
</event>
<event>
 7    0  0.4775379E-002  0.4657835E+03  0.7546771E-02  0.1023117E+00
         21   -1    0    0  502  501  0.00000000000E+00  0.00000000000E+00  0.74298351435E+02  0.74298351435E+02  0.00000000000E+00 0.  1.
         21   -1    0    0  501  502 -0.00000000000E+00 -0.00000000000E+00 -0.73001039039E+03  0.73001039039E+03  0.00000000000E+00 0.  1.
      99926    2    1    2    0    0  0.00000000000E+00 -0.88817841970E-15 -0.65571203896E+03  0.80430874183E+03  0.46578350566E+03 0.  0.
      99925    2    3    3    0    0 -0.90388529228E+02  0.37559690828E+01 -0.26509637842E+03  0.38429410413E+03  0.26310012372E+03 0.  0.
         25    1    4    4    0    0 -0.49437041826E+01  0.11488973600E+02 -0.10552524774E+03  0.16413263763E+03  0.12509000000E+03 0.  0.
         25    1    4    4    0    0 -0.85444825045E+02 -0.77330045172E+01 -0.15957113067E+03  0.22016146650E+03  0.12509000000E+03 0.  0.
         25    1    3    3    0    0  0.90388529228E+02 -0.37559690828E+01 -0.39061566054E+03  0.42001463770E+03  0.12509000000E+03 0.  0.
<mgrwt>
<rscale>  2 0.46578351E+03</rscale>
<asrwt>0</asrwt>
<pdfrwt beam="1">  1       21 0.10926228E-01 0.46578351E+03</pdfrwt>
<pdfrwt beam="2">  1       21 0.10735447E+00 0.46578351E+03</pdfrwt>
<totfact> 0.43736801E+04</totfact>
</mgrwt>
</event>
<event>
 7    0  0.4775379E-002  0.4546214E+03  0.7546771E-02  0.1026353E+00
         21   -1    0    0  502  501  0.00000000000E+00  0.00000000000E+00  0.71093401149E+03  0.71093401149E+03  0.00000000000E+00 0.  1.
         21   -1    0    0  501  502 -0.00000000000E+00 -0.00000000000E+00 -0.72679243973E+02  0.72679243973E+02  0.00000000000E+00 0.  1.
      99926    2    1    2    0    0  0.00000000000E+00  0.00000000000E+00  0.63825476751E+03  0.78361325546E+03  0.45462136540E+03 0.  0.
      99925    2    3    3    0    0  0.67095029939E+02 -0.49931094806E+02  0.27138147429E+03  0.38708030771E+03  0.26303688479E+03 0.  0.
         25    1    3    3    0    0 -0.67095029939E+02  0.49931094806E+02  0.36687329322E+03  0.39653294775E+03  0.12509000000E+03 0.  0.
         25    1    4    4    0    0  0.58772232086E+02 -0.32159363023E+02  0.18771800226E+03  0.23531671502E+03  0.12509000000E+03 0.  0.
         25    1    4    4    0    0  0.83227978529E+01 -0.17771731783E+02  0.83663472033E+02  0.15176359269E+03  0.12509000000E+03 0.  0.
<mgrwt>
<rscale>  2 0.45462137E+03</rscale>
<asrwt>0</asrwt>
<pdfrwt beam="1">  1       21 0.10454912E+00 0.45462137E+03</pdfrwt>
<pdfrwt beam="2">  1       21 0.10688125E-01 0.45462137E+03</pdfrwt>
<totfact> 0.48712274E+04</totfact>
</mgrwt>
</event>
<event>
 7    0  0.4775379E-002  0.4537368E+03  0.7546771E-02  0.1026614E+00
         21   -1    0    0  502  501  0.00000000000E+00  0.00000000000E+00  0.16804629213E+04  0.16804629213E+04  0.00000000000E+00 0.  1.
         21   -1    0    0  501  502 -0.00000000000E+00 -0.00000000000E+00 -0.30628036160E+02  0.30628036160E+02  0.00000000000E+00 0.  1.
      99926    2    1    2    0    0  0.35527136788E-14  0.00000000000E+00  0.16498348851E+04  0.17110909574E+04  0.45373683615E+03 0.  0.
      99925    2    3    3    0    0  0.22695214691E+02 -0.44560634090E+01  0.14528627877E+04  0.14766118655E+04  0.26274967621E+03 0.  0.
         25    1    4    4    0    0  0.50514906938E+02 -0.10981897917E+01  0.69245847680E+03  0.70547800252E+03  0.12509000000E+03 0.  0.
         25    1    3    3    0    0 -0.22695214691E+02  0.44560634090E+01  0.19697209746E+03  0.23447909192E+03  0.12509000000E+03 0.  0.
         25    1    4    4    0    0 -0.27819692247E+02 -0.33578736173E+01  0.76040431087E+03  0.77113386301E+03  0.12509000000E+03 0.  0.
<mgrwt>
<rscale>  2 0.45373684E+03</rscale>
<asrwt>0</asrwt>
<pdfrwt beam="1">  1       21 0.24712684E+00 0.45373684E+03</pdfrwt>
<pdfrwt beam="2">  1       21 0.45041241E-02 0.45373684E+03</pdfrwt>
<totfact> 0.19219799E+04</totfact>
</mgrwt>
</event>
<event>
 7    0  0.4775379E-002  0.4525722E+03  0.7546771E-02  0.1026958E+00
         21   -1    0    0  502  501  0.00000000000E+00  0.00000000000E+00  0.62262437174E+03  0.62262437174E+03  0.00000000000E+00 0. -1.
         21   -1    0    0  501  502 -0.00000000000E+00 -0.00000000000E+00 -0.82241238655E+02  0.82241238655E+02  0.00000000000E+00 0. -1.
      99926    2    1    2    0    0 -0.71054273576E-14  0.14210854715E-13  0.54038313309E+03  0.70486561040E+03  0.45257220219E+03 0.  0.
      99925    2    3    3    0    0 -0.35324233712E+02  0.10156192134E+03  0.29859858603E+03  0.41217140026E+03  0.26298578338E+03 0.  0.
         25    1    3    3    0    0  0.35324233712E+02 -0.10156192134E+03  0.24178454706E+03  0.29269421014E+03  0.12509000000E+03 0.  0.
         25    1    4    4    0    0  0.93059629095E+01  0.24839399903E+02  0.10694183209E+03  0.16669631155E+03  0.12509000000E+03 0.  0.
         25    1    4    4    0    0 -0.44630196621E+02  0.76722521436E+02  0.19165675394E+03  0.24547508871E+03  0.12509000000E+03 0.  0.
<mgrwt>
<rscale>  2 0.45257220E+03</rscale>
<asrwt>0</asrwt>
<pdfrwt beam="1">  1       21 0.91562405E-01 0.45257220E+03</pdfrwt>
<pdfrwt beam="2">  1       21 0.12094300E-01 0.45257220E+03</pdfrwt>
<totfact> 0.53657306E+04</totfact>
</mgrwt>
</event>
<event>
 7    0  0.4775379E-002  0.4584999E+03  0.7546771E-02  0.1025217E+00
         21   -1    0    0  502  501  0.00000000000E+00  0.00000000000E+00  0.66984250672E+03  0.66984250672E+03  0.00000000000E+00 0. -1.
         21   -1    0    0  501  502 -0.00000000000E+00 -0.00000000000E+00 -0.78459540651E+02  0.78459540651E+02  0.00000000000E+00 0. -1.
      99926    2    1    2    0    0  0.00000000000E+00  0.00000000000E+00  0.59138296607E+03  0.74830204737E+03  0.45849988172E+03 0.  0.
      99925    2    3    3    0    0 -0.67386308058E+02 -0.73152247046E+02  0.27178318113E+03  0.39097349212E+03  0.26287260838E+03 0.  0.
         25    1    3    3    0    0  0.67386308058E+02  0.73152247046E+02  0.31959978494E+03  0.35732855525E+03  0.12509000000E+03 0.  0.
         25    1    4    4    0    0 -0.58681433306E+02 -0.28300993391E+02  0.96730461476E+02  0.17102265089E+03  0.12509000000E+03 0.  0.
         25    1    4    4    0    0 -0.87048747514E+01 -0.44851253656E+02  0.17505271965E+03  0.21995084123E+03  0.12509000000E+03 0.  0.
<mgrwt>
<rscale>  2 0.45849988E+03</rscale>
<asrwt>0</asrwt>
<pdfrwt beam="1">  1       21 0.98506248E-01 0.45849988E+03</pdfrwt>
<pdfrwt beam="2">  1       21 0.11538168E-01 0.45849988E+03</pdfrwt>
<totfact> 0.48995900E+04</totfact>
</mgrwt>
</event>
<event>
 7    0  0.4775379E-002  0.4601698E+03  0.7546771E-02  0.1024732E+00
         21   -1    0    0  502  501  0.00000000000E+00  0.00000000000E+00  0.34055202534E+03  0.34055202534E+03  0.00000000000E+00 0. -1.
         21   -1    0    0  501  502 -0.00000000000E+00 -0.00000000000E+00 -0.15545070781E+03  0.15545070781E+03  0.00000000000E+00 0. -1.
      99926    2    1    2    0    0  0.35527136788E-14  0.14210854715E-13  0.18510131753E+03  0.49600273316E+03  0.46016976601E+03 0.  0.
      99925    2    3    3    0    0  0.56607020596E+01 -0.89496272867E+02  0.19841983255E+03  0.34151481341E+03  0.26309753216E+03 0.  0.
         25    1    4    4    0    0 -0.35430682705E+02 -0.30711297534E+02  0.89320420865E+02  0.16069898182E+03  0.12509000000E+03 0.  0.
         25    1    4    4    0    0  0.41091384764E+02 -0.58784975334E+02  0.10909941168E+03  0.18081583160E+03  0.12509000000E+03 0.  0.
         25    1    3    3    0    0 -0.56607020596E+01  0.89496272867E+02 -0.13318515018E+02  0.15448791975E+03  0.12509000000E+03 0.  0.
<mgrwt>
<rscale>  2 0.46016977E+03</rscale>
<asrwt>0</asrwt>
<pdfrwt beam="1">  1       21 0.50081180E-01 0.46016977E+03</pdfrwt>
<pdfrwt beam="2">  1       21 0.22860398E-01 0.46016977E+03</pdfrwt>
<totfact> 0.62929784E+04</totfact>
</mgrwt>
</event>
<event>
 7    0  0.4775379E-002  0.4562447E+03  0.7546771E-02  0.1025876E+00
         21   -1    0    0  502  501  0.00000000000E+00  0.00000000000E+00  0.10830498561E+03  0.10830498561E+03  0.00000000000E+00 0. -1.
         21   -1    0    0  501  502 -0.00000000000E+00 -0.00000000000E+00 -0.48049322009E+03  0.48049322009E+03  0.00000000000E+00 0. -1.
      99926    2    1    2    0    0  0.00000000000E+00  0.35527136788E-14 -0.37218823448E+03  0.58879820570E+03  0.45624472068E+03 0.  0.
      99925    2    3    3    0    0  0.26244621962E+02  0.17399433957E+02 -0.37538524380E+03  0.45976623504E+03  0.26358943290E+03 0.  0.
         25    1    4    4    0    0  0.32879129308E+02  0.43478195626E+02 -0.17315761469E+03  0.22045965224E+03  0.12509000000E+03 0.  0.
         25    1    3    3    0    0 -0.26244621962E+02 -0.17399433957E+02  0.31970093218E+01  0.12903197066E+03  0.12509000000E+03 0.  0.
         25    1    4    4    0    0 -0.66345073456E+01 -0.26078761669E+02 -0.20222762910E+03  0.23930658280E+03  0.12509000000E+03 0.  0.
<mgrwt>
<rscale>  2 0.45624472E+03</rscale>
<asrwt>0</asrwt>
<pdfrwt beam="1">  1       21 0.15927204E-01 0.45624472E+03</pdfrwt>
<pdfrwt beam="2">  1       21 0.70660768E-01 0.45624472E+03</pdfrwt>
<totfact> 0.58792574E+04</totfact>
</mgrwt>
</event>
<event>
 7    0  0.4775379E-002  0.4671654E+03  0.7546771E-02  0.1022723E+00
         21   -1    0    0  502  501  0.00000000000E+00  0.00000000000E+00  0.35327514867E+02  0.35327514867E+02  0.00000000000E+00 0.  1.
         21   -1    0    0  501  502 -0.00000000000E+00 -0.00000000000E+00 -0.15444303282E+04  0.15444303282E+04  0.00000000000E+00 0.  1.
      99926    2    1    2    0    0  0.00000000000E+00  0.00000000000E+00 -0.15091028134E+04  0.15797578431E+04  0.46716543272E+03 0.  0.
      99925    2    3    3    0    0 -0.31076161667E+02 -0.11533082490E+03 -0.10556466271E+04  0.10944363539E+04  0.26293384006E+03 0.  0.
         25    1    4    4    0    0 -0.34400472465E+01 -0.87314654145E+02 -0.66815242428E+03  0.68535454542E+03  0.12509000000E+03 0.  0.
         25    1    3    3    0    0  0.31076161667E+02  0.11533082490E+03 -0.45345618623E+03  0.48532148925E+03  0.12509000000E+03 0.  0.
         25    1    4    4    0    0 -0.27636114421E+02 -0.28016170758E+02 -0.38749420286E+03  0.40908180844E+03  0.12509000000E+03 0.  0.
<mgrwt>
<rscale>  2 0.46716543E+03</rscale>
<asrwt>0</asrwt>
<pdfrwt beam="1">  1       21 0.51952213E-02 0.46716543E+03</pdfrwt>
<pdfrwt beam="2">  1       21 0.22712217E+00 0.46716543E+03</pdfrwt>
<totfact> 0.19939011E+04</totfact>
</mgrwt>
</event>
<event>
 7    0  0.4775379E-002  0.4807502E+03  0.7546771E-02  0.1018929E+00
         21   -1    0    0  502  501  0.00000000000E+00  0.00000000000E+00  0.20907406991E+03  0.20907406991E+03  0.00000000000E+00 0.  1.
         21   -1    0    0  501  502 -0.00000000000E+00 -0.00000000000E+00 -0.27636232602E+03  0.27636232602E+03  0.00000000000E+00 0.  1.
      99926    2    1    2    0    0 -0.17763568394E-14  0.00000000000E+00 -0.67288256103E+02  0.48543639593E+03  0.48075023150E+03 0.  0.
      99925    2    3    3    0    0 -0.12362285395E+02  0.34067966995E+02  0.90804885899E+02  0.28060865825E+03  0.26302516858E+03 0.  0.
         25    1    4    4    0    0  0.17348968330E+02  0.27092279238E+02  0.78777251519E+02  0.15128893467E+03  0.12509000000E+03 0.  0.
         25    1    3    3    0    0  0.12362285395E+02 -0.34067966995E+02 -0.15809314200E+03  0.20482773768E+03  0.12509000000E+03 0.  0.
         25    1    4    4    0    0 -0.29711253725E+02  0.69756877570E+01  0.12027634381E+02  0.12931972358E+03  0.12509000000E+03 0.  0.
<mgrwt>
<rscale>  2 0.48075023E+03</rscale>
<asrwt>0</asrwt>
<pdfrwt beam="1">  1       21 0.30746187E-01 0.48075023E+03</pdfrwt>
<pdfrwt beam="2">  1       21 0.40641519E-01 0.48075023E+03</pdfrwt>
<totfact> 0.54319465E+04</totfact>
</mgrwt>
</event>
<event>
 7    0  0.4775379E-002  0.4546059E+03  0.7546771E-02  0.1026357E+00
         21   -1    0    0  502  501  0.00000000000E+00  0.00000000000E+00  0.21666973726E+03  0.21666973726E+03  0.00000000000E+00 0.  1.
         21   -1    0    0  501  502 -0.00000000000E+00 -0.00000000000E+00 -0.23845803974E+03  0.23845803974E+03  0.00000000000E+00 0.  1.
      99926    2    1    2    0    0  0.00000000000E+00  0.00000000000E+00 -0.21788302479E+02  0.45512777700E+03  0.45460594285E+03 0.  0.
      99925    2    3    3    0    0 -0.16533095562E+02  0.10985936627E+03 -0.33064916480E+02  0.28744625229E+03  0.26303922834E+03 0.  0.
         25    1    3    3    0    0  0.16533095562E+02 -0.10985936627E+03  0.11276614002E+02  0.16768152471E+03  0.12509000000E+03 0.  0.
         25    1    4    4    0    0 -0.18640450030E+02  0.95107206827E+02 -0.46651815577E+01  0.15831019925E+03  0.12509000000E+03 0.  0.
         25    1    4    4    0    0  0.21073544685E+01  0.14752159445E+02 -0.28399734923E+02  0.12913605304E+03  0.12509000000E+03 0.  0.
<mgrwt>
<rscale>  2 0.45460594E+03</rscale>
<asrwt>0</asrwt>
<pdfrwt beam="1">  1       21 0.31863197E-01 0.45460594E+03</pdfrwt>
<pdfrwt beam="2">  1       21 0.35067359E-01 0.45460594E+03</pdfrwt>
<totfact> 0.68752371E+04</totfact>
</mgrwt>
</event>
<event>
 7    0  0.4775379E-002  0.4496814E+03  0.7546771E-02  0.1027817E+00
         21   -1    0    0  502  501  0.00000000000E+00  0.00000000000E+00  0.17671082547E+03  0.17671082547E+03  0.00000000000E+00 0. -1.
         21   -1    0    0  501  502 -0.00000000000E+00 -0.00000000000E+00 -0.28607944755E+03  0.28607944755E+03  0.00000000000E+00 0. -1.
      99926    2    1    2    0    0  0.00000000000E+00  0.00000000000E+00 -0.10936862208E+03  0.46279027302E+03  0.44968137754E+03 0.  0.
      99925    2    3    3    0    0  0.91455096294E+02 -0.45633501931E+02 -0.10553416857E+03  0.30120852198E+03  0.26294992269E+03 0.  0.
         25    1    4    4    0    0  0.85837291456E+02 -0.10750392331E+02 -0.59492120981E+02  0.16331084501E+03  0.12509000000E+03 0.  0.
         25    1    3    3    0    0 -0.91455096294E+02  0.45633501931E+02 -0.38344535041E+01  0.16158175104E+03  0.12509000000E+03 0.  0.
         25    1    4    4    0    0  0.56178048383E+01 -0.34883109600E+02 -0.46042047594E+02  0.13789767697E+03  0.12509000000E+03 0.  0.
<mgrwt>
<rscale>  2 0.44968138E+03</rscale>
<asrwt>0</asrwt>
<pdfrwt beam="1">  1       21 0.25986886E-01 0.44968138E+03</pdfrwt>
<pdfrwt beam="2">  1       21 0.42070507E-01 0.44968138E+03</pdfrwt>
<totfact> 0.70921027E+04</totfact>
</mgrwt>
</event>
<event>
 7    0  0.4775379E-002  0.4528295E+03  0.7546771E-02  0.1026882E+00
         21   -1    0    0  502  501  0.00000000000E+00  0.00000000000E+00  0.53170489886E+02  0.53170489886E+02  0.00000000000E+00 0. -1.
         21   -1    0    0  501  502 -0.00000000000E+00 -0.00000000000E+00 -0.96413702153E+03  0.96413702153E+03  0.00000000000E+00 0. -1.
      99926    2    1    2    0    0 -0.71054273576E-14  0.00000000000E+00 -0.91096653165E+03  0.10173075114E+04  0.45282949441E+03 0.  0.
      99925    2    3    3    0    0 -0.51200842137E+02 -0.95928206263E+02 -0.52286989574E+03  0.59530010165E+03  0.26299341469E+03 0.  0.
         25    1    3    3    0    0  0.51200842137E+02  0.95928206263E+02 -0.38809663591E+03  0.42200740976E+03  0.12509000000E+03 0.  0.
         25    1    4    4    0    0 -0.11305744095E+02 -0.70551219105E+02 -0.33533426956E+03  0.36496832028E+03  0.12509000000E+03 0.  0.
         25    1    4    4    0    0 -0.39895098042E+02 -0.25376987157E+02 -0.18753562618E+03  0.23033178137E+03  0.12509000000E+03 0.  0.
<mgrwt>
<rscale>  2 0.45282949E+03</rscale>
<asrwt>0</asrwt>
<pdfrwt beam="1">  1       21 0.78191900E-02 0.45282949E+03</pdfrwt>
<pdfrwt beam="2">  1       21 0.14178485E+00 0.45282949E+03</pdfrwt>
<totfact> 0.39159730E+04</totfact>
</mgrwt>
</event>
<event>
 7    0  0.4775379E-002  0.4461730E+03  0.7546771E-02  0.1028869E+00
         21   -1    0    0  502  501  0.00000000000E+00  0.00000000000E+00  0.92484773218E+02  0.92484773218E+02  0.00000000000E+00 0. -1.
         21   -1    0    0  501  502 -0.00000000000E+00 -0.00000000000E+00 -0.53811660084E+03  0.53811660084E+03  0.00000000000E+00 0. -1.
      99926    2    1    2    0    0  0.00000000000E+00  0.00000000000E+00 -0.44563182762E+03  0.63060137406E+03  0.44617302381E+03 0.  0.
      99925    2    3    3    0    0 -0.96501271480E+02  0.32669480567E+02 -0.25003359732E+03  0.37705460095E+03  0.26319874990E+03 0.  0.
         25    1    4    4    0    0 -0.10623303315E+02  0.35372107442E+02 -0.11220993332E+03  0.17205411298E+03  0.12509000000E+03 0.  0.
         25    1    3    3    0    0  0.96501271480E+02 -0.32669480567E+02 -0.19559823030E+03  0.25354677311E+03  0.12509000000E+03 0.  0.
         25    1    4    4    0    0 -0.85877968165E+02 -0.27026268755E+01 -0.13782366400E+03  0.20500048797E+03  0.12509000000E+03 0.  0.
<mgrwt>
<rscale>  2 0.44617302E+03</rscale>
<asrwt>0</asrwt>
<pdfrwt beam="1">  1       21 0.13600702E-01 0.44617302E+03</pdfrwt>
<pdfrwt beam="2">  1       21 0.79134795E-01 0.44617302E+03</pdfrwt>
<totfact> 0.60971546E+04</totfact>
</mgrwt>
</event>
<event>
 7    0  0.4775379E-002  0.4564600E+03  0.7546771E-02  0.1025813E+00
         21   -1    0    0  502  501  0.00000000000E+00  0.00000000000E+00  0.63124419423E+03  0.63124419423E+03  0.00000000000E+00 0. -1.
         21   -1    0    0  501  502 -0.00000000000E+00 -0.00000000000E+00 -0.82517889760E+02  0.82517889760E+02  0.00000000000E+00 0. -1.
      99926    2    1    2    0    0  0.00000000000E+00  0.44408920985E-15  0.54872630447E+03  0.71376208400E+03  0.45646002599E+03 0.  0.
      99925    2    3    3    0    0  0.11261788515E+03 -0.13118658465E+01  0.37806627396E+03  0.47406047123E+03  0.26289677410E+03 0.  0.
         25    1    4    4    0    0  0.84901834549E+02 -0.12213188514E+02  0.25110169865E+03  0.29335482721E+03  0.12509000000E+03 0.  0.
         25    1    3    3    0    0 -0.11261788515E+03  0.13118658465E+01  0.17066003051E+03  0.23970161276E+03  0.12509000000E+03 0.  0.
         25    1    4    4    0    0  0.27716050597E+02  0.10901322667E+02  0.12696457531E+03  0.18070564402E+03  0.12509000000E+03 0.  0.
<mgrwt>
<rscale>  2 0.45646003E+03</rscale>
<asrwt>0</asrwt>
<pdfrwt beam="1">  1       21 0.92830026E-01 0.45646003E+03</pdfrwt>
<pdfrwt beam="2">  1       21 0.12134984E-01 0.45646003E+03</pdfrwt>
<totfact> 0.51567298E+04</totfact>
</mgrwt>
</event>
<event>
 7    0  0.4775379E-002  0.4642046E+03  0.7546771E-02  0.1023569E+00
         21   -1    0    0  502  501  0.00000000000E+00  0.00000000000E+00  0.12447744889E+04  0.12447744889E+04  0.00000000000E+00 0. -1.
         21   -1    0    0  501  502 -0.00000000000E+00 -0.00000000000E+00 -0.43278107018E+02  0.43278107018E+02  0.00000000000E+00 0. -1.
      99926    2    1    2    0    0  0.00000000000E+00  0.00000000000E+00  0.12014963819E+04  0.12880525959E+04  0.46420462533E+03 0.  0.
      99925    2    3    3    0    0 -0.16341012330E+02  0.11569285727E+03  0.65614118910E+03  0.71646562939E+03  0.26296363277E+03 0.  0.
         25    1    4    4    0    0 -0.20405827548E+02  0.37447940842E+02  0.22723734815E+03  0.26287462138E+03  0.12509000000E+03 0.  0.
         25    1    4    4    0    0  0.40648152181E+01  0.78244916424E+02  0.42890384095E+03  0.45359100802E+03  0.12509000000E+03 0.  0.
         25    1    3    3    0    0  0.16341012330E+02 -0.11569285727E+03  0.54535519280E+03  0.57158696654E+03  0.12509000000E+03 0.  0.
<mgrwt>
<rscale>  2 0.46420463E+03</rscale>
<asrwt>0</asrwt>
<pdfrwt beam="1">  1       21 0.18305505E+00 0.46420463E+03</pdfrwt>
<pdfrwt beam="2">  1       21 0.63644283E-02 0.46420463E+03</pdfrwt>
<totfact> 0.27444664E+04</totfact>
</mgrwt>
</event>
<event>
 7    0  0.4775379E-002  0.4600535E+03  0.7546771E-02  0.1024766E+00
         21   -1    0    0  502  501  0.00000000000E+00  0.00000000000E+00  0.14773992126E+03  0.14773992126E+03  0.00000000000E+00 0.  1.
         21   -1    0    0  501  502 -0.00000000000E+00 -0.00000000000E+00 -0.35814493188E+03  0.35814493188E+03  0.00000000000E+00 0.  1.
      99926    2    1    2    0    0  0.71054273576E-14  0.00000000000E+00 -0.21040501062E+03  0.50588485314E+03  0.46005349270E+03 0.  0.
      99925    2    3    3    0    0  0.51829301667E+02 -0.81981743468E+02 -0.20532491009E+03  0.34751630104E+03  0.26306268837E+03 0.  0.
         25    1    4    4    0    0 -0.12540877546E+02 -0.32133392228E+02 -0.78485144527E+02  0.15164845702E+03  0.12509000000E+03 0.  0.
         25    1    4    4    0    0  0.64370179214E+02 -0.49848351240E+02 -0.12683976556E+03  0.19586784402E+03  0.12509000000E+03 0.  0.
         25    1    3    3    0    0 -0.51829301667E+02  0.81981743468E+02 -0.50801005362E+01  0.15836855210E+03  0.12509000000E+03 0.  0.
<mgrwt>
<rscale>  2 0.46005349E+03</rscale>
<asrwt>0</asrwt>
<pdfrwt beam="1">  1       21 0.21726459E-01 0.46005349E+03</pdfrwt>
<pdfrwt beam="2">  1       21 0.52668372E-01 0.46005349E+03</pdfrwt>
<totfact> 0.62321527E+04</totfact>
</mgrwt>
</event>
<event>
 7    0  0.4775379E-002  0.4380968E+03  0.7546771E-02  0.1031332E+00
         21   -1    0    0  502  501  0.00000000000E+00  0.00000000000E+00  0.26761961323E+04  0.26761961323E+04  0.00000000000E+00 0.  1.
         21   -1    0    0  501  502 -0.00000000000E+00 -0.00000000000E+00 -0.17929257064E+02  0.17929257064E+02  0.00000000000E+00 0.  1.
      99926    2    1    2    0    0 -0.71054273576E-14  0.00000000000E+00  0.26582668752E+04  0.26941253893E+04  0.43809683134E+03 0.  0.
      99925    2    3    3    0    0  0.46854140220E+02  0.75936427884E+02  0.14729183161E+04  0.14988595753E+04  0.26292586220E+03 0.  0.
         25    1    4    4    0    0 -0.11461849448E+02  0.48037793118E+02  0.81733189477E+03  0.82832236350E+03  0.12509000000E+03 0.  0.
         25    1    4    4    0    0  0.58315989668E+02  0.27898634765E+02  0.65558642130E+03  0.67053721177E+03  0.12509000000E+03 0.  0.
         25    1    3    3    0    0 -0.46854140220E+02 -0.75936427884E+02  0.11853485591E+04  0.11952658141E+04  0.12509000000E+03 0.  0.
<mgrwt>
<rscale>  2 0.43809683E+03</rscale>
<asrwt>0</asrwt>
<pdfrwt beam="1">  1       21 0.39355798E+00 0.43809683E+03</pdfrwt>
<pdfrwt beam="2">  1       21 0.26366573E-02 0.43809683E+03</pdfrwt>
<totfact> 0.61067461E+03</totfact>
</mgrwt>
</event>
<event>
 7    0  0.4775379E-002  0.4502233E+03  0.7546771E-02  0.1027655E+00
         21   -1    0    0  502  501  0.00000000000E+00  0.00000000000E+00  0.18678433477E+04  0.18678433477E+04  0.00000000000E+00 0. -1.
         21   -1    0    0  501  502 -0.00000000000E+00 -0.00000000000E+00 -0.27130359238E+02  0.27130359238E+02  0.00000000000E+00 0. -1.
      99926    2    1    2    0    0  0.88817841970E-15  0.00000000000E+00  0.18407129885E+04  0.18949737069E+04  0.45022332691E+03 0.  0.
      99925    2    3    3    0    0 -0.75722616439E+01 -0.16248881400E+02  0.16140879293E+04  0.16354977142E+04  0.26315691931E+03 0.  0.
         25    1    3    3    0    0  0.75722616439E+01  0.16248881400E+02  0.22662505916E+03  0.25947599278E+03  0.12509000000E+03 0.  0.
         25    1    4    4    0    0 -0.10685690313E+02 -0.48041481221E+02  0.78852034441E+03  0.79989624924E+03  0.12509000000E+03 0.  0.
         25    1    4    4    0    0  0.31134286688E+01  0.31792599822E+02  0.82556758490E+03  0.83560146493E+03  0.12509000000E+03 0.  0.
<mgrwt>
<rscale>  2 0.45022333E+03</rscale>
<asrwt>0</asrwt>
<pdfrwt beam="1">  1       21 0.27468276E+00 0.45022333E+03</pdfrwt>
<pdfrwt beam="2">  1       21 0.39897600E-02 0.45022333E+03</pdfrwt>
<totfact> 0.16089429E+04</totfact>
</mgrwt>
</event>
<event>
 7    0  0.4775379E-002  0.4574930E+03  0.7546771E-02  0.1025511E+00
         21   -1    0    0  502  501  0.00000000000E+00  0.00000000000E+00  0.28134999888E+03  0.28134999888E+03  0.00000000000E+00 0.  1.
         21   -1    0    0  501  502 -0.00000000000E+00 -0.00000000000E+00 -0.18597815202E+03  0.18597815202E+03  0.00000000000E+00 0.  1.
      99926    2    1    2    0    0 -0.14210854715E-13 -0.35527136788E-14  0.95371846859E+02  0.46732815090E+03  0.45749296328E+03 0.  0.
      99925    2    3    3    0    0 -0.95806698452E+02 -0.22754370726E+02  0.12160992833E+03  0.30598184671E+03  0.26294339884E+03 0.  0.
         25    1    4    4    0    0 -0.40675421506E+02 -0.42927918821E+02  0.34382463726E+02  0.14257264128E+03  0.12509000000E+03 0.  0.
         25    1    4    4    0    0 -0.55131276946E+02  0.20173548095E+02  0.87227464602E+02  0.16340920544E+03  0.12509000000E+03 0.  0.
         25    1    3    3    0    0  0.95806698452E+02  0.22754370726E+02 -0.26238081470E+02  0.16134630419E+03  0.12509000000E+03 0.  0.
<mgrwt>
<rscale>  2 0.45749296E+03</rscale>
<asrwt>0</asrwt>
<pdfrwt beam="1">  1       21 0.41375000E-01 0.45749296E+03</pdfrwt>
<pdfrwt beam="2">  1       21 0.27349728E-01 0.45749296E+03</pdfrwt>
<totfact> 0.66313914E+04</totfact>
</mgrwt>
</event>
<event>
 7    0  0.4775379E-002  0.4586902E+03  0.7546771E-02  0.1025162E+00
         21   -1    0    0  502  501  0.00000000000E+00  0.00000000000E+00  0.62268204147E+03  0.62268204147E+03  0.00000000000E+00 0.  1.
         21   -1    0    0  501  502 -0.00000000000E+00 -0.00000000000E+00 -0.84471968481E+02  0.84471968481E+02  0.00000000000E+00 0.  1.
      99926    2    1    2    0    0  0.00000000000E+00  0.00000000000E+00  0.53821007299E+03  0.70715400995E+03  0.45869021259E+03 0.  0.
      99925    2    3    3    0    0 -0.13920999990E+02 -0.10038243052E+03  0.42645674819E+03  0.51117763306E+03  0.26299579438E+03 0.  0.
         25    1    4    4    0    0 -0.15549995622E+02 -0.91244109944E+01  0.20852222606E+03  0.24383208177E+03  0.12509000000E+03 0.  0.
         25    1    4    4    0    0  0.16289956319E+01 -0.91258019524E+02  0.21793452213E+03  0.26734555129E+03  0.12509000000E+03 0.  0.
         25    1    3    3    0    0  0.13920999990E+02  0.10038243052E+03  0.11175332479E+03  0.19597637689E+03  0.12509000000E+03 0.  0.
<mgrwt>
<rscale>  2 0.45869021E+03</rscale>
<asrwt>0</asrwt>
<pdfrwt beam="1">  1       21 0.91570887E-01 0.45869021E+03</pdfrwt>
<pdfrwt beam="2">  1       21 0.12422349E-01 0.45869021E+03</pdfrwt>
<totfact> 0.51018674E+04</totfact>
</mgrwt>
</event>
<event>
 7    0  0.4775379E-002  0.4088983E+03  0.7546771E-02  0.1040741E+00
         21   -1    0    0  502  501  0.00000000000E+00  0.00000000000E+00  0.66820977797E+02  0.66820977797E+02  0.00000000000E+00 0. -1.
         21   -1    0    0  501  502 -0.00000000000E+00 -0.00000000000E+00 -0.62554387974E+03  0.62554387974E+03  0.00000000000E+00 0. -1.
      99926    2    1    2    0    0  0.00000000000E+00  0.71054273576E-14 -0.55872290194E+03  0.69236485754E+03  0.40889829395E+03 0.  0.
      99925    2    3    3    0    0  0.33557993669E+02  0.50429349439E+02 -0.37470643166E+03  0.46175950708E+03  0.26295945358E+03 0.  0.
         25    1    3    3    0    0 -0.33557993669E+02 -0.50429349439E+02 -0.18401647029E+03  0.23060535046E+03  0.12509000000E+03 0.  0.
         25    1    4    4    0    0 -0.15314323261E+02  0.23810779232E+02 -0.22424558792E+03  0.25833132506E+03  0.12509000000E+03 0.  0.
         25    1    4    4    0    0  0.48872316930E+02  0.26618570207E+02 -0.15046084373E+03  0.20342818202E+03  0.12509000000E+03 0.  0.
<mgrwt>
<rscale>  2 0.40889829E+03</rscale>
<asrwt>0</asrwt>
<pdfrwt beam="1">  1       21 0.98266150E-02 0.40889829E+03</pdfrwt>
<pdfrwt beam="2">  1       21 0.91991741E-01 0.40889829E+03</pdfrwt>
<totfact> 0.78000599E+04</totfact>
</mgrwt>
</event>
<event>
 7    0  0.4775379E-002  0.4482209E+03  0.7546771E-02  0.1028254E+00
         21   -1    0    0  502  501  0.00000000000E+00  0.00000000000E+00  0.51193058096E+02  0.51193058096E+02  0.00000000000E+00 0.  1.
         21   -1    0    0  501  502 -0.00000000000E+00 -0.00000000000E+00 -0.98109978750E+03  0.98109978750E+03  0.00000000000E+00 0.  1.
      99926    2    1    2    0    0 -0.14210854715E-13  0.88817841970E-15 -0.92990672940E+03  0.10322928456E+04  0.44822092062E+03 0.  0.
      99925    2    3    3    0    0 -0.10167364673E+03  0.93712612604E+00 -0.51456467715E+03  0.58676513926E+03  0.26301732459E+03 0.  0.
         25    1    3    3    0    0  0.10167364673E+03 -0.93712612604E+00 -0.41534205226E+03  0.44552770634E+03  0.12509000000E+03 0.  0.
         25    1    4    4    0    0 -0.83151479643E+02  0.14208496004E+02 -0.22979098219E+03  0.27489535013E+03  0.12509000000E+03 0.  0.
         25    1    4    4    0    0 -0.18522167085E+02 -0.13271369878E+02 -0.28477369496E+03  0.31186978913E+03  0.12509000000E+03 0.  0.
<mgrwt>
<rscale>  2 0.44822092E+03</rscale>
<asrwt>0</asrwt>
<pdfrwt beam="1">  1       21 0.75283914E-02 0.44822092E+03</pdfrwt>
<pdfrwt beam="2">  1       21 0.14427937E+00 0.44822092E+03</pdfrwt>
<totfact> 0.40009741E+04</totfact>
</mgrwt>
</event>
<event>
 7    0  0.4775379E-002  0.4431040E+03  0.7546771E-02  0.1029799E+00
         21   -1    0    0  502  501  0.00000000000E+00  0.00000000000E+00  0.35141567977E+03  0.35141567977E+03  0.00000000000E+00 0.  1.
         21   -1    0    0  501  502 -0.00000000000E+00 -0.00000000000E+00 -0.13967868420E+03  0.13967868420E+03  0.00000000000E+00 0.  1.
      99926    2    1    2    0    0  0.00000000000E+00  0.00000000000E+00  0.21173699557E+03  0.49109436398E+03  0.44310395962E+03 0.  0.
      99925    2    3    3    0    0 -0.23081901959E+02 -0.84122492251E+02  0.19257868604E+03  0.33739362610E+03  0.26294208624E+03 0.  0.
         25    1    4    4    0    0  0.26113826782E+02 -0.28137299626E+02  0.80302402288E+02  0.15352401601E+03  0.12509000000E+03 0.  0.
         25    1    4    4    0    0 -0.49195728741E+02 -0.55985192625E+02  0.11227628375E+03  0.18386961008E+03  0.12509000000E+03 0.  0.
         25    1    3    3    0    0  0.23081901959E+02  0.84122492251E+02  0.19158309535E+02  0.15370073788E+03  0.12509000000E+03 0.  0.
<mgrwt>
<rscale>  2 0.44310396E+03</rscale>
<asrwt>0</asrwt>
<pdfrwt beam="1">  1       21 0.51678776E-01 0.44310396E+03</pdfrwt>
<pdfrwt beam="2">  1       21 0.20540983E-01 0.44310396E+03</pdfrwt>
<totfact> 0.72510210E+04</totfact>
</mgrwt>
</event>
<event>
 7    0  0.4775379E-002  0.4546027E+03  0.7546771E-02  0.1026358E+00
         21   -1    0    0  502  501  0.00000000000E+00  0.00000000000E+00  0.12639524480E+03  0.12639524480E+03  0.00000000000E+00 0.  1.
         21   -1    0    0  501  502 -0.00000000000E+00 -0.00000000000E+00 -0.40876455278E+03  0.40876455278E+03  0.00000000000E+00 0.  1.
      99926    2    1    2    0    0  0.00000000000E+00  0.00000000000E+00 -0.28236930798E+03  0.53515979758E+03  0.45460266481E+03 0.  0.
      99925    2    3    3    0    0 -0.71346826208E+02 -0.20326700798E+02 -0.77806426486E+02  0.28416771610E+03  0.26304734650E+03 0.  0.
         25    1    4    4    0    0 -0.61409364921E+02 -0.25807854052E+02 -0.70665265484E+02  0.15836111668E+03  0.12509000000E+03 0.  0.
         25    1    4    4    0    0 -0.99374612870E+01  0.54811532530E+01 -0.71411610018E+01  0.12580659942E+03  0.12509000000E+03 0.  0.
         25    1    3    3    0    0  0.71346826208E+02  0.20326700798E+02 -0.20456288150E+03  0.25099208147E+03  0.12509000000E+03 0.  0.
<mgrwt>
<rscale>  2 0.45460266E+03</rscale>
<asrwt>0</asrwt>
<pdfrwt beam="1">  1       21 0.18587536E-01 0.45460266E+03</pdfrwt>
<pdfrwt beam="2">  1       21 0.60112434E-01 0.45460266E+03</pdfrwt>
<totfact> 0.63056013E+04</totfact>
</mgrwt>
</event>
<event>
 7    0  0.4775379E-002  0.4573583E+03  0.7546771E-02  0.1025550E+00
         21   -1    0    0  502  501  0.00000000000E+00  0.00000000000E+00  0.19687995506E+03  0.19687995506E+03  0.00000000000E+00 0.  1.
         21   -1    0    0  501  502 -0.00000000000E+00 -0.00000000000E+00 -0.26561446753E+03  0.26561446753E+03  0.00000000000E+00 0.  1.
      99926    2    1    2    0    0  0.00000000000E+00  0.00000000000E+00 -0.68734512467E+02  0.46249442259E+03  0.45735834717E+03 0.  0.
      99925    2    3    3    0    0  0.60391593670E+02  0.94547532236E+02 -0.70540200386E+02  0.29445529308E+03  0.26294794032E+03 0.  0.
         25    1    4    4    0    0  0.34521814456E+02  0.28045185619E+02 -0.70763569983E+02  0.15044360753E+03  0.12509000000E+03 0.  0.
         25    1    3    3    0    0 -0.60391593670E+02 -0.94547532236E+02  0.18056879195E+01  0.16803912951E+03  0.12509000000E+03 0.  0.
         25    1    4    4    0    0  0.25869779214E+02  0.66502346617E+02  0.22336959639E+00  0.14401168555E+03  0.12509000000E+03 0.  0.
<mgrwt>
<rscale>  2 0.45735835E+03</rscale>
<asrwt>0</asrwt>
<pdfrwt beam="1">  1       21 0.28952935E-01 0.45735835E+03</pdfrwt>
<pdfrwt beam="2">  1       21 0.39060951E-01 0.45735835E+03</pdfrwt>
<totfact> 0.66735213E+04</totfact>
</mgrwt>
</event>
<event>
 7    0  0.4775379E-002  0.4464412E+03  0.7546771E-02  0.1028789E+00
         21   -1    0    0  502  501  0.00000000000E+00  0.00000000000E+00  0.15519058993E+04  0.15519058993E+04  0.00000000000E+00 0.  1.
         21   -1    0    0  501  502 -0.00000000000E+00 -0.00000000000E+00 -0.32107254596E+02  0.32107254596E+02  0.00000000000E+00 0.  1.
      99926    2    1    2    0    0  0.00000000000E+00  0.14210854715E-13  0.15197986447E+04  0.15840131539E+04  0.44644120696E+03 0.  0.
      99925    2    3    3    0    0 -0.28351430142E+02 -0.95041094515E+02  0.10865532482E+04  0.11222927895E+04  0.26288121057E+03 0.  0.
         25    1    3    3    0    0  0.28351430142E+02  0.95041094515E+02  0.43324539647E+03  0.46172036440E+03  0.12509000000E+03 0.  0.
         25    1    4    4    0    0  0.68937475531E+01 -0.32584333452E+02  0.64268837012E+03  0.65559523467E+03  0.12509000000E+03 0.  0.
         25    1    4    4    0    0 -0.35245177695E+02 -0.62456761063E+02  0.44386487809E+03  0.46669755480E+03  0.12509000000E+03 0.  0.
<mgrwt>
<rscale>  2 0.44644121E+03</rscale>
<asrwt>0</asrwt>
<pdfrwt beam="1">  1       21 0.22822141E+00 0.44644121E+03</pdfrwt>
<pdfrwt beam="2">  1       21 0.47216561E-02 0.44644121E+03</pdfrwt>
<totfact> 0.23303990E+04</totfact>
</mgrwt>
</event>
<event>
 7    0  0.4775379E-002  0.4505651E+03  0.7546771E-02  0.1027554E+00
         21   -1    0    0  502  501  0.00000000000E+00  0.00000000000E+00  0.94748207240E+02  0.94748207240E+02  0.00000000000E+00 0.  1.
         21   -1    0    0  501  502 -0.00000000000E+00 -0.00000000000E+00 -0.53565363938E+03  0.53565363938E+03  0.00000000000E+00 0.  1.
      99926    2    1    2    0    0 -0.71054273576E-14 -0.14210854715E-13 -0.44090543214E+03  0.63040184662E+03  0.45056507646E+03 0.  0.
      99925    2    3    3    0    0 -0.48618981441E+02 -0.94884192801E+02 -0.30985166159E+03  0.42018906329E+03  0.26302848005E+03 0.  0.
         25    1    3    3    0    0  0.48618981441E+02  0.94884192801E+02 -0.13105377055E+03  0.21021278333E+03  0.12509000000E+03 0.  0.
         25    1    4    4    0    0 -0.11771110334E+02 -0.42698116777E+02 -0.93841067150E+02  0.16252797359E+03  0.12509000000E+03 0.  0.
         25    1    4    4    0    0 -0.36847871107E+02 -0.52186076024E+02 -0.21601059444E+03  0.25766108970E+03  0.12509000000E+03 0.  0.
<mgrwt>
<rscale>  2 0.45056508E+03</rscale>
<asrwt>0</asrwt>
<pdfrwt beam="1">  1       21 0.13933560E-01 0.45056508E+03</pdfrwt>
<pdfrwt beam="2">  1       21 0.78772595E-01 0.45056508E+03</pdfrwt>
<totfact> 0.58879239E+04</totfact>
</mgrwt>
</event>
<event>
 7    0  0.4775379E-002  0.4559235E+03  0.7546771E-02  0.1025970E+00
         21   -1    0    0  502  501  0.00000000000E+00  0.00000000000E+00  0.11678238486E+03  0.11678238486E+03  0.00000000000E+00 0.  1.
         21   -1    0    0  501  502 -0.00000000000E+00 -0.00000000000E+00 -0.44498622672E+03  0.44498622672E+03  0.00000000000E+00 0.  1.
      99926    2    1    2    0    0  0.00000000000E+00 -0.71054273576E-14 -0.32820384186E+03  0.56176861157E+03  0.45592347071E+03 0.  0.
      99925    2    3    3    0    0 -0.36617360865E+02  0.38142909764E+02 -0.33086783194E+03  0.42593666531E+03  0.26296921486E+03 0.  0.
         25    1    4    4    0    0  0.10057443608E+01 -0.95298591164E+01 -0.12185119144E+03  0.17489153980E+03  0.12509000000E+03 0.  0.
         25    1    3    3    0    0  0.36617360865E+02 -0.38142909764E+02  0.26639900852E+01  0.13583194626E+03  0.12509000000E+03 0.  0.
         25    1    4    4    0    0 -0.37623105225E+02  0.47672768880E+02 -0.20901664050E+03  0.25104512552E+03  0.12509000000E+03 0.  0.
<mgrwt>
<rscale>  2 0.45592347E+03</rscale>
<asrwt>0</asrwt>
<pdfrwt beam="1">  1       21 0.17173880E-01 0.45592347E+03</pdfrwt>
<pdfrwt beam="2">  1       21 0.65439151E-01 0.45592347E+03</pdfrwt>
<totfact> 0.60651241E+04</totfact>
</mgrwt>
</event>
<event>
 7    0  0.4775379E-002  0.4638961E+03  0.7546771E-02  0.1023657E+00
         21   -1    0    0  502  501  0.00000000000E+00  0.00000000000E+00  0.21981017148E+03  0.21981017148E+03  0.00000000000E+00 0.  1.
         21   -1    0    0  501  502 -0.00000000000E+00 -0.00000000000E+00 -0.24475620337E+03  0.24475620337E+03  0.00000000000E+00 0.  1.
      99926    2    1    2    0    0 -0.35527136788E-14  0.00000000000E+00 -0.24946031892E+02  0.46456637485E+03  0.46389612213E+03 0.  0.
      99925    2    3    3    0    0 -0.22404602912E+02 -0.75308881938E+02 -0.10846559611E+03  0.29487129643E+03  0.26269926149E+03 0.  0.
         25    1    4    4    0    0  0.25922155063E+02 -0.52695060522E+02 -0.56178788915E+02  0.14917202134E+03  0.12509000000E+03 0.  0.
         25    1    3    3    0    0  0.22404602912E+02  0.75308881938E+02  0.83519564220E+02  0.16969507841E+03  0.12509000000E+03 0.  0.
         25    1    4    4    0    0 -0.48326757975E+02 -0.22613821416E+02 -0.52286807197E+02  0.14569927509E+03  0.12509000000E+03 0.  0.
<mgrwt>
<rscale>  2 0.46389612E+03</rscale>
<asrwt>0</asrwt>
<pdfrwt beam="1">  1       21 0.32325025E-01 0.46389612E+03</pdfrwt>
<pdfrwt beam="2">  1       21 0.35993559E-01 0.46389612E+03</pdfrwt>
<totfact> 0.63241077E+04</totfact>
</mgrwt>
</event>
<event>
 7    0  0.4775379E-002  0.4511090E+03  0.7546771E-02  0.1027392E+00
         21   -1    0    0  502  501  0.00000000000E+00  0.00000000000E+00  0.30177457488E+03  0.30177457488E+03  0.00000000000E+00 0.  1.
         21   -1    0    0  501  502 -0.00000000000E+00 -0.00000000000E+00 -0.16858555454E+03  0.16858555454E+03  0.00000000000E+00 0.  1.
      99926    2    1    2    0    0  0.00000000000E+00 -0.71054273576E-14  0.13318902034E+03  0.47036012942E+03  0.45110900701E+03 0.  0.
      99925    2    3    3    0    0 -0.10154197008E+03  0.40032963244E+02  0.74531445078E+02  0.29428733462E+03  0.26293856541E+03 0.  0.
         25    1    3    3    0    0  0.10154197008E+03 -0.40032963244E+02  0.58657575259E+02  0.17607279480E+03  0.12509000000E+03 0.  0.
         25    1    4    4    0    0 -0.16746371246E+02 -0.46084991346E+01  0.44311037869E+02  0.13383816866E+03  0.12509000000E+03 0.  0.
         25    1    4    4    0    0 -0.84795598830E+02  0.44641462379E+02  0.30220407209E+02  0.16044916596E+03  0.12509000000E+03 0.  0.
<mgrwt>
<rscale>  2 0.45110901E+03</rscale>
<asrwt>0</asrwt>
<pdfrwt beam="1">  1       21 0.44378614E-01 0.45110901E+03</pdfrwt>
<pdfrwt beam="2">  1       21 0.24791993E-01 0.45110901E+03</pdfrwt>
<totfact> 0.69530883E+04</totfact>
</mgrwt>
</event>
<event>
 7    0  0.4775379E-002  0.4428244E+03  0.7546771E-02  0.1029884E+00
         21   -1    0    0  502  501  0.00000000000E+00  0.00000000000E+00  0.10655731539E+03  0.10655731539E+03  0.00000000000E+00 0. -1.
         21   -1    0    0  501  502 -0.00000000000E+00 -0.00000000000E+00 -0.46006564603E+03  0.46006564603E+03  0.00000000000E+00 0. -1.
      99926    2    1    2    0    0 -0.35527136788E-14  0.00000000000E+00 -0.35350833064E+03  0.56662296143E+03  0.44282439023E+03 0.  0.
      99925    2    3    3    0    0 -0.22180783998E+02  0.17665919477E+02 -0.34947230867E+03  0.43829576453E+03  0.26299849959E+03 0.  0.
         25    1    4    4    0    0  0.27466794149E+02  0.16267544673E+02 -0.18850696439E+03  0.22847634782E+03  0.12509000000E+03 0.  0.
         25    1    3    3    0    0  0.22180783998E+02 -0.17665919477E+02 -0.40360219679E+01  0.12832719690E+03  0.12509000000E+03 0.  0.
         25    1    4    4    0    0 -0.49647578146E+02  0.13983748042E+01 -0.16096534429E+03  0.20981941671E+03  0.12509000000E+03 0.  0.
<mgrwt>
<rscale>  2 0.44282439E+03</rscale>
<asrwt>0</asrwt>
<pdfrwt beam="1">  1       21 0.15670193E-01 0.44282439E+03</pdfrwt>
<pdfrwt beam="2">  1       21 0.67656715E-01 0.44282439E+03</pdfrwt>
<totfact> 0.67003585E+04</totfact>
</mgrwt>
</event>
<event>
 7    0  0.4775379E-002  0.4735173E+03  0.7546771E-02  0.1020932E+00
         21   -1    0    0  502  501  0.00000000000E+00  0.00000000000E+00  0.55424748943E+03  0.55424748943E+03  0.00000000000E+00 0.  1.
         21   -1    0    0  501  502 -0.00000000000E+00 -0.00000000000E+00 -0.10113652057E+03  0.10113652057E+03  0.00000000000E+00 0.  1.
      99926    2    1    2    0    0  0.17763568394E-14  0.71054273576E-14  0.45311096886E+03  0.65538401000E+03  0.47351731801E+03 0.  0.
      99925    2    3    3    0    0  0.75124252843E+01  0.44702186695E+02  0.11241519107E+03  0.28963020874E+03  0.26304706918E+03 0.  0.
         25    1    4    4    0    0  0.31433514424E+02  0.48590345954E+02  0.42176900285E+02  0.14413704092E+03  0.12509000000E+03 0.  0.
         25    1    4    4    0    0 -0.23921089140E+02 -0.38881592587E+01  0.70238290784E+02  0.14549316781E+03  0.12509000000E+03 0.  0.
         25    1    3    3    0    0 -0.75124252843E+01 -0.44702186695E+02  0.34069577779E+03  0.36575380126E+03  0.12509000000E+03 0.  0.
<mgrwt>
<rscale>  2 0.47351732E+03</rscale>
<asrwt>0</asrwt>
<pdfrwt beam="1">  1       21 0.81506982E-01 0.47351732E+03</pdfrwt>
<pdfrwt beam="2">  1       21 0.14873018E-01 0.47351732E+03</pdfrwt>
<totfact> 0.47988503E+04</totfact>
</mgrwt>
</event>
<event>
 7    0  0.4775379E-002  0.4345624E+03  0.7546771E-02  0.1032428E+00
         21   -1    0    0  502  501  0.00000000000E+00  0.00000000000E+00  0.16929372539E+04  0.16929372539E+04  0.00000000000E+00 0.  1.
         21   -1    0    0  501  502 -0.00000000000E+00 -0.00000000000E+00 -0.27887102729E+02  0.27887102729E+02  0.00000000000E+00 0.  1.
      99926    2    1    2    0    0  0.00000000000E+00  0.00000000000E+00  0.16650501512E+04  0.17208243566E+04  0.43456237809E+03 0.  0.
      99925    2    3    3    0    0  0.96291966136E+01 -0.51264823946E+02  0.13763238497E+04  0.14018710859E+04  0.26125542835E+03 0.  0.
         25    1    3    3    0    0 -0.96291966136E+01  0.51264823946E+02  0.28872630152E+03  0.31895327070E+03  0.12509000000E+03 0.  0.
         25    1    4    4    0    0 -0.36152955171E+01  0.45791621959E+01  0.54250957929E+03  0.55677481158E+03  0.12509000000E+03 0.  0.
         25    1    4    4    0    0  0.13244492131E+02 -0.55843986142E+02  0.83381427036E+03  0.84509627435E+03  0.12509000000E+03 0.  0.
<mgrwt>
<rscale>  2 0.43456238E+03</rscale>
<asrwt>0</asrwt>
<pdfrwt beam="1">  1       21 0.24896129E+00 0.43456238E+03</pdfrwt>
<pdfrwt beam="2">  1       21 0.41010457E-02 0.43456238E+03</pdfrwt>
<totfact> 0.22141535E+04</totfact>
</mgrwt>
</event>
<event>
 7    0  0.4775379E-002  0.4572253E+03  0.7546771E-02  0.1025589E+00
         21   -1    0    0  502  501  0.00000000000E+00  0.00000000000E+00  0.77702014124E+03  0.77702014124E+03  0.00000000000E+00 0.  1.
         21   -1    0    0  501  502 -0.00000000000E+00 -0.00000000000E+00 -0.67261772728E+02  0.67261772728E+02  0.00000000000E+00 0.  1.
      99926    2    1    2    0    0 -0.71054273576E-14  0.00000000000E+00  0.70975836851E+03  0.84428191397E+03  0.45722533677E+03 0.  0.
      99925    2    3    3    0    0  0.58665459482E+02  0.43788870201E+01  0.26268644518E+03  0.37632719017E+03  0.26297751766E+03 0.  0.
         25    1    4    4    0    0  0.18758714426E+02  0.65447270535E+01  0.74794278001E+02  0.14709321854E+03  0.12509000000E+03 0.  0.
         25    1    3    3    0    0 -0.58665459482E+02 -0.43788870201E+01  0.44707192334E+03  0.46795472380E+03  0.12509000000E+03 0.  0.
         25    1    4    4    0    0  0.39906745056E+02 -0.21658400334E+01  0.18789216718E+03  0.22923397163E+03  0.12509000000E+03 0.  0.
<mgrwt>
<rscale>  2 0.45722534E+03</rscale>
<asrwt>0</asrwt>
<pdfrwt beam="1">  1       21 0.11426766E+00 0.45722534E+03</pdfrwt>
<pdfrwt beam="2">  1       21 0.98914376E-02 0.45722534E+03</pdfrwt>
<totfact> 0.44907128E+04</totfact>
</mgrwt>
</event>
<event>
 7    0  0.4775379E-002  0.4508659E+03  0.7546771E-02  0.1027464E+00
         21   -1    0    0  502  501  0.00000000000E+00  0.00000000000E+00  0.20995850505E+03  0.20995850505E+03  0.00000000000E+00 0.  1.
         21   -1    0    0  501  502 -0.00000000000E+00 -0.00000000000E+00 -0.24204794968E+03  0.24204794968E+03  0.00000000000E+00 0.  1.
      99926    2    1    2    0    0  0.00000000000E+00 -0.71054273576E-14 -0.32089444633E+02  0.45200645473E+03  0.45086594755E+03 0.  0.
      99925    2    3    3    0    0  0.58920011439E+02 -0.49863952716E+02  0.57045312471E+02  0.28010388188E+03  0.26314641445E+03 0.  0.
         25    1    4    4    0    0  0.41093321299E+02  0.10674776133E+02  0.44683912821E+02  0.13945168363E+03  0.12509000000E+03 0.  0.
         25    1    4    4    0    0  0.17826690140E+02 -0.60538728849E+02  0.12361399650E+02  0.14065219825E+03  0.12509000000E+03 0.  0.
         25    1    3    3    0    0 -0.58920011439E+02  0.49863952716E+02 -0.89134757104E+02  0.17190257285E+03  0.12509000000E+03 0.  0.
<mgrwt>
<rscale>  2 0.45086595E+03</rscale>
<asrwt>0</asrwt>
<pdfrwt beam="1">  1       21 0.30876251E-01 0.45086595E+03</pdfrwt>
<pdfrwt beam="2">  1       21 0.35595287E-01 0.45086595E+03</pdfrwt>
<totfact> 0.71081511E+04</totfact>
</mgrwt>
</event>
<event>
 7    0  0.4775379E-002  0.4671766E+03  0.7546771E-02  0.1022720E+00
         21   -1    0    0  502  501  0.00000000000E+00  0.00000000000E+00  0.17591634877E+03  0.17591634877E+03  0.00000000000E+00 0. -1.
         21   -1    0    0  501  502 -0.00000000000E+00 -0.00000000000E+00 -0.31016720971E+03  0.31016720971E+03  0.00000000000E+00 0. -1.
      99926    2    1    2    0    0  0.71054273576E-14  0.17763568394E-14 -0.13425086094E+03  0.48608355847E+03  0.46717655352E+03 0.  0.
      99925    2    3    3    0    0  0.39305699015E+02  0.13936709725E+02  0.38017919922E+02  0.26914298870E+03  0.26316043829E+03 0.  0.
         25    1    4    4    0    0  0.74775309802E+00  0.11820616754E+02  0.54946221245E+02  0.13713818376E+03  0.12509000000E+03 0.  0.
         25    1    3    3    0    0 -0.39305699015E+02 -0.13936709725E+02 -0.17226878086E+03  0.21694056977E+03  0.12509000000E+03 0.  0.
         25    1    4    4    0    0  0.38557945917E+02  0.21160929707E+01 -0.16928301323E+02  0.13200480494E+03  0.12509000000E+03 0.  0.
<mgrwt>
<rscale>  2 0.46717655E+03</rscale>
<asrwt>0</asrwt>
<pdfrwt beam="1">  1       21 0.25870051E-01 0.46717655E+03</pdfrwt>
<pdfrwt beam="2">  1       21 0.45612825E-01 0.46717655E+03</pdfrwt>
<totfact> 0.60225431E+04</totfact>
</mgrwt>
</event>
<event>
 7    0  0.4775379E-002  0.4557141E+03  0.7546771E-02  0.1026032E+00
         21   -1    0    0  502  501  0.00000000000E+00  0.00000000000E+00  0.38573211693E+03  0.38573211693E+03  0.00000000000E+00 0.  1.
         21   -1    0    0  501  502 -0.00000000000E+00 -0.00000000000E+00 -0.13459815481E+03  0.13459815481E+03  0.00000000000E+00 0.  1.
      99926    2    1    2    0    0  0.00000000000E+00  0.00000000000E+00  0.25113396212E+03  0.52033027174E+03  0.45571408224E+03 0.  0.
      99925    2    3    3    0    0  0.48527967740E+02 -0.97083280392E+02  0.11890994965E+03  0.30840853015E+03  0.26305155076E+03 0.  0.
         25    1    4    4    0    0  0.43189363869E+02 -0.62926259820E+02  0.26059295562E+02  0.14883423770E+03  0.12509000000E+03 0.  0.
         25    1    4    4    0    0  0.53386038714E+01 -0.34157020572E+02  0.92850654086E+02  0.15957429245E+03  0.12509000000E+03 0.  0.
         25    1    3    3    0    0 -0.48527967740E+02  0.97083280392E+02  0.13222401247E+03  0.21192174159E+03  0.12509000000E+03 0.  0.
<mgrwt>
<rscale>  2 0.45571408E+03</rscale>
<asrwt>0</asrwt>
<pdfrwt beam="1">  1       21 0.56725311E-01 0.45571408E+03</pdfrwt>
<pdfrwt beam="2">  1       21 0.19793846E-01 0.45571408E+03</pdfrwt>
<totfact> 0.63504230E+04</totfact>
</mgrwt>
</event>
<event>
 6    0  0.4775379E-002  0.4528060E+03  0.7546771E-02  0.1026889E+00
         21   -1    0    0  502  501  0.00000000000E+00  0.00000000000E+00  0.15572939596E+03  0.15572939596E+03  0.00000000000E+00 0.  1.
         21   -1    0    0  501  502 -0.00000000000E+00 -0.00000000000E+00 -0.32914993340E+03  0.32914993340E+03  0.00000000000E+00 0.  1.
      99926    2    1    2    0    0  0.00000000000E+00  0.00000000000E+00 -0.17342053744E+03  0.48487932937E+03  0.45280600840E+03 0.  0.
         25    1    3    3    0    0  0.48616564650E+02 -0.63153337041E+02 -0.86539060105E+02  0.17172195946E+03  0.12509000000E+03 0.  0.
         25    1    3    3    0    0  0.42977970393E+02  0.15561797333E+01 -0.55283544746E+02  0.14336424259E+03  0.12509000000E+03 0.  0.
         25    1    3    3    0    0 -0.91594535043E+02  0.61597157307E+02 -0.31597932592E+02  0.16979312731E+03  0.12509000000E+03 0.  0.
<mgrwt>
<rscale>  2 0.45280601E+03</rscale>
<asrwt>0</asrwt>
<pdfrwt beam="1">  1       21 0.22901382E-01 0.45280601E+03</pdfrwt>
<pdfrwt beam="2">  1       21 0.48404401E-01 0.45280601E+03</pdfrwt>
<totfact> 0.67514867E+04</totfact>
</mgrwt>
</event>
<event>
 7    0  0.4775379E-002  0.4514109E+03  0.7546771E-02  0.1027302E+00
         21   -1    0    0  502  501  0.00000000000E+00  0.00000000000E+00  0.44809125234E+03  0.44809125234E+03  0.00000000000E+00 0. -1.
         21   -1    0    0  501  502 -0.00000000000E+00 -0.00000000000E+00 -0.11368879152E+03  0.11368879152E+03  0.00000000000E+00 0. -1.
      99926    2    1    2    0    0  0.00000000000E+00  0.00000000000E+00  0.33440246082E+03  0.56178004387E+03  0.45141091246E+03 0.  0.
      99925    2    3    3    0    0 -0.52092693034E+02  0.65159071144E+02  0.29978584520E+03  0.40749079798E+03  0.26309284337E+03 0.  0.
         25    1    4    4    0    0 -0.35317553611E+02  0.18176491468E+02  0.20267279869E+03  0.24145700624E+03  0.12509000000E+03 0.  0.
         25    1    4    4    0    0 -0.16775139423E+02  0.46982579676E+02  0.97113046513E+02  0.16603379174E+03  0.12509000000E+03 0.  0.
         25    1    3    3    0    0  0.52092693034E+02 -0.65159071144E+02  0.34616615617E+02  0.15428924589E+03  0.12509000000E+03 0.  0.
<mgrwt>
<rscale>  2 0.45141091E+03</rscale>
<asrwt>0</asrwt>
<pdfrwt beam="1">  1       21 0.65895772E-01 0.45141091E+03</pdfrwt>
<pdfrwt beam="2">  1       21 0.16718940E-01 0.45141091E+03</pdfrwt>
<totfact> 0.62860271E+04</totfact>
</mgrwt>
</event>
<event>
 7    0  0.4775379E-002  0.4524516E+03  0.7546771E-02  0.1026993E+00
         21   -1    0    0  502  501  0.00000000000E+00  0.00000000000E+00  0.74175114875E+03  0.74175114875E+03  0.00000000000E+00 0. -1.
         21   -1    0    0  501  502 -0.00000000000E+00 -0.00000000000E+00 -0.68996335424E+02  0.68996335424E+02  0.00000000000E+00 0. -1.
      99926    2    1    2    0    0 -0.35527136788E-14 -0.71054273576E-14  0.67275481333E+03  0.81074748418E+03  0.45245159326E+03 0.  0.
      99925    2    3    3    0    0  0.21318803588E+02  0.46312357644E+02  0.24816575853E+03  0.36518862229E+03  0.26301551339E+03 0.  0.
         25    1    4    4    0    0  0.45993189561E+02  0.24197192887E+02  0.15432540270E+03  0.20534048711E+03  0.12509000000E+03 0.  0.
         25    1    3    3    0    0 -0.21318803588E+02 -0.46312357644E+02  0.42458905480E+03  0.44555886189E+03  0.12509000000E+03 0.  0.
         25    1    4    4    0    0 -0.24674385973E+02  0.22115164757E+02  0.93840355836E+02  0.15984813517E+03  0.12509000000E+03 0.  0.
<mgrwt>
<rscale>  2 0.45245159E+03</rscale>
<asrwt>0</asrwt>
<pdfrwt beam="1">  1       21 0.10908105E+00 0.45245159E+03</pdfrwt>
<pdfrwt beam="2">  1       21 0.10146520E-01 0.45245159E+03</pdfrwt>
<totfact> 0.48206171E+04</totfact>
</mgrwt>
</event>
<event>
 7    0  0.4775379E-002  0.4563239E+03  0.7546771E-02  0.1025853E+00
         21   -1    0    0  502  501  0.00000000000E+00  0.00000000000E+00  0.17381692662E+03  0.17381692662E+03  0.00000000000E+00 0. -1.
         21   -1    0    0  501  502 -0.00000000000E+00 -0.00000000000E+00 -0.29949832496E+03  0.29949832496E+03  0.00000000000E+00 0. -1.
      99926    2    1    2    0    0  0.00000000000E+00  0.00000000000E+00 -0.12568139834E+03  0.47331525158E+03  0.45632391291E+03 0.  0.
      99925    2    3    3    0    0 -0.30455021404E+02 -0.25017244065E+02  0.32486677811E+02  0.26784501228E+03  0.26293002023E+03 0.  0.
         25    1    4    4    0    0 -0.44150999516E+02 -0.30544286648E+02 -0.56441716001E+01  0.13624106935E+03  0.12509000000E+03 0.  0.
         25    1    3    3    0    0  0.30455021404E+02  0.25017244065E+02 -0.15816807615E+03  0.20547023931E+03  0.12509000000E+03 0.  0.
         25    1    4    4    0    0  0.13695978111E+02  0.55270425835E+01  0.38130849411E+02  0.13160394292E+03  0.12509000000E+03 0.  0.
<mgrwt>
<rscale>  2 0.45632391E+03</rscale>
<asrwt>0</asrwt>
<pdfrwt beam="1">  1       21 0.25561313E-01 0.45632391E+03</pdfrwt>
<pdfrwt beam="2">  1       21 0.44043871E-01 0.45632391E+03</pdfrwt>
<totfact> 0.66488859E+04</totfact>
</mgrwt>
</event>
<event>
 7    0  0.4775379E-002  0.4527192E+03  0.7546771E-02  0.1026914E+00
         21   -1    0    0  502  501  0.00000000000E+00  0.00000000000E+00  0.27174767882E+03  0.27174767882E+03  0.00000000000E+00 0.  1.
         21   -1    0    0  501  502 -0.00000000000E+00 -0.00000000000E+00 -0.18855240030E+03  0.18855240030E+03  0.00000000000E+00 0.  1.
      99926    2    1    2    0    0  0.00000000000E+00  0.00000000000E+00  0.83195278522E+02  0.46030007913E+03  0.45271923802E+03 0.  0.
      99925    2    3    3    0    0 -0.27976746425E+02  0.65877952040E+02 -0.33787108180E+02  0.27467952584E+03  0.26302978981E+03 0.  0.
         25    1    4    4    0    0  0.11389264273E+02 -0.37533700248E+00 -0.12663783328E+02  0.12624474534E+03  0.12509000000E+03 0.  0.
         25    1    4    4    0    0 -0.39366010698E+02  0.66253289043E+02 -0.21123324852E+02  0.14843478049E+03  0.12509000000E+03 0.  0.
         25    1    3    3    0    0  0.27976746425E+02 -0.65877952040E+02  0.11698238670E+03  0.18562055329E+03  0.12509000000E+03 0.  0.
<mgrwt>
<rscale>  2 0.45271924E+03</rscale>
<asrwt>0</asrwt>
<pdfrwt beam="1">  1       21 0.39962894E-01 0.45271924E+03</pdfrwt>
<pdfrwt beam="2">  1       21 0.27728294E-01 0.45271924E+03</pdfrwt>
<totfact> 0.69410385E+04</totfact>
</mgrwt>
</event>
<event>
 7    0  0.4775379E-002  0.4470162E+03  0.7546771E-02  0.1028616E+00
         21   -1    0    0  502  501  0.00000000000E+00  0.00000000000E+00  0.11266134730E+04  0.11266134730E+04  0.00000000000E+00 0.  1.
         21   -1    0    0  501  502 -0.00000000000E+00 -0.00000000000E+00 -0.44341615721E+02  0.44341615721E+02  0.00000000000E+00 0.  1.
      99926    2    1    2    0    0 -0.14210854715E-13  0.71054273576E-14  0.10822718573E+04  0.11709550887E+04  0.44701615938E+03 0.  0.
      99925    2    3    3    0    0 -0.84957347170E+02  0.62519411512E+02  0.68117434125E+03  0.73776557694E+03  0.26300786240E+03 0.  0.
         25    1    3    3    0    0  0.84957347170E+02 -0.62519411512E+02  0.40109751605E+03  0.43318951180E+03  0.12509000000E+03 0.  0.
         25    1    4    4    0    0 -0.66410738367E+02  0.66582226652E+02  0.35826954396E+03  0.39095799429E+03  0.12509000000E+03 0.  0.
         25    1    4    4    0    0 -0.18546608803E+02 -0.40628151405E+01  0.32290479730E+03  0.34680758265E+03  0.12509000000E+03 0.  0.
<mgrwt>
<rscale>  2 0.44701616E+03</rscale>
<asrwt>0</asrwt>
<pdfrwt beam="1">  1       21 0.16567843E+00 0.44701616E+03</pdfrwt>
<pdfrwt beam="2">  1       21 0.65208266E-02 0.44701616E+03</pdfrwt>
<totfact> 0.35231656E+04</totfact>
</mgrwt>
</event>
<event>
 7    0  0.4775379E-002  0.4600591E+03  0.7546771E-02  0.1024764E+00
         21   -1    0    0  502  501  0.00000000000E+00  0.00000000000E+00  0.59745360576E+03  0.59745360576E+03  0.00000000000E+00 0.  1.
         21   -1    0    0  501  502 -0.00000000000E+00 -0.00000000000E+00 -0.88565192773E+02  0.88565192773E+02  0.00000000000E+00 0.  1.
      99926    2    1    2    0    0  0.00000000000E+00  0.00000000000E+00  0.50888841298E+03  0.68601879853E+03  0.46005909954E+03 0.  0.
      99925    2    3    3    0    0 -0.61486161055E+02 -0.36189890259E+02  0.45870720146E+03  0.53351988625E+03  0.26294660330E+03 0.  0.
         25    1    3    3    0    0  0.61486161055E+02  0.36189890259E+02  0.50181211520E+02  0.15249891228E+03  0.12509000000E+03 0.  0.
         25    1    4    4    0    0 -0.20823035350E+02  0.11619538212E+02  0.16732945033E+03  0.21027426261E+03  0.12509000000E+03 0.  0.
         25    1    4    4    0    0 -0.40663125705E+02 -0.47809428471E+02  0.29137775114E+03  0.32324562364E+03  0.12509000000E+03 0.  0.
<mgrwt>
<rscale>  2 0.46005910E+03</rscale>
<asrwt>0</asrwt>
<pdfrwt beam="1">  1       21 0.87860823E-01 0.46005910E+03</pdfrwt>
<pdfrwt beam="2">  1       21 0.13024293E-01 0.46005910E+03</pdfrwt>
<totfact> 0.51582808E+04</totfact>
</mgrwt>
</event>
<event>
 7    0  0.4775379E-002  0.4520095E+03  0.7546771E-02  0.1027124E+00
         21   -1    0    0  502  501  0.00000000000E+00  0.00000000000E+00  0.49010685089E+03  0.49010685089E+03  0.00000000000E+00 0. -1.
         21   -1    0    0  501  502 -0.00000000000E+00 -0.00000000000E+00 -0.10421838074E+03  0.10421838074E+03  0.00000000000E+00 0. -1.
      99926    2    1    2    0    0  0.00000000000E+00 -0.17763568394E-14  0.38588847015E+03  0.59432523163E+03  0.45200947949E+03 0.  0.
      99925    2    3    3    0    0  0.69740986015E+02  0.13109158678E+02  0.13240707056E+03  0.30288744545E+03  0.26300858752E+03 0.  0.
         25    1    3    3    0    0 -0.69740986015E+02 -0.13109158678E+02  0.25348139959E+03  0.29143778617E+03  0.12509000000E+03 0.  0.
         25    1    4    4    0    0  0.71422526854E+02  0.25940732935E+02  0.78228086209E+02  0.16595553784E+03  0.12509000000E+03 0.  0.
         25    1    4    4    0    0 -0.16815408386E+01 -0.12831574257E+02  0.54178984355E+02  0.13693190762E+03  0.12509000000E+03 0.  0.
<mgrwt>
<rscale>  2 0.45200948E+03</rscale>
<asrwt>0</asrwt>
<pdfrwt beam="1">  1       21 0.72074536E-01 0.45200948E+03</pdfrwt>
<pdfrwt beam="2">  1       21 0.15326233E-01 0.45200948E+03</pdfrwt>
<totfact> 0.60444771E+04</totfact>
</mgrwt>
</event>
<event>
 7    0  0.4775379E-002  0.4481055E+03  0.7546771E-02  0.1028288E+00
         21   -1    0    0  502  501  0.00000000000E+00  0.00000000000E+00  0.92256534466E+03  0.92256534466E+03  0.00000000000E+00 0. -1.
         21   -1    0    0  501  502 -0.00000000000E+00 -0.00000000000E+00 -0.54413104725E+02  0.54413104725E+02  0.00000000000E+00 0. -1.
      99926    2    1    2    0    0 -0.17763568394E-14  0.00000000000E+00  0.86815223994E+03  0.97697844939E+03  0.44810554433E+03 0.  0.
      99925    2    3    3    0    0  0.87595531903E+01  0.29446601609E+02  0.77229761562E+03  0.81641864987E+03  0.26296762661E+03 0.  0.
         25    1    4    4    0    0 -0.25422379641E+02  0.30053195851E+02  0.45841745438E+03  0.47680558150E+03  0.12509000000E+03 0.  0.
         25    1    3    3    0    0 -0.87595531903E+01 -0.29446601609E+02  0.95854624318E+02  0.16055979952E+03  0.12509000000E+03 0.  0.
         25    1    4    4    0    0  0.34181932831E+02 -0.60659424199E+00  0.31388016124E+03  0.33961306837E+03  0.12509000000E+03 0.  0.
<mgrwt>
<rscale>  2 0.44810554E+03</rscale>
<asrwt>0</asrwt>
<pdfrwt beam="1">  1       21 0.13567136E+00 0.44810554E+03</pdfrwt>
<pdfrwt beam="2">  1       21 0.80019277E-02 0.44810554E+03</pdfrwt>
<totfact> 0.42301416E+04</totfact>
</mgrwt>
</event>
<event>
 7    0  0.4775379E-002  0.4565622E+03  0.7546771E-02  0.1025783E+00
         21   -1    0    0  502  501  0.00000000000E+00  0.00000000000E+00  0.48652725958E+03  0.48652725958E+03  0.00000000000E+00 0.  1.
         21   -1    0    0  501  502 -0.00000000000E+00 -0.00000000000E+00 -0.10711065090E+03  0.10711065090E+03  0.00000000000E+00 0.  1.
      99926    2    1    2    0    0 -0.71054273576E-14  0.00000000000E+00  0.37941660868E+03  0.59363791048E+03  0.45656215987E+03 0.  0.
      99925    2    3    3    0    0  0.54030173201E+02  0.10098463867E+03  0.24255270447E+03  0.37570123794E+03  0.26306358334E+03 0.  0.
         25    1    4    4    0    0  0.56111983862E+02  0.31689680349E+02  0.92405769372E+02  0.16834228490E+03  0.12509000000E+03 0.  0.
         25    1    4    4    0    0 -0.20818106605E+01  0.69294958325E+02  0.15014693510E+03  0.20735895304E+03  0.12509000000E+03 0.  0.
         25    1    3    3    0    0 -0.54030173201E+02 -0.10098463867E+03  0.13686390420E+03  0.21793667254E+03  0.12509000000E+03 0.  0.
<mgrwt>
<rscale>  2 0.45656216E+03</rscale>
<asrwt>0</asrwt>
<pdfrwt beam="1">  1       21 0.71548125E-01 0.45656216E+03</pdfrwt>
<pdfrwt beam="2">  1       21 0.15751567E-01 0.45656216E+03</pdfrwt>
<totfact> 0.58347918E+04</totfact>
</mgrwt>
</event>
<event>
 7    0  0.4775379E-002  0.4522032E+03  0.7546771E-02  0.1027067E+00
         21   -1    0    0  502  501  0.00000000000E+00  0.00000000000E+00  0.77290435743E+02  0.77290435743E+02  0.00000000000E+00 0.  1.
         21   -1    0    0  501  502 -0.00000000000E+00 -0.00000000000E+00 -0.66142641686E+03  0.66142641686E+03  0.00000000000E+00 0.  1.
      99926    2    1    2    0    0 -0.14210854715E-13 -0.14210854715E-13 -0.58413598111E+03  0.73871685260E+03  0.45220321083E+03 0.  0.
      99925    2    3    3    0    0  0.83606961069E+02  0.68793082655E+02 -0.33200148095E+03  0.43715106138E+03  0.26297044502E+03 0.  0.
         25    1    4    4    0    0  0.41684121884E+02  0.67581475722E-01 -0.19171716081E+03  0.23268121633E+03  0.12509000000E+03 0.  0.
         25    1    3    3    0    0 -0.83606961069E+02 -0.68793082655E+02 -0.25213450016E+03  0.30156579122E+03  0.12509000000E+03 0.  0.
         25    1    4    4    0    0  0.41922839185E+02  0.68725501179E+02 -0.14028432014E+03  0.20446984505E+03  0.12509000000E+03 0.  0.
<mgrwt>
<rscale>  2 0.45220321E+03</rscale>
<asrwt>0</asrwt>
<pdfrwt beam="1">  1       21 0.11366241E-01 0.45220321E+03</pdfrwt>
<pdfrwt beam="2">  1       21 0.97268590E-01 0.45220321E+03</pdfrwt>
<totfact> 0.51984404E+04</totfact>
</mgrwt>
</event>
<event>
 7    0  0.4775379E-002  0.4537130E+03  0.7546771E-02  0.1026621E+00
         21   -1    0    0  502  501  0.00000000000E+00  0.00000000000E+00  0.87453533902E+03  0.87453533902E+03  0.00000000000E+00 0.  1.
         21   -1    0    0  501  502 -0.00000000000E+00 -0.00000000000E+00 -0.58847105993E+02  0.58847105993E+02  0.00000000000E+00 0.  1.
      99926    2    1    2    0    0 -0.35527136788E-14  0.00000000000E+00  0.81568823303E+03  0.93338244501E+03  0.45371300969E+03 0.  0.
      99925    2    3    3    0    0 -0.21705539996E+02 -0.10429282253E+03  0.58392952051E+03  0.64929138175E+03  0.26316817853E+03 0.  0.
         25    1    4    4    0    0 -0.50384363789E+02 -0.41990534142E+02  0.29328762621E+03  0.32552561936E+03  0.12509000000E+03 0.  0.
         25    1    4    4    0    0  0.28678823793E+02 -0.62302288392E+02  0.29064189430E+03  0.32376576239E+03  0.12509000000E+03 0.  0.
         25    1    3    3    0    0  0.21705539996E+02  0.10429282253E+03  0.23175871252E+03  0.28409106326E+03  0.12509000000E+03 0.  0.
<mgrwt>
<rscale>  2 0.45371301E+03</rscale>
<asrwt>0</asrwt>
<pdfrwt beam="1">  1       21 0.12860813E+00 0.45371301E+03</pdfrwt>
<pdfrwt beam="2">  1       21 0.86539867E-02 0.45371301E+03</pdfrwt>
<totfact> 0.42244767E+04</totfact>
</mgrwt>
</event>
<event>
 6    0  0.4775379E-002  0.4563190E+03  0.7546771E-02  0.1025854E+00
         21   -1    0    0  502  501  0.00000000000E+00  0.00000000000E+00  0.37091391741E+03  0.37091391741E+03  0.00000000000E+00 0.  1.
         21   -1    0    0  501  502 -0.00000000000E+00 -0.00000000000E+00 -0.14034725538E+03  0.14034725538E+03  0.00000000000E+00 0.  1.
      99926    2    1    2    0    0 -0.88817841970E-15 -0.14210854715E-13  0.23056666203E+03  0.51126117279E+03  0.45631896867E+03 0.  0.
         25    1    3    3    0    0 -0.11951206642E+02 -0.10171564893E+03  0.71352340233E+02  0.17671323984E+03  0.12509000000E+03 0.  0.
         25    1    3    3    0    0  0.59376322599E+01  0.10955854328E+03  0.69636888453E+02  0.18037498224E+03  0.12509000000E+03 0.  0.
         25    1    3    3    0    0  0.60135743820E+01 -0.78428943587E+01  0.89577433346E+02  0.15417295072E+03  0.12509000000E+03 0.  0.
<mgrwt>
<rscale>  2 0.45631897E+03</rscale>
<asrwt>0</asrwt>
<pdfrwt beam="1">  1       21 0.54546164E-01 0.45631897E+03</pdfrwt>
<pdfrwt beam="2">  1       21 0.20639302E-01 0.45631897E+03</pdfrwt>
<totfact> 0.63815932E+04</totfact>
</mgrwt>
</event>
<event>
 7    0  0.4775379E-002  0.4549769E+03  0.7546771E-02  0.1026248E+00
         21   -1    0    0  502  501  0.00000000000E+00  0.00000000000E+00  0.20453886696E+03  0.20453886696E+03  0.00000000000E+00 0.  1.
         21   -1    0    0  501  502 -0.00000000000E+00 -0.00000000000E+00 -0.25301299715E+03  0.25301299715E+03  0.00000000000E+00 0.  1.
      99926    2    1    2    0    0 -0.14210854715E-13  0.00000000000E+00 -0.48474130190E+02  0.45755186411E+03  0.45497688628E+03 0.  0.
      99925    2    3    3    0    0 -0.70321788800E+02  0.45984203383E+02 -0.10695340718E+03  0.29591327070E+03  0.26280397929E+03 0.  0.
         25    1    3    3    0    0  0.70321788800E+02 -0.45984203383E+02  0.58479276991E+02  0.16163859341E+03  0.12509000000E+03 0.  0.
         25    1    4    4    0    0 -0.59311706432E+01  0.43232519870E+02 -0.31223520596E+02  0.13611262211E+03  0.12509000000E+03 0.  0.
         25    1    4    4    0    0 -0.64390618156E+02  0.27516835131E+01 -0.75729886585E+02  0.15980064859E+03  0.12509000000E+03 0.  0.
<mgrwt>
<rscale>  2 0.45497689E+03</rscale>
<asrwt>0</asrwt>
<pdfrwt beam="1">  1       21 0.30079245E-01 0.45497689E+03</pdfrwt>
<pdfrwt beam="2">  1       21 0.37207793E-01 0.45497689E+03</pdfrwt>
<totfact> 0.68371820E+04</totfact>
</mgrwt>
</event>
<event>
 7    0  0.4775379E-002  0.4531664E+03  0.7546771E-02  0.1026782E+00
         21   -1    0    0  502  501  0.00000000000E+00  0.00000000000E+00  0.91638485673E+02  0.91638485673E+02  0.00000000000E+00 0.  1.
         21   -1    0    0  501  502 -0.00000000000E+00 -0.00000000000E+00 -0.56024425674E+03  0.56024425674E+03  0.00000000000E+00 0.  1.
      99926    2    1    2    0    0 -0.14210854715E-13  0.71054273576E-14 -0.46860577107E+03  0.65188274241E+03  0.45316635045E+03 0.  0.
      99925    2    3    3    0    0  0.91518176294E+02 -0.54262494389E+02 -0.34356246228E+03  0.44547699622E+03  0.26285850525E+03 0.  0.
         25    1    4    4    0    0  0.46399431915E+02 -0.67545067862E+02 -0.16969803446E+03  0.22618615005E+03  0.12509000000E+03 0.  0.
         25    1    4    4    0    0  0.45118744380E+02  0.13282573473E+02 -0.17386442782E+03  0.21929084617E+03  0.12509000000E+03 0.  0.
         25    1    3    3    0    0 -0.91518176294E+02  0.54262494389E+02 -0.12504330879E+03  0.20640574620E+03  0.12509000000E+03 0.  0.
<mgrwt>
<rscale>  2 0.45316635E+03</rscale>
<asrwt>0</asrwt>
<pdfrwt beam="1">  1       21 0.13476248E-01 0.45316635E+03</pdfrwt>
<pdfrwt beam="2">  1       21 0.82388861E-01 0.45316635E+03</pdfrwt>
<totfact> 0.56404602E+04</totfact>
</mgrwt>
</event>
<event>
 7    0  0.4775379E-002  0.4562241E+03  0.7546771E-02  0.1025882E+00
         21   -1    0    0  502  501  0.00000000000E+00  0.00000000000E+00  0.27558896523E+03  0.27558896523E+03  0.00000000000E+00 0. -1.
         21   -1    0    0  501  502 -0.00000000000E+00 -0.00000000000E+00 -0.18881418165E+03  0.18881418165E+03  0.00000000000E+00 0. -1.
      99926    2    1    2    0    0  0.00000000000E+00  0.00000000000E+00  0.86774783577E+02  0.46440314688E+03  0.45622408942E+03 0.  0.
      99925    2    3    3    0    0 -0.88630475430E+01 -0.45439269916E+02  0.16066518010E+03  0.31192173929E+03  0.26332221798E+03 0.  0.
         25    1    4    4    0    0 -0.38780103976E+02 -0.13870574657E+01  0.87755361522E+02  0.15765256728E+03  0.12509000000E+03 0.  0.
         25    1    4    4    0    0  0.29917056433E+02 -0.44052212450E+02  0.72909818582E+02  0.15426917201E+03  0.12509000000E+03 0.  0.
         25    1    3    3    0    0  0.88630475430E+01  0.45439269916E+02 -0.73890396527E+02  0.15248140759E+03  0.12509000000E+03 0.  0.
<mgrwt>
<rscale>  2 0.45622409E+03</rscale>
<asrwt>0</asrwt>
<pdfrwt beam="1">  1       21 0.40527789E-01 0.45622409E+03</pdfrwt>
<pdfrwt beam="2">  1       21 0.27766791E-01 0.45622409E+03</pdfrwt>
<totfact> 0.67198239E+04</totfact>
</mgrwt>
</event>
<event>
 7    0  0.4775379E-002  0.4744536E+03  0.7546771E-02  0.1020671E+00
         21   -1    0    0  502  501  0.00000000000E+00  0.00000000000E+00  0.93508296288E+02  0.93508296288E+02  0.00000000000E+00 0. -1.
         21   -1    0    0  501  502 -0.00000000000E+00 -0.00000000000E+00 -0.60183500399E+03  0.60183500399E+03  0.00000000000E+00 0. -1.
      99926    2    1    2    0    0  0.00000000000E+00  0.00000000000E+00 -0.50832670770E+03  0.69534330028E+03  0.47445364735E+03 0.  0.
      99925    2    3    3    0    0 -0.79020662012E+02  0.99721122198E+02 -0.27172848669E+03  0.39900769067E+03  0.26302509290E+03 0.  0.
         25    1    3    3    0    0  0.79020662012E+02 -0.99721122198E+02 -0.23659822101E+03  0.29633560961E+03  0.12509000000E+03 0.  0.
         25    1    4    4    0    0 -0.35880262882E+02  0.13408098923E+02 -0.93267694178E+02  0.16066593061E+03  0.12509000000E+03 0.  0.
         25    1    4    4    0    0 -0.43140399131E+02  0.86313023275E+02 -0.17846079251E+03  0.23834176006E+03  0.12509000000E+03 0.  0.
<mgrwt>
<rscale>  2 0.47445365E+03</rscale>
<asrwt>0</asrwt>
<pdfrwt beam="1">  1       21 0.13751220E-01 0.47445365E+03</pdfrwt>
<pdfrwt beam="2">  1       21 0.88505149E-01 0.47445365E+03</pdfrwt>
<totfact> 0.45735855E+04</totfact>
</mgrwt>
</event>
<event>
 7    0  0.4775379E-002  0.4477173E+03  0.7546771E-02  0.1028405E+00
         21   -1    0    0  502  501  0.00000000000E+00  0.00000000000E+00  0.16663905137E+03  0.16663905137E+03  0.00000000000E+00 0. -1.
         21   -1    0    0  501  502 -0.00000000000E+00 -0.00000000000E+00 -0.30072599499E+03  0.30072599499E+03  0.00000000000E+00 0. -1.
      99926    2    1    2    0    0  0.00000000000E+00  0.14210854715E-13 -0.13408694363E+03  0.46736504636E+03  0.44771729708E+03 0.  0.
      99925    2    3    3    0    0 -0.36923041247E+02 -0.97893006029E+02 -0.10418530739E+03  0.30157009000E+03  0.26295168625E+03 0.  0.
         25    1    4    4    0    0  0.11671358278E+02 -0.72172558863E+02 -0.68963437052E+02  0.16046358655E+03  0.12509000000E+03 0.  0.
         25    1    3    3    0    0  0.36923041247E+02  0.97893006029E+02 -0.29901636234E+02  0.16579495636E+03  0.12509000000E+03 0.  0.
         25    1    4    4    0    0 -0.48594399525E+02 -0.25720447166E+02 -0.35221870340E+02  0.14110650346E+03  0.12509000000E+03 0.  0.
<mgrwt>
<rscale>  2 0.44771730E+03</rscale>
<asrwt>0</asrwt>
<pdfrwt beam="1">  1       21 0.24505743E-01 0.44771730E+03</pdfrwt>
<pdfrwt beam="2">  1       21 0.44224411E-01 0.44771730E+03</pdfrwt>
<totfact> 0.71685588E+04</totfact>
</mgrwt>
</event>
<event>
 7    0  0.4775379E-002  0.4584508E+03  0.7546771E-02  0.1025231E+00
         21   -1    0    0  502  501  0.00000000000E+00  0.00000000000E+00  0.49899283934E+03  0.49899283934E+03  0.00000000000E+00 0.  1.
         21   -1    0    0  501  502 -0.00000000000E+00 -0.00000000000E+00 -0.10530066282E+03  0.10530066282E+03  0.00000000000E+00 0.  1.
      99926    2    1    2    0    0  0.71054273576E-14  0.14210854715E-13  0.39369217653E+03  0.60429350216E+03  0.45845076823E+03 0.  0.
      99925    2    3    3    0    0 -0.48718021909E+02 -0.98672738463E+02  0.29658939504E+03  0.41145623075E+03  0.26309923145E+03 0.  0.
         25    1    3    3    0    0  0.48718021909E+02  0.98672738463E+02  0.97102781482E+02  0.19283727141E+03  0.12509000000E+03 0.  0.
         25    1    4    4    0    0  0.13650999244E+02 -0.60007833390E+02  0.13045784151E+03  0.19092942770E+03  0.12509000000E+03 0.  0.
         25    1    4    4    0    0 -0.62369021153E+02 -0.38664905074E+02  0.16613155353E+03  0.22052680305E+03  0.12509000000E+03 0.  0.
<mgrwt>
<rscale>  2 0.45845077E+03</rscale>
<asrwt>0</asrwt>
<pdfrwt beam="1">  1       21 0.73381299E-01 0.45845077E+03</pdfrwt>
<pdfrwt beam="2">  1       21 0.15485392E-01 0.45845077E+03</pdfrwt>
<totfact> 0.56848999E+04</totfact>
</mgrwt>
</event>
<event>
 7    0  0.4775379E-002  0.4631351E+03  0.7546771E-02  0.1023876E+00
         21   -1    0    0  502  501  0.00000000000E+00  0.00000000000E+00  0.48815809398E+03  0.48815809398E+03  0.00000000000E+00 0. -1.
         21   -1    0    0  501  502 -0.00000000000E+00 -0.00000000000E+00 -0.10984870308E+03  0.10984870308E+03  0.00000000000E+00 0. -1.
      99926    2    1    2    0    0  0.35527136788E-14  0.00000000000E+00  0.37830939090E+03  0.59800679706E+03  0.46313511429E+03 0.  0.
      99925    2    3    3    0    0  0.27230413998E+02 -0.32419366416E+02  0.38227344796E+03  0.46588665244E+03  0.26291609525E+03 0.  0.
         25    1    3    3    0    0 -0.27230413998E+02  0.32419366416E+02 -0.39640570591E+01  0.13212014462E+03  0.12509000000E+03 0.  0.
         25    1    4    4    0    0 -0.26922489897E+02 -0.15923657260E+02  0.18025196412E+03  0.22162279213E+03  0.12509000000E+03 0.  0.
         25    1    4    4    0    0  0.54152903895E+02 -0.16495709156E+02  0.20202148384E+03  0.24426386031E+03  0.12509000000E+03 0.  0.
<mgrwt>
<rscale>  2 0.46313511E+03</rscale>
<asrwt>0</asrwt>
<pdfrwt beam="1">  1       21 0.71787954E-01 0.46313511E+03</pdfrwt>
<pdfrwt beam="2">  1       21 0.16154221E-01 0.46313511E+03</pdfrwt>
<totfact> 0.55168238E+04</totfact>
</mgrwt>
</event>
<event>
 7    0  0.4775379E-002  0.4453355E+03  0.7546771E-02  0.1029122E+00
         21   -1    0    0  502  501  0.00000000000E+00  0.00000000000E+00  0.15185547854E+02  0.15185547854E+02  0.00000000000E+00 0.  1.
         21   -1    0    0  501  502 -0.00000000000E+00 -0.00000000000E+00 -0.32650075518E+04  0.32650075518E+04  0.00000000000E+00 0.  1.
      99926    2    1    2    0    0 -0.14210854715E-13  0.00000000000E+00 -0.32498220039E+04  0.32801930996E+04  0.44533550687E+03 0.  0.
      99925    2    3    3    0    0 -0.94130284750E+02 -0.38611024594E+02 -0.19140239138E+04  0.19346986302E+04  0.26309679811E+03 0.  0.
         25    1    4    4    0    0 -0.14118272404E+02 -0.91102294465E+01 -0.10439332332E+04  0.10515352706E+04  0.12509000000E+03 0.  0.
         25    1    4    4    0    0 -0.80012012346E+02 -0.29500795148E+02 -0.87009068062E+03  0.88316335954E+03  0.12509000000E+03 0.  0.
         25    1    3    3    0    0  0.94130284750E+02  0.38611024594E+02 -0.13357980901E+04  0.13454944695E+04  0.12509000000E+03 0.  0.
<mgrwt>
<rscale>  2 0.44533551E+03</rscale>
<asrwt>0</asrwt>
<pdfrwt beam="1">  1       21 0.22331707E-02 0.44533551E+03</pdfrwt>
<pdfrwt beam="2">  1       21 0.48014776E+00 0.44533551E+03</pdfrwt>
<totfact> 0.21210054E+03</totfact>
</mgrwt>
</event>
<event>
 7    0  0.4775379E-002  0.4527839E+03  0.7546771E-02  0.1026895E+00
         21   -1    0    0  502  501  0.00000000000E+00  0.00000000000E+00  0.86152131929E+02  0.86152131929E+02  0.00000000000E+00 0. -1.
         21   -1    0    0  501  502 -0.00000000000E+00 -0.00000000000E+00 -0.59491642290E+03  0.59491642290E+03  0.00000000000E+00 0. -1.
      99926    2    1    2    0    0  0.00000000000E+00  0.00000000000E+00 -0.50876429097E+03  0.68106855483E+03  0.45278391382E+03 0.  0.
      99925    2    3    3    0    0  0.67056554552E+02 -0.74583933548E+02 -0.39239171999E+03  0.48295387080E+03  0.26308522336E+03 0.  0.
         25    1    3    3    0    0 -0.67056554552E+02  0.74583933548E+02 -0.11637257098E+03  0.19811468403E+03  0.12509000000E+03 0.  0.
         25    1    4    4    0    0  0.20796564102E+01 -0.87491165796E+01 -0.15999593023E+03  0.20329062399E+03  0.12509000000E+03 0.  0.
         25    1    4    4    0    0  0.64976898142E+02 -0.65834816969E+02 -0.23239578976E+03  0.27966324681E+03  0.12509000000E+03 0.  0.
<mgrwt>
<rscale>  2 0.45278391E+03</rscale>
<asrwt>0</asrwt>
<pdfrwt beam="1">  1       21 0.12669432E-01 0.45278391E+03</pdfrwt>
<pdfrwt beam="2">  1       21 0.87487705E-01 0.45278391E+03</pdfrwt>
<totfact> 0.54894911E+04</totfact>
</mgrwt>
</event>
<event>
 7    0  0.4775379E-002  0.4556070E+03  0.7546771E-02  0.1026063E+00
         21   -1    0    0  502  501  0.00000000000E+00  0.00000000000E+00  0.10344041434E+04  0.10344041434E+04  0.00000000000E+00 0. -1.
         21   -1    0    0  501  502 -0.00000000000E+00 -0.00000000000E+00 -0.50168440303E+02  0.50168440303E+02  0.00000000000E+00 0. -1.
      99926    2    1    2    0    0 -0.71054273576E-14  0.14210854715E-13  0.98423570307E+03  0.10845725837E+04  0.45560703470E+03 0.  0.
      99925    2    3    3    0    0  0.52015595907E+02 -0.10026640635E+03  0.65151488252E+03  0.71159855376E+03  0.26294844575E+03 0.  0.
         25    1    4    4    0    0  0.50085051737E+01 -0.62313030006E+02  0.40731114623E+03  0.43064820536E+03  0.12509000000E+03 0.  0.
         25    1    4    4    0    0  0.47007090733E+02 -0.37953376339E+02  0.24420373629E+03  0.28095034841E+03  0.12509000000E+03 0.  0.
         25    1    3    3    0    0 -0.52015595907E+02  0.10026640635E+03  0.33272082055E+03  0.37297402991E+03  0.12509000000E+03 0.  0.
<mgrwt>
<rscale>  2 0.45560703E+03</rscale>
<asrwt>0</asrwt>
<pdfrwt beam="1">  1       21 0.15211824E+00 0.45560703E+03</pdfrwt>
<pdfrwt beam="2">  1       21 0.73777125E-02 0.45560703E+03</pdfrwt>
<totfact> 0.35863637E+04</totfact>
</mgrwt>
</event>
<event>
 7    0  0.4775379E-002  0.4672384E+03  0.7546771E-02  0.1022703E+00
         21   -1    0    0  502  501  0.00000000000E+00  0.00000000000E+00  0.86216244624E+03  0.86216244624E+03  0.00000000000E+00 0.  1.
         21   -1    0    0  501  502 -0.00000000000E+00 -0.00000000000E+00 -0.63303536978E+02  0.63303536978E+02  0.00000000000E+00 0.  1.
      99926    2    1    2    0    0  0.00000000000E+00  0.00000000000E+00  0.79885890927E+03  0.92546598322E+03  0.46723840723E+03 0.  0.
      99925    2    3    3    0    0  0.30588803547E+02  0.91518189790E+02  0.34170079512E+03  0.44177982114E+03  0.26286635960E+03 0.  0.
         25    1    3    3    0    0 -0.30588803547E+02 -0.91518189790E+02  0.45715811414E+03  0.48368616208E+03  0.12509000000E+03 0.  0.
         25    1    4    4    0    0  0.34797960259E+02  0.21088335905E+02  0.12267214353E+03  0.17986544651E+03  0.12509000000E+03 0.  0.
         25    1    4    4    0    0 -0.42091567122E+01  0.70429853884E+02  0.21902865160E+03  0.26191437463E+03  0.12509000000E+03 0.  0.
<mgrwt>
<rscale>  2 0.46723841E+03</rscale>
<asrwt>0</asrwt>
<pdfrwt beam="1">  1       21 0.12678859E+00 0.46723841E+03</pdfrwt>
<pdfrwt beam="2">  1       21 0.93093442E-02 0.46723841E+03</pdfrwt>
<totfact> 0.38344083E+04</totfact>
</mgrwt>
</event>
<event>
 7    0  0.4775379E-002  0.4708970E+03  0.7546771E-02  0.1021667E+00
         21   -1    0    0  502  501  0.00000000000E+00  0.00000000000E+00  0.11827474293E+03  0.11827474293E+03  0.00000000000E+00 0.  1.
         21   -1    0    0  501  502 -0.00000000000E+00 -0.00000000000E+00 -0.46870537417E+03  0.46870537417E+03  0.00000000000E+00 0.  1.
      99926    2    1    2    0    0 -0.88817841970E-15  0.00000000000E+00 -0.35043063124E+03  0.58698011710E+03  0.47089704880E+03 0.  0.
      99925    2    3    3    0    0  0.66212428134E+01 -0.39023046634E+02 -0.36861109276E+03  0.45452379862E+03  0.26296598028E+03 0.  0.
         25    1    4    4    0    0  0.10081104606E+02 -0.22228088946E+02 -0.25318935469E+03  0.28345735841E+03  0.12509000000E+03 0.  0.
         25    1    4    4    0    0 -0.34598617927E+01 -0.16794957689E+02 -0.11542173807E+03  0.17106644021E+03  0.12509000000E+03 0.  0.
         25    1    3    3    0    0 -0.66212428134E+01  0.39023046634E+02  0.18180461521E+02  0.13245631848E+03  0.12509000000E+03 0.  0.
<mgrwt>
<rscale>  2 0.47089705E+03</rscale>
<asrwt>0</asrwt>
<pdfrwt beam="1">  1       21 0.17393345E-01 0.47089705E+03</pdfrwt>
<pdfrwt beam="2">  1       21 0.68927260E-01 0.47089705E+03</pdfrwt>
<totfact> 0.52563662E+04</totfact>
</mgrwt>
</event>
<event>
 7    0  0.4775379E-002  0.4535862E+03  0.7546771E-02  0.1026658E+00
         21   -1    0    0  502  501  0.00000000000E+00  0.00000000000E+00  0.68208398745E+02  0.68208398745E+02  0.00000000000E+00 0. -1.
         21   -1    0    0  501  502 -0.00000000000E+00 -0.00000000000E+00 -0.75408764743E+03  0.75408764743E+03  0.00000000000E+00 0. -1.
      99926    2    1    2    0    0  0.00000000000E+00  0.00000000000E+00 -0.68587924869E+03  0.82229604618E+03  0.45358620325E+03 0.  0.
      99925    2    3    3    0    0 -0.52926114984E+02  0.84159273328E+02 -0.52515997045E+03  0.59566385201E+03  0.26294195766E+03 0.  0.
         25    1    4    4    0    0 -0.79148549512E+01  0.12756125493E+02 -0.18845739723E+03  0.22669155771E+03  0.12509000000E+03 0.  0.
         25    1    4    4    0    0 -0.45011260032E+02  0.71403147835E+02 -0.33670257322E+03  0.36897229430E+03  0.12509000000E+03 0.  0.
         25    1    3    3    0    0  0.52926114984E+02 -0.84159273328E+02 -0.16071927824E+03  0.22663219416E+03  0.12509000000E+03 0.  0.
<mgrwt>
<rscale>  2 0.45358620E+03</rscale>
<asrwt>0</asrwt>
<pdfrwt beam="1">  1       21 0.10030647E-01 0.45358620E+03</pdfrwt>
<pdfrwt beam="2">  1       21 0.11089524E+00 0.45358620E+03</pdfrwt>
<totfact> 0.47226951E+04</totfact>
</mgrwt>
</event>
<event>
 7    0  0.4775379E-002  0.4499671E+03  0.7546771E-02  0.1027732E+00
         21   -1    0    0  502  501  0.00000000000E+00  0.00000000000E+00  0.67575417220E+02  0.67575417220E+02  0.00000000000E+00 0.  1.
         21   -1    0    0  501  502 -0.00000000000E+00 -0.00000000000E+00 -0.74905327205E+03  0.74905327205E+03  0.00000000000E+00 0.  1.
      99926    2    1    2    0    0  0.00000000000E+00  0.00000000000E+00 -0.68147785483E+03  0.81662868927E+03  0.44996705381E+03 0.  0.
      99925    2    3    3    0    0 -0.60831858552E+02 -0.58318037487E+02 -0.30708397584E+03  0.41299544827E+03  0.26298890388E+03 0.  0.
         25    1    3    3    0    0  0.60831858552E+02  0.58318037487E+02 -0.37439387899E+03  0.40363324100E+03  0.12509000000E+03 0.  0.
         25    1    4    4    0    0 -0.51397697552E+02 -0.15022265428E+01 -0.18354358486E+03  0.22799064815E+03  0.12509000000E+03 0.  0.
         25    1    4    4    0    0 -0.94341610000E+01 -0.56815810944E+02 -0.12354039098E+03  0.18500480013E+03  0.12509000000E+03 0.  0.
<mgrwt>
<rscale>  2 0.44996705E+03</rscale>
<asrwt>0</asrwt>
<pdfrwt beam="1">  1       21 0.99375609E-02 0.44996705E+03</pdfrwt>
<pdfrwt beam="2">  1       21 0.11015490E+00 0.44996705E+03</pdfrwt>
<totfact> 0.48872722E+04</totfact>
</mgrwt>
</event>
<event>
 7    0  0.4775379E-002  0.4586156E+03  0.7546771E-02  0.1025184E+00
         21   -1    0    0  502  501  0.00000000000E+00  0.00000000000E+00  0.57851704900E+03  0.57851704900E+03  0.00000000000E+00 0.  1.
         21   -1    0    0  501  502 -0.00000000000E+00 -0.00000000000E+00 -0.90891111479E+02  0.90891111479E+02  0.00000000000E+00 0.  1.
      99926    2    1    2    0    0  0.00000000000E+00  0.00000000000E+00  0.48762593752E+03  0.66940816048E+03  0.45861555836E+03 0.  0.
      99925    2    3    3    0    0  0.14185659708E+02  0.10798383599E+03  0.24472646534E+03  0.37528335115E+03  0.26283989240E+03 0.  0.
         25    1    4    4    0    0  0.12211275563E+02  0.43391490096E+02  0.17019700525E+03  0.21597792795E+03  0.12509000000E+03 0.  0.
         25    1    4    4    0    0  0.19743841447E+01  0.64592345896E+02  0.74529460090E+02  0.15930542320E+03  0.12509000000E+03 0.  0.
         25    1    3    3    0    0 -0.14185659708E+02 -0.10798383599E+03  0.24289947217E+03  0.29412480932E+03  0.12509000000E+03 0.  0.
<mgrwt>
<rscale>  2 0.45861556E+03</rscale>
<asrwt>0</asrwt>
<pdfrwt beam="1">  1       21 0.85076035E-01 0.45861556E+03</pdfrwt>
<pdfrwt beam="2">  1       21 0.13366340E-01 0.45861556E+03</pdfrwt>
<totfact> 0.53066802E+04</totfact>
</mgrwt>
</event>
<event>
 7    0  0.4775379E-002  0.4516814E+03  0.7546771E-02  0.1027222E+00
         21   -1    0    0  502  501  0.00000000000E+00  0.00000000000E+00  0.57424705539E+02  0.57424705539E+02  0.00000000000E+00 0. -1.
         21   -1    0    0  501  502 -0.00000000000E+00 -0.00000000000E+00 -0.88818970155E+03  0.88818970155E+03  0.00000000000E+00 0. -1.
      99926    2    1    2    0    0  0.17763568394E-14  0.00000000000E+00 -0.83076499602E+03  0.94561440709E+03  0.45168144560E+03 0.  0.
      99925    2    3    3    0    0 -0.91917128758E+01 -0.89853623613E+02 -0.39128200157E+03  0.47983444642E+03  0.26264297050E+03 0.  0.
         25    1    3    3    0    0  0.91917128758E+01  0.89853623613E+02 -0.43948299444E+03  0.46577996068E+03  0.12509000000E+03 0.  0.
         25    1    4    4    0    0 -0.30813140211E+02 -0.30878762408E+02 -0.23703170926E+03  0.27154094879E+03  0.12509000000E+03 0.  0.
         25    1    4    4    0    0  0.21621427335E+02 -0.58974861205E+02 -0.15425029232E+03  0.20829349763E+03  0.12509000000E+03 0.  0.
<mgrwt>
<rscale>  2 0.45168145E+03</rscale>
<asrwt>0</asrwt>
<pdfrwt beam="1">  1       21 0.84448102E-02 0.45168145E+03</pdfrwt>
<pdfrwt beam="2">  1       21 0.13061612E+00 0.45168145E+03</pdfrwt>
<totfact> 0.42408820E+04</totfact>
</mgrwt>
</event>
<event>
 7    0  0.4775379E-002  0.4530045E+03  0.7546771E-02  0.1026830E+00
         21   -1    0    0  502  501  0.00000000000E+00  0.00000000000E+00  0.18197303070E+03  0.18197303070E+03  0.00000000000E+00 0. -1.
         21   -1    0    0  501  502 -0.00000000000E+00 -0.00000000000E+00 -0.28192781089E+03  0.28192781089E+03  0.00000000000E+00 0. -1.
      99926    2    1    2    0    0  0.00000000000E+00  0.71054273576E-14 -0.99954780190E+02  0.46390084159E+03  0.45300445113E+03 0.  0.
      99925    2    3    3    0    0 -0.90351084134E+02  0.57874580587E+02 -0.33098048922E+02  0.28605226527E+03  0.26309244030E+03 0.  0.
         25    1    4    4    0    0 -0.87437161613E+02  0.38058002433E+02 -0.13646022467E+02  0.15788410563E+03  0.12509000000E+03 0.  0.
         25    1    4    4    0    0 -0.29139225215E+01  0.19816578154E+02 -0.19452026455E+02  0.12816815965E+03  0.12509000000E+03 0.  0.
         25    1    3    3    0    0  0.90351084134E+02 -0.57874580587E+02 -0.66856731267E+02  0.17784857632E+03  0.12509000000E+03 0.  0.
<mgrwt>
<rscale>  2 0.45300445E+03</rscale>
<asrwt>0</asrwt>
<pdfrwt beam="1">  1       21 0.26760740E-01 0.45300445E+03</pdfrwt>
<pdfrwt beam="2">  1       21 0.41459972E-01 0.45300445E+03</pdfrwt>
<totfact> 0.68977900E+04</totfact>
</mgrwt>
</event>
<event>
 7    0  0.4775379E-002  0.4550987E+03  0.7546771E-02  0.1026212E+00
         21   -1    0    0  502  501  0.00000000000E+00  0.00000000000E+00  0.18270779163E+03  0.18270779163E+03  0.00000000000E+00 0.  1.
         21   -1    0    0  501  502 -0.00000000000E+00 -0.00000000000E+00 -0.28339626946E+03  0.28339626946E+03  0.00000000000E+00 0.  1.
      99926    2    1    2    0    0  0.71054273576E-14  0.00000000000E+00 -0.10068847783E+03  0.46610406109E+03  0.45509869940E+03 0.  0.
      99925    2    3    3    0    0  0.52324143943E+02 -0.11740845468E+02 -0.16547239441E+03  0.31537208890E+03  0.26306420824E+03 0.  0.
         25    1    4    4    0    0  0.96315695647E+01  0.31476411931E+02 -0.83211333395E+02  0.15380235936E+03  0.12509000000E+03 0.  0.
         25    1    3    3    0    0 -0.52324143943E+02  0.11740845468E+02  0.64783916585E+02  0.15073197219E+03  0.12509000000E+03 0.  0.
         25    1    4    4    0    0  0.42692574379E+02 -0.43217257400E+02 -0.82261061017E+02  0.16156972954E+03  0.12509000000E+03 0.  0.
<mgrwt>
<rscale>  2 0.45509870E+03</rscale>
<asrwt>0</asrwt>
<pdfrwt beam="1">  1       21 0.26868793E-01 0.45509870E+03</pdfrwt>
<pdfrwt beam="2">  1       21 0.41675922E-01 0.45509870E+03</pdfrwt>
<totfact> 0.67674020E+04</totfact>
</mgrwt>
</event>
<event>
 7    0  0.4775379E-002  0.4593975E+03  0.7546771E-02  0.1024956E+00
         21   -1    0    0  502  501  0.00000000000E+00  0.00000000000E+00  0.93274927244E+03  0.93274927244E+03  0.00000000000E+00 0.  1.
         21   -1    0    0  501  502 -0.00000000000E+00 -0.00000000000E+00 -0.56565594644E+02  0.56565594644E+02  0.00000000000E+00 0.  1.
      99926    2    1    2    0    0  0.14210854715E-13  0.00000000000E+00  0.87618367780E+03  0.98931486709E+03  0.45939750652E+03 0.  0.
      99925    2    3    3    0    0  0.10850343492E+03  0.10854548073E+02  0.45661370459E+03  0.53811946914E+03  0.26303169249E+03 0.  0.
         25    1    4    4    0    0  0.27082581229E+02  0.12992751937E+02  0.15376995464E+03  0.20048686954E+03  0.12509000000E+03 0.  0.
         25    1    4    4    0    0  0.81420853691E+02 -0.21382038642E+01  0.30284374995E+03  0.33763259960E+03  0.12509000000E+03 0.  0.
         25    1    3    3    0    0 -0.10850343492E+03 -0.10854548073E+02  0.41956997321E+03  0.45119539794E+03  0.12509000000E+03 0.  0.
<mgrwt>
<rscale>  2 0.45939751E+03</rscale>
<asrwt>0</asrwt>
<pdfrwt beam="1">  1       21 0.13716900E+00 0.45939751E+03</pdfrwt>
<pdfrwt beam="2">  1       21 0.83184704E-02 0.45939751E+03</pdfrwt>
<totfact> 0.38253944E+04</totfact>
</mgrwt>
</event>
<event>
 7    0  0.4775379E-002  0.4520261E+03  0.7546771E-02  0.1027120E+00
         21   -1    0    0  502  501  0.00000000000E+00  0.00000000000E+00  0.88859623365E+03  0.88859623365E+03  0.00000000000E+00 0.  1.
         21   -1    0    0  501  502 -0.00000000000E+00 -0.00000000000E+00 -0.57486074539E+02  0.57486074539E+02  0.00000000000E+00 0.  1.
      99926    2    1    2    0    0  0.00000000000E+00  0.00000000000E+00  0.83111015911E+03  0.94608230819E+03  0.45202614669E+03 0.  0.
      99925    2    3    3    0    0 -0.36341565017E+02 -0.79591376384E+02  0.66503475009E+03  0.72050738466E+03  0.26306686599E+03 0.  0.
         25    1    4    4    0    0  0.29578398235E+01 -0.58328474199E+02  0.26197298255E+03  0.29612212245E+03  0.12509000000E+03 0.  0.
         25    1    3    3    0    0  0.36341565017E+02  0.79591376384E+02  0.16607540902E+03  0.22557492353E+03  0.12509000000E+03 0.  0.
         25    1    4    4    0    0 -0.39299404840E+02 -0.21262902186E+02  0.40306176754E+03  0.42438526221E+03  0.12509000000E+03 0.  0.
<mgrwt>
<rscale>  2 0.45202615E+03</rscale>
<asrwt>0</asrwt>
<pdfrwt beam="1">  1       21 0.13067591E+00 0.45202615E+03</pdfrwt>
<pdfrwt beam="2">  1       21 0.84538350E-02 0.45202615E+03</pdfrwt>
<totfact> 0.42274444E+04</totfact>
</mgrwt>
</event>
<event>
 7    0  0.4775379E-002  0.4547897E+03  0.7546771E-02  0.1026303E+00
         21   -1    0    0  502  501  0.00000000000E+00  0.00000000000E+00  0.10658283515E+03  0.10658283515E+03  0.00000000000E+00 0.  1.
         21   -1    0    0  501  502 -0.00000000000E+00 -0.00000000000E+00 -0.48514780426E+03  0.48514780426E+03  0.00000000000E+00 0.  1.
      99926    2    1    2    0    0  0.00000000000E+00  0.00000000000E+00 -0.37856496911E+03  0.59173063941E+03  0.45478974679E+03 0.  0.
      99925    2    3    3    0    0 -0.50731824225E+02 -0.83122758975E+02 -0.16385893939E+03  0.32484246368E+03  0.26303947069E+03 0.  0.
         25    1    4    4    0    0 -0.63080565672E+02 -0.58087419782E+02 -0.77681530192E+02  0.17039728383E+03  0.12509000000E+03 0.  0.
         25    1    3    3    0    0  0.50731824225E+02  0.83122758975E+02 -0.21470602972E+03  0.26688817573E+03  0.12509000000E+03 0.  0.
         25    1    4    4    0    0  0.12348741446E+02 -0.25035339193E+02 -0.86177409202E+02  0.15444517986E+03  0.12509000000E+03 0.  0.
<mgrwt>
<rscale>  2 0.45478975E+03</rscale>
<asrwt>0</asrwt>
<pdfrwt beam="1">  1       21 0.15673946E-01 0.45478975E+03</pdfrwt>
<pdfrwt beam="2">  1       21 0.71345267E-01 0.45478975E+03</pdfrwt>
<totfact> 0.59288630E+04</totfact>
</mgrwt>
</event>
<event>
 7    0  0.4775379E-002  0.4347708E+03  0.7546771E-02  0.1032363E+00
         21   -1    0    0  502  501  0.00000000000E+00  0.00000000000E+00  0.28156222106E+03  0.28156222106E+03  0.00000000000E+00 0. -1.
         21   -1    0    0  501  502 -0.00000000000E+00 -0.00000000000E+00 -0.16783644361E+03  0.16783644361E+03  0.00000000000E+00 0. -1.
      99926    2    1    2    0    0  0.00000000000E+00  0.00000000000E+00  0.11372577746E+03  0.44939866467E+03  0.43477075264E+03 0.  0.
      99925    2    3    3    0    0  0.49877770598E+02 -0.78328747302E+02  0.69532580537E+02  0.28746123414E+03  0.26301330141E+03 0.  0.
         25    1    4    4    0    0  0.13275349211E+02 -0.65150880031E+02  0.58016060766E+01  0.14178165889E+03  0.12509000000E+03 0.  0.
         25    1    3    3    0    0 -0.49877770598E+02  0.78328747302E+02  0.44193196920E+02  0.16193743053E+03  0.12509000000E+03 0.  0.
         25    1    4    4    0    0  0.36602421386E+02 -0.13177867271E+02  0.63730974461E+02  0.14567957524E+03  0.12509000000E+03 0.  0.
<mgrwt>
<rscale>  2 0.43477075E+03</rscale>
<asrwt>0</asrwt>
<pdfrwt beam="1">  1       21 0.41406209E-01 0.43477075E+03</pdfrwt>
<pdfrwt beam="2">  1       21 0.24681830E-01 0.43477075E+03</pdfrwt>
<totfact> 0.81278826E+04</totfact>
</mgrwt>
</event>
<event>
 7    0  0.4775379E-002  0.4522717E+03  0.7546771E-02  0.1027047E+00
         21   -1    0    0  502  501  0.00000000000E+00  0.00000000000E+00  0.12624481391E+03  0.12624481391E+03  0.00000000000E+00 0. -1.
         21   -1    0    0  501  502 -0.00000000000E+00 -0.00000000000E+00 -0.40506561666E+03  0.40506561666E+03  0.00000000000E+00 0. -1.
      99926    2    1    2    0    0  0.00000000000E+00  0.00000000000E+00 -0.27882080275E+03  0.53131043058E+03  0.45227174751E+03 0.  0.
      99925    2    3    3    0    0  0.97678869915E+02 -0.42779249136E+02 -0.21061111759E+03  0.35334612226E+03  0.26291674249E+03 0.  0.
         25    1    4    4    0    0  0.57911420407E+02 -0.39591344209E+02 -0.65548142922E+02  0.15768726737E+03  0.12509000000E+03 0.  0.
         25    1    3    3    0    0 -0.97678869915E+02  0.42779249136E+02 -0.68209685161E+02  0.17796430832E+03  0.12509000000E+03 0.  0.
         25    1    4    4    0    0  0.39767449508E+02 -0.31879049272E+01 -0.14506297467E+03  0.19565885489E+03  0.12509000000E+03 0.  0.
<mgrwt>
<rscale>  2 0.45227175E+03</rscale>
<asrwt>0</asrwt>
<pdfrwt beam="1">  1       21 0.18565414E-01 0.45227175E+03</pdfrwt>
<pdfrwt beam="2">  1       21 0.59568473E-01 0.45227175E+03</pdfrwt>
<totfact> 0.64500379E+04</totfact>
</mgrwt>
</event>
<event>
 7    0  0.4775379E-002  0.4659576E+03  0.7546771E-02  0.1023067E+00
         21   -1    0    0  502  501  0.00000000000E+00  0.00000000000E+00  0.28333589239E+04  0.28333589239E+04  0.00000000000E+00 0.  1.
         21   -1    0    0  501  502 -0.00000000000E+00 -0.00000000000E+00 -0.19157165957E+02  0.19157165957E+02  0.00000000000E+00 0.  1.
      99926    2    1    2    0    0  0.00000000000E+00 -0.17763568394E-14  0.28142017579E+04  0.28525160898E+04  0.46595762519E+03 0.  0.
      99925    2    3    3    0    0  0.12190853085E+03  0.11373595019E+02  0.18357491431E+04  0.18585301362E+04  0.26299867310E+03 0.  0.
         25    1    3    3    0    0 -0.12190853085E+03 -0.11373595019E+02  0.97845261480E+03  0.99398595366E+03  0.12509000000E+03 0.  0.
         25    1    4    4    0    0  0.63892466169E+02 -0.31916301838E+02  0.10118126748E+04  0.10220143319E+04  0.12509000000E+03 0.  0.
         25    1    4    4    0    0  0.58016064682E+02  0.43289896857E+02  0.82393646830E+03  0.83651580429E+03  0.12509000000E+03 0.  0.
<mgrwt>
<rscale>  2 0.46595763E+03</rscale>
<asrwt>0</asrwt>
<pdfrwt beam="1">  1       21 0.41667014E+00 0.46595763E+03</pdfrwt>
<pdfrwt beam="2">  1       21 0.28172323E-02 0.46595763E+03</pdfrwt>
<totfact> 0.38197174E+03</totfact>
</mgrwt>
</event>
<event>
 7    0  0.4775379E-002  0.4547480E+03  0.7546771E-02  0.1026316E+00
         21   -1    0    0  502  501  0.00000000000E+00  0.00000000000E+00  0.12842497790E+03  0.12842497790E+03  0.00000000000E+00 0.  1.
         21   -1    0    0  501  502 -0.00000000000E+00 -0.00000000000E+00 -0.40256133629E+03  0.40256133629E+03  0.00000000000E+00 0.  1.
      99926    2    1    2    0    0  0.66613381478E-15  0.00000000000E+00 -0.27413635839E+03  0.53098631419E+03  0.45474797731E+03 0.  0.
      99925    2    3    3    0    0 -0.17320447919E+01 -0.87083293353E+02 -0.25636054830E+03  0.37752626244E+03  0.26309475127E+03 0.  0.
         25    1    4    4    0    0 -0.33181210736E+02 -0.59805541688E+02 -0.15953163073E+03  0.21395220230E+03  0.12509000000E+03 0.  0.
         25    1    3    3    0    0  0.17320447919E+01  0.87083293353E+02 -0.17775810089E+02  0.15346005175E+03  0.12509000000E+03 0.  0.
         25    1    4    4    0    0  0.31449165944E+02 -0.27277751665E+02 -0.96828917561E+02  0.16357406014E+03  0.12509000000E+03 0.  0.
<mgrwt>
<rscale>  2 0.45474798E+03</rscale>
<asrwt>0</asrwt>
<pdfrwt beam="1">  1       21 0.18886026E-01 0.45474798E+03</pdfrwt>
<pdfrwt beam="2">  1       21 0.59200196E-01 0.45474798E+03</pdfrwt>
<totfact> 0.63266073E+04</totfact>
</mgrwt>
</event>
<event>
 7    0  0.4775379E-002  0.4535000E+03  0.7546771E-02  0.1026683E+00
         21   -1    0    0  502  501  0.00000000000E+00  0.00000000000E+00  0.49376637294E+02  0.49376637294E+02  0.00000000000E+00 0.  1.
         21   -1    0    0  501  502 -0.00000000000E+00 -0.00000000000E+00 -0.10412933430E+04  0.10412933430E+04  0.00000000000E+00 0.  1.
      99926    2    1    2    0    0  0.17763568394E-14  0.00000000000E+00 -0.99191670569E+03  0.10906699803E+04  0.45350000535E+03 0.  0.
      99925    2    3    3    0    0  0.10882439520E+02  0.40806778102E+02 -0.87390337007E+03  0.91358729870E+03  0.26296583715E+03 0.  0.
         25    1    4    4    0    0 -0.28221897947E+02 -0.23557207663E+01 -0.43322643525E+03  0.45181265724E+03  0.12509000000E+03 0.  0.
         25    1    4    4    0    0  0.39104337467E+02  0.43162498869E+02 -0.44067693482E+03  0.46177464146E+03  0.12509000000E+03 0.  0.
         25    1    3    3    0    0 -0.10882439520E+02 -0.40806778102E+02 -0.11801333562E+03  0.17708268157E+03  0.12509000000E+03 0.  0.
<mgrwt>
<rscale>  2 0.45350001E+03</rscale>
<asrwt>0</asrwt>
<pdfrwt beam="1">  1       21 0.72612703E-02 0.45350001E+03</pdfrwt>
<pdfrwt beam="2">  1       21 0.15313137E+00 0.45350001E+03</pdfrwt>
<totfact> 0.36241736E+04</totfact>
</mgrwt>
</event>
<event>
 6    0  0.4775379E-002  0.4398212E+03  0.7546771E-02  0.1030802E+00
         21   -1    0    0  502  501  0.00000000000E+00  0.00000000000E+00  0.15146066378E+03  0.15146066378E+03  0.00000000000E+00 0.  1.
         21   -1    0    0  501  502 -0.00000000000E+00 -0.00000000000E+00 -0.31929523192E+03  0.31929523192E+03  0.00000000000E+00 0.  1.
      99926    2    1    2    0    0  0.00000000000E+00  0.71054273576E-14 -0.16783456814E+03  0.47075589571E+03  0.43982118080E+03 0.  0.
         25    1    3    3    0    0  0.78562368974E+02 -0.38419523005E+02 -0.78033646682E+02  0.17142013791E+03  0.12509000000E+03 0.  0.
         25    1    3    3    0    0 -0.94959259126E+01 -0.14593354184E+02 -0.73329873441E+02  0.14604080606E+03  0.12509000000E+03 0.  0.
         25    1    3    3    0    0 -0.69066443062E+02  0.53012877189E+02 -0.16471048020E+02  0.15329495174E+03  0.12509000000E+03 0.  0.
<mgrwt>
<rscale>  2 0.43982118E+03</rscale>
<asrwt>0</asrwt>
<pdfrwt beam="1">  1       21 0.22273627E-01 0.43982118E+03</pdfrwt>
<pdfrwt beam="2">  1       21 0.46955180E-01 0.43982118E+03</pdfrwt>
<totfact> 0.76148194E+04</totfact>
</mgrwt>
</event>
<event>
 7    0  0.4775379E-002  0.4569288E+03  0.7546771E-02  0.1025676E+00
         21   -1    0    0  502  501  0.00000000000E+00  0.00000000000E+00  0.16645534262E+03  0.16645534262E+03  0.00000000000E+00 0.  1.
         21   -1    0    0  501  502 -0.00000000000E+00 -0.00000000000E+00 -0.31357351867E+03  0.31357351867E+03  0.00000000000E+00 0.  1.
      99926    2    1    2    0    0  0.71054273576E-14 -0.14210854715E-13 -0.14711817605E+03  0.48002886129E+03  0.45692882372E+03 0.  0.
      99925    2    3    3    0    0  0.32999416981E+02 -0.11015824769E+03 -0.95671353612E+02  0.30249552725E+03  0.26291963611E+03 0.  0.
         25    1    4    4    0    0 -0.20433128744E+02 -0.40216083534E+02 -0.57353716357E+02  0.14481644591E+03  0.12509000000E+03 0.  0.
         25    1    3    3    0    0 -0.32999416981E+02  0.11015824769E+03 -0.51446822437E+02  0.17753333403E+03  0.12509000000E+03 0.  0.
         25    1    4    4    0    0  0.53432545725E+02 -0.69942164151E+02 -0.38317637256E+02  0.15767908134E+03  0.12509000000E+03 0.  0.
<mgrwt>
<rscale>  2 0.45692882E+03</rscale>
<asrwt>0</asrwt>
<pdfrwt beam="1">  1       21 0.24478727E-01 0.45692882E+03</pdfrwt>
<pdfrwt beam="2">  1       21 0.46113752E-01 0.45692882E+03</pdfrwt>
<totfact> 0.65686600E+04</totfact>
</mgrwt>
</event>
<event>
 7    0  0.4775379E-002  0.4362514E+03  0.7546771E-02  0.1031903E+00
         21   -1    0    0  502  501  0.00000000000E+00  0.00000000000E+00  0.42244950459E+02  0.42244950459E+02  0.00000000000E+00 0.  1.
         21   -1    0    0  501  502 -0.00000000000E+00 -0.00000000000E+00 -0.11262606456E+04  0.11262606456E+04  0.00000000000E+00 0.  1.
      99926    2    1    2    0    0  0.35527136788E-14  0.00000000000E+00 -0.10840156951E+04  0.11685055960E+04  0.43625141915E+03 0.  0.
      99925    2    3    3    0    0  0.25114451989E+02  0.83172006428E+02 -0.79444108160E+03  0.84132172839E+03  0.26293972728E+03 0.  0.
         25    1    4    4    0    0 -0.18160134459E+02  0.68130190196E+02 -0.40011282736E+03  0.42509916022E+03  0.12509000000E+03 0.  0.
         25    1    4    4    0    0  0.43274586448E+02  0.15041816231E+02 -0.39432825424E+03  0.41622256817E+03  0.12509000000E+03 0.  0.
         25    1    3    3    0    0 -0.25114451989E+02 -0.83172006428E+02 -0.28957461353E+03  0.32718386766E+03  0.12509000000E+03 0.  0.
<mgrwt>
<rscale>  2 0.43625142E+03</rscale>
<asrwt>0</asrwt>
<pdfrwt beam="1">  1       21 0.62124931E-02 0.43625142E+03</pdfrwt>
<pdfrwt beam="2">  1       21 0.16562655E+00 0.43625142E+03</pdfrwt>
<totfact> 0.38494177E+04</totfact>
</mgrwt>
</event>
<event>
 7    0  0.4775379E-002  0.4583281E+03  0.7546771E-02  0.1025267E+00
         21   -1    0    0  502  501  0.00000000000E+00  0.00000000000E+00  0.22048925832E+03  0.22048925832E+03  0.00000000000E+00 0.  1.
         21   -1    0    0  501  502 -0.00000000000E+00 -0.00000000000E+00 -0.23818013850E+03  0.23818013850E+03  0.00000000000E+00 0.  1.
      99926    2    1    2    0    0  0.14210854715E-13  0.71054273576E-14 -0.17690880180E+02  0.45866939682E+03  0.45832810119E+03 0.  0.
      99925    2    3    3    0    0  0.92226319249E+02  0.63809476989E+02  0.20997483842E+02  0.28626974216E+03  0.26254928611E+03 0.  0.
         25    1    3    3    0    0 -0.92226319249E+02 -0.63809476989E+02 -0.38688364022E+02  0.17239965466E+03  0.12509000000E+03 0.  0.
         25    1    4    4    0    0  0.34577965750E+02  0.13117150708E+02 -0.24268753559E+02  0.13268072904E+03  0.12509000000E+03 0.  0.
         25    1    4    4    0    0  0.57648353499E+02  0.50692326281E+02  0.45266237401E+02  0.15358901313E+03  0.12509000000E+03 0.  0.
<mgrwt>
<rscale>  2 0.45832810E+03</rscale>
<asrwt>0</asrwt>
<pdfrwt beam="1">  1       21 0.32424891E-01 0.45832810E+03</pdfrwt>
<pdfrwt beam="2">  1       21 0.35026491E-01 0.45832810E+03</pdfrwt>
<totfact> 0.66494472E+04</totfact>
</mgrwt>
</event>
<event>
 7    0  0.4775379E-002  0.4111408E+03  0.7546771E-02  0.1039989E+00
         21   -1    0    0  502  501  0.00000000000E+00  0.00000000000E+00  0.11572742291E+03  0.11572742291E+03  0.00000000000E+00 0. -1.
         21   -1    0    0  501  502 -0.00000000000E+00 -0.00000000000E+00 -0.36516138989E+03  0.36516138989E+03  0.00000000000E+00 0. -1.
      99926    2    1    2    0    0  0.00000000000E+00  0.00000000000E+00 -0.24943396698E+03  0.48088881280E+03  0.41114078659E+03 0.  0.
      99925    2    3    3    0    0 -0.37790144047E+02  0.25338903622E+02 -0.21671491912E+03  0.34381876058E+03  0.26301298245E+03 0.  0.
         25    1    3    3    0    0  0.37790144047E+02 -0.25338903622E+02 -0.32719047858E+02  0.13707005222E+03  0.12509000000E+03 0.  0.
         25    1    4    4    0    0 -0.27814681773E+02  0.26432972206E+02 -0.62522538291E+02  0.14501356639E+03  0.12509000000E+03 0.  0.
         25    1    4    4    0    0 -0.99754622738E+01 -0.10940685834E+01 -0.15419238083E+03  0.19880519419E+03  0.12509000000E+03 0.  0.
<mgrwt>
<rscale>  2 0.41114079E+03</rscale>
<asrwt>0</asrwt>
<pdfrwt beam="1">  1       21 0.17018739E-01 0.41114079E+03</pdfrwt>
<pdfrwt beam="2">  1       21 0.53700205E-01 0.41114079E+03</pdfrwt>
<totfact> 0.95910737E+04</totfact>
</mgrwt>
</event>
<event>
 7    0  0.4775379E-002  0.4494011E+03  0.7546771E-02  0.1027901E+00
         21   -1    0    0  502  501  0.00000000000E+00  0.00000000000E+00  0.15722524238E+03  0.15722524238E+03  0.00000000000E+00 0. -1.
         21   -1    0    0  501  502 -0.00000000000E+00 -0.00000000000E+00 -0.32113379219E+03  0.32113379219E+03  0.00000000000E+00 0. -1.
      99926    2    1    2    0    0  0.14210854715E-13  0.71054273576E-14 -0.16390854981E+03  0.47835903457E+03  0.44940110509E+03 0.  0.
      99925    2    3    3    0    0  0.82483635433E+02  0.63118129982E+02 -0.71826750125E+02  0.29150611278E+03  0.26273424465E+03 0.  0.
         25    1    4    4    0    0  0.77495126656E+02  0.54869624896E+02 -0.38653960427E+02  0.16173375389E+03  0.12509000000E+03 0.  0.
         25    1    4    4    0    0  0.49885087766E+01  0.82485050861E+01 -0.33172789698E+02  0.12977235889E+03  0.12509000000E+03 0.  0.
         25    1    3    3    0    0 -0.82483635433E+02 -0.63118129982E+02 -0.92081799681E+02  0.18685292178E+03  0.12509000000E+03 0.  0.
<mgrwt>
<rscale>  2 0.44940111E+03</rscale>
<asrwt>0</asrwt>
<pdfrwt beam="1">  1       21 0.23121360E-01 0.44940111E+03</pdfrwt>
<pdfrwt beam="2">  1       21 0.47225557E-01 0.44940111E+03</pdfrwt>
<totfact> 0.69873881E+04</totfact>
</mgrwt>
</event>
<event>
 7    0  0.4775379E-002  0.4566468E+03  0.7546771E-02  0.1025758E+00
         21   -1    0    0  502  501  0.00000000000E+00  0.00000000000E+00  0.13793124961E+03  0.13793124961E+03  0.00000000000E+00 0. -1.
         21   -1    0    0  501  502 -0.00000000000E+00 -0.00000000000E+00 -0.37795327742E+03  0.37795327742E+03  0.00000000000E+00 0. -1.
      99926    2    1    2    0    0  0.00000000000E+00 -0.14210854715E-13 -0.24002202781E+03  0.51588452703E+03  0.45664676873E+03 0.  0.
      99925    2    3    3    0    0  0.77067655879E+02  0.83896374185E+02 -0.16349379772E+03  0.33019095340E+03  0.26328277314E+03 0.  0.
         25    1    4    4    0    0  0.15999531096E+02  0.65464270959E+02 -0.53514389400E+02  0.15183166251E+03  0.12509000000E+03 0.  0.
         25    1    3    3    0    0 -0.77067655879E+02 -0.83896374185E+02 -0.76528230097E+02  0.18569357363E+03  0.12509000000E+03 0.  0.
         25    1    4    4    0    0  0.61068124783E+02  0.18432103226E+02 -0.10997940831E+03  0.17835929089E+03  0.12509000000E+03 0.  0.
<mgrwt>
<rscale>  2 0.45664677E+03</rscale>
<asrwt>0</asrwt>
<pdfrwt beam="1">  1       21 0.20284007E-01 0.45664677E+03</pdfrwt>
<pdfrwt beam="2">  1       21 0.55581364E-01 0.45664677E+03</pdfrwt>
<totfact> 0.63336833E+04</totfact>
</mgrwt>
</event>
<event>
 7    0  0.4775379E-002  0.4288309E+03  0.7546771E-02  0.1034230E+00
         21   -1    0    0  502  501  0.00000000000E+00  0.00000000000E+00  0.33556558227E+02  0.33556558227E+02  0.00000000000E+00 0. -1.
         21   -1    0    0  501  502 -0.00000000000E+00 -0.00000000000E+00 -0.13700443993E+04  0.13700443993E+04  0.00000000000E+00 0. -1.
      99926    2    1    2    0    0  0.00000000000E+00  0.71054273576E-14 -0.13364878411E+04  0.14036009576E+04  0.42883085085E+03 0.  0.
      99925    2    3    3    0    0 -0.74253592742E+02 -0.44234134477E+02 -0.86567740525E+03  0.90884826247E+03  0.26294018245E+03 0.  0.
         25    1    3    3    0    0  0.74253592742E+02  0.44234134477E+02 -0.47081043585E+03  0.49475269508E+03  0.12509000000E+03 0.  0.
         25    1    4    4    0    0 -0.23517289668E+02 -0.10949091007E+02 -0.29489915131E+03  0.32138133588E+03  0.12509000000E+03 0.  0.
         25    1    4    4    0    0 -0.50736303074E+02 -0.33285043470E+02 -0.57077825394E+03  0.58746692659E+03  0.12509000000E+03 0.  0.
<mgrwt>
<rscale>  2 0.42883085E+03</rscale>
<asrwt>0</asrwt>
<pdfrwt beam="1">  1       21 0.49347882E-02 0.42883085E+03</pdfrwt>
<pdfrwt beam="2">  1       21 0.20147711E+00 0.42883085E+03</pdfrwt>
<totfact> 0.32327740E+04</totfact>
</mgrwt>
</event>
<event>
 7    0  0.4775379E-002  0.4604835E+03  0.7546771E-02  0.1024641E+00
         21   -1    0    0  502  501  0.00000000000E+00  0.00000000000E+00  0.14929008681E+03  0.14929008681E+03  0.00000000000E+00 0.  1.
         21   -1    0    0  501  502 -0.00000000000E+00 -0.00000000000E+00 -0.35508898155E+03  0.35508898155E+03  0.00000000000E+00 0.  1.
      99926    2    1    2    0    0 -0.14210854715E-13  0.00000000000E+00 -0.20579889473E+03  0.50437906836E+03  0.46048350625E+03 0.  0.
      99925    2    3    3    0    0  0.85841467896E+02  0.35311000132E+02 -0.51274044074E+02  0.28496835324E+03  0.26450389489E+03 0.  0.
         25    1    4    4    0    0  0.17878968932E+02  0.29183779466E+02  0.95478099315E+01  0.13003853002E+03  0.12509000000E+03 0.  0.
         25    1    4    4    0    0  0.67962498964E+02  0.61272206660E+01 -0.60821854006E+02  0.15492982322E+03  0.12509000000E+03 0.  0.
         25    1    3    3    0    0 -0.85841467896E+02 -0.35311000132E+02 -0.15452485066E+03  0.21941071512E+03  0.12509000000E+03 0.  0.
<mgrwt>
<rscale>  2 0.46048351E+03</rscale>
<asrwt>0</asrwt>
<pdfrwt beam="1">  1       21 0.21954425E-01 0.46048351E+03</pdfrwt>
<pdfrwt beam="2">  1       21 0.52218967E-01 0.46048351E+03</pdfrwt>
<totfact> 0.62211767E+04</totfact>
</mgrwt>
</event>
<event>
 7    0  0.4775379E-002  0.4379266E+03  0.7546771E-02  0.1031385E+00
         21   -1    0    0  502  501  0.00000000000E+00  0.00000000000E+00  0.80763360689E+02  0.80763360689E+02  0.00000000000E+00 0.  1.
         21   -1    0    0  501  502 -0.00000000000E+00 -0.00000000000E+00 -0.59364697323E+03  0.59364697323E+03  0.00000000000E+00 0.  1.
      99926    2    1    2    0    0  0.00000000000E+00  0.00000000000E+00 -0.51288361254E+03  0.67441033392E+03  0.43792659029E+03 0.  0.
      99925    2    3    3    0    0  0.71547511207E+02 -0.45962530361E+02 -0.25864110735E+03  0.37857531216E+03  0.26304456658E+03 0.  0.
         25    1    4    4    0    0  0.14342659690E+02 -0.57477866953E+02 -0.12791726139E+03  0.18846684307E+03  0.12509000000E+03 0.  0.
         25    1    4    4    0    0  0.57204851517E+02  0.11515336593E+02 -0.13072384597E+03  0.19010846909E+03  0.12509000000E+03 0.  0.
         25    1    3    3    0    0 -0.71547511207E+02  0.45962530361E+02 -0.25424250519E+03  0.29583502176E+03  0.12509000000E+03 0.  0.
<mgrwt>
<rscale>  2 0.43792659E+03</rscale>
<asrwt>0</asrwt>
<pdfrwt beam="1">  1       21 0.11876964E-01 0.43792659E+03</pdfrwt>
<pdfrwt beam="2">  1       21 0.87301028E-01 0.43792659E+03</pdfrwt>
<totfact> 0.62275438E+04</totfact>
</mgrwt>
</event>
<event>
 7    0  0.4775379E-002  0.4409311E+03  0.7546771E-02  0.1030462E+00
         21   -1    0    0  502  501  0.00000000000E+00  0.00000000000E+00  0.97173050515E+02  0.97173050515E+02  0.00000000000E+00 0. -1.
         21   -1    0    0  501  502 -0.00000000000E+00 -0.00000000000E+00 -0.50019071684E+03  0.50019071684E+03  0.00000000000E+00 0. -1.
      99926    2    1    2    0    0  0.00000000000E+00  0.00000000000E+00 -0.40301766633E+03  0.59736376736E+03  0.44093109573E+03 0.  0.
      99925    2    3    3    0    0  0.40153199246E+02 -0.84606001351E+02 -0.21156662394E+03  0.35023735313E+03  0.26293594713E+03 0.  0.
         25    1    4    4    0    0  0.56162581180E+02 -0.53168126956E+02 -0.13351171997E+03  0.19863024120E+03  0.12509000000E+03 0.  0.
         25    1    3    3    0    0 -0.40153199246E+02  0.84606001351E+02 -0.19145104239E+03  0.24712641422E+03  0.12509000000E+03 0.  0.
         25    1    4    4    0    0 -0.16009381933E+02 -0.31437874394E+02 -0.78054903966E+02  0.15160711194E+03  0.12509000000E+03 0.  0.
<mgrwt>
<rscale>  2 0.44093110E+03</rscale>
<asrwt>0</asrwt>
<pdfrwt beam="1">  1       21 0.14290155E-01 0.44093110E+03</pdfrwt>
<pdfrwt beam="2">  1       21 0.73557458E-01 0.44093110E+03</pdfrwt>
<totfact> 0.65862634E+04</totfact>
</mgrwt>
</event>
<event>
 7    0  0.4775379E-002  0.4519402E+03  0.7546771E-02  0.1027145E+00
         21   -1    0    0  502  501  0.00000000000E+00  0.00000000000E+00  0.46492049702E+03  0.46492049702E+03  0.00000000000E+00 0. -1.
         21   -1    0    0  501  502 -0.00000000000E+00 -0.00000000000E+00 -0.10983058444E+03  0.10983058444E+03  0.00000000000E+00 0. -1.
      99926    2    1    2    0    0  0.00000000000E+00  0.35527136788E-14  0.35508991258E+03  0.57475108146E+03  0.45194021687E+03 0.  0.
      99925    2    3    3    0    0  0.10554878072E+03 -0.18771115546E+02  0.19117152855E+03  0.34235132971E+03  0.26299235680E+03 0.  0.
         25    1    4    4    0    0  0.79935952407E+02 -0.31626121506E+02  0.75226613509E+02  0.16940047086E+03  0.12509000000E+03 0.  0.
         25    1    3    3    0    0 -0.10554878072E+03  0.18771115546E+02  0.16391838403E+03  0.23239975175E+03  0.12509000000E+03 0.  0.
         25    1    4    4    0    0  0.25612828314E+02  0.12855005960E+02  0.11594491504E+03  0.17295085885E+03  0.12509000000E+03 0.  0.
<mgrwt>
<rscale>  2 0.45194022E+03</rscale>
<asrwt>0</asrwt>
<pdfrwt beam="1">  1       21 0.68370660E-01 0.45194022E+03</pdfrwt>
<pdfrwt beam="2">  1       21 0.16151557E-01 0.45194022E+03</pdfrwt>
<totfact> 0.61740132E+04</totfact>
</mgrwt>
</event>
<event>
 7    0  0.4775379E-002  0.4532626E+03  0.7546771E-02  0.1026754E+00
         21   -1    0    0  502  501  0.00000000000E+00  0.00000000000E+00  0.17799951059E+04  0.17799951059E+04  0.00000000000E+00 0.  1.
         21   -1    0    0  501  502 -0.00000000000E+00 -0.00000000000E+00 -0.28854988188E+02  0.28854988188E+02  0.00000000000E+00 0.  1.
      99926    2    1    2    0    0  0.35527136788E-14 -0.14210854715E-13  0.17511401177E+04  0.18088500940E+04  0.45326256300E+03 0.  0.
      99925    2    3    3    0    0  0.25499216373E+02 -0.69783389740E+02  0.14344716646E+04  0.14603585607E+04  0.26347341017E+03 0.  0.
         25    1    4    4    0    0  0.13251088467E+02 -0.51825813611E+02  0.94247289017E+03  0.95224165163E+03  0.12509000000E+03 0.  0.
         25    1    3    3    0    0 -0.25499216373E+02  0.69783389740E+02  0.31666845311E+03  0.34849153335E+03  0.12509000000E+03 0.  0.
         25    1    4    4    0    0  0.12248127906E+02 -0.17957576129E+02  0.49199877440E+03  0.50811690907E+03  0.12509000000E+03 0.  0.
<mgrwt>
<rscale>  2 0.45326256E+03</rscale>
<asrwt>0</asrwt>
<pdfrwt beam="1">  1       21 0.26176391E+00 0.45326256E+03</pdfrwt>
<pdfrwt beam="2">  1       21 0.42433818E-02 0.45326256E+03</pdfrwt>
<totfact> 0.17322522E+04</totfact>
</mgrwt>
</event>
<event>
 7    0  0.4775379E-002  0.4546212E+03  0.7546771E-02  0.1026353E+00
         21   -1    0    0  502  501  0.00000000000E+00  0.00000000000E+00  0.54702810104E+03  0.54702810104E+03  0.00000000000E+00 0. -1.
         21   -1    0    0  501  502 -0.00000000000E+00 -0.00000000000E+00 -0.94456044543E+02  0.94456044543E+02  0.00000000000E+00 0. -1.
      99926    2    1    2    0    0  0.71054273576E-14  0.14210854715E-13  0.45257205650E+03  0.64148414558E+03  0.45462120794E+03 0.  0.
      99925    2    3    3    0    0  0.49155076187E+02  0.77094664611E+02  0.37833612122E+03  0.46967526626E+03  0.26286275182E+03 0.  0.
         25    1    4    4    0    0 -0.25294876022E+01  0.12915455429E+02  0.14027358263E+03  0.18840751944E+03  0.12509000000E+03 0.  0.
         25    1    3    3    0    0 -0.49155076187E+02 -0.77094664611E+02  0.74235935279E+02  0.17180887932E+03  0.12509000000E+03 0.  0.
         25    1    4    4    0    0  0.51684563789E+02  0.64179209183E+02  0.23806253858E+03  0.28126774682E+03  0.12509000000E+03 0.  0.
<mgrwt>
<rscale>  2 0.45462121E+03</rscale>
<asrwt>0</asrwt>
<pdfrwt beam="1">  1       21 0.80445307E-01 0.45462121E+03</pdfrwt>
<pdfrwt beam="2">  1       21 0.13890595E-01 0.45462121E+03</pdfrwt>
<totfact> 0.56363057E+04</totfact>
</mgrwt>
</event>
<event>
 7    0  0.4775379E-002  0.4525573E+03  0.7546771E-02  0.1026962E+00
         21   -1    0    0  502  501  0.00000000000E+00  0.00000000000E+00  0.32805782414E+03  0.32805782414E+03  0.00000000000E+00 0.  1.
         21   -1    0    0  501  502 -0.00000000000E+00 -0.00000000000E+00 -0.15607621529E+03  0.15607621529E+03  0.00000000000E+00 0.  1.
      99926    2    1    2    0    0  0.00000000000E+00 -0.17763568394E-14  0.17198160885E+03  0.48413403943E+03  0.45255728295E+03 0.  0.
      99925    2    3    3    0    0  0.43772854086E+02 -0.11590708169E+02  0.21666070140E+03  0.34379823972E+03  0.26306836152E+03 0.  0.
         25    1    4    4    0    0  0.45913863303E+01  0.28198947540E+02  0.12382893046E+03  0.17831818076E+03  0.12509000000E+03 0.  0.
         25    1    3    3    0    0 -0.43772854086E+02  0.11590708169E+02 -0.44679092546E+02  0.14033579971E+03  0.12509000000E+03 0.  0.
         25    1    4    4    0    0  0.39181467756E+02 -0.39789655710E+02  0.92831770941E+02  0.16548005896E+03  0.12509000000E+03 0.  0.
<mgrwt>
<rscale>  2 0.45255728E+03</rscale>
<asrwt>0</asrwt>
<pdfrwt beam="1">  1       21 0.48243798E-01 0.45255728E+03</pdfrwt>
<pdfrwt beam="2">  1       21 0.22952384E-01 0.45255728E+03</pdfrwt>
<totfact> 0.67703756E+04</totfact>
</mgrwt>
</event>
<event>
 7    0  0.4775379E-002  0.4568215E+03  0.7546771E-02  0.1025707E+00
         21   -1    0    0  502  501  0.00000000000E+00  0.00000000000E+00  0.12503555257E+03  0.12503555257E+03  0.00000000000E+00 0.  1.
         21   -1    0    0  501  502 -0.00000000000E+00 -0.00000000000E+00 -0.41725300227E+03  0.41725300227E+03  0.00000000000E+00 0.  1.
      99926    2    1    2    0    0 -0.14210854715E-13  0.00000000000E+00 -0.29221744971E+03  0.54228855484E+03  0.45682145177E+03 0.  0.
      99925    2    3    3    0    0  0.66087438716E+02  0.89996437957E+02 -0.21513459999E+03  0.35774538314E+03  0.26311965842E+03 0.  0.
         25    1    4    4    0    0  0.59063081333E+02  0.36158631819E+02 -0.72124589414E+02  0.16014168330E+03  0.12509000000E+03 0.  0.
         25    1    4    4    0    0  0.70243573830E+01  0.53837806138E+02 -0.14301001058E+03  0.19760369984E+03  0.12509000000E+03 0.  0.
         25    1    3    3    0    0 -0.66087438716E+02 -0.89996437957E+02 -0.77082849716E+02  0.18454317170E+03  0.12509000000E+03 0.  0.
<mgrwt>
<rscale>  2 0.45682145E+03</rscale>
<asrwt>0</asrwt>
<pdfrwt beam="1">  1       21 0.18387581E-01 0.45682145E+03</pdfrwt>
<pdfrwt beam="2">  1       21 0.61360736E-01 0.45682145E+03</pdfrwt>
<totfact> 0.61487891E+04</totfact>
</mgrwt>
</event>
<event>
 7    0  0.4775379E-002  0.4550830E+03  0.7546771E-02  0.1026217E+00
         21   -1    0    0  502  501  0.00000000000E+00  0.00000000000E+00  0.17643174470E+04  0.17643174470E+04  0.00000000000E+00 0.  1.
         21   -1    0    0  501  502 -0.00000000000E+00 -0.00000000000E+00 -0.29345698296E+02  0.29345698296E+02  0.00000000000E+00 0.  1.
      99926    2    1    2    0    0  0.00000000000E+00  0.00000000000E+00  0.17349717487E+04  0.17936631453E+04  0.45508297045E+03 0.  0.
      99925    2    3    3    0    0  0.82077639096E+02 -0.59536408350E+02  0.12905615310E+04  0.13209800882E+04  0.26297909685E+03 0.  0.
         25    1    4    4    0    0  0.70137186176E+02 -0.20561740622E+01  0.68468089282E+03  0.69954191141E+03  0.12509000000E+03 0.  0.
         25    1    3    3    0    0 -0.82077639096E+02  0.59536408350E+02  0.44441021766E+03  0.47268305705E+03  0.12509000000E+03 0.  0.
         25    1    4    4    0    0  0.11940452920E+02 -0.57480234287E+02  0.60588063821E+03  0.62143817682E+03  0.12509000000E+03 0.  0.
<mgrwt>
<rscale>  2 0.45508297E+03</rscale>
<asrwt>0</asrwt>
<pdfrwt beam="1">  1       21 0.25945838E+00 0.45508297E+03</pdfrwt>
<pdfrwt beam="2">  1       21 0.43155451E-02 0.45508297E+03</pdfrwt>
<totfact> 0.17370339E+04</totfact>
</mgrwt>
</event>
<event>
 6    0  0.4775379E-002  0.4590101E+03  0.7546771E-02  0.1025069E+00
         21   -1    0    0  502  501  0.00000000000E+00  0.00000000000E+00  0.10771747882E+04  0.10771747882E+04  0.00000000000E+00 0. -1.
         21   -1    0    0  501  502 -0.00000000000E+00 -0.00000000000E+00 -0.48898821134E+02  0.48898821134E+02  0.00000000000E+00 0. -1.
      99926    2    1    2    0    0  0.14210854715E-13  0.00000000000E+00  0.10282759670E+04  0.11260736093E+04  0.45901014062E+03 0.  0.
         25    1    3    3    0    0  0.11148374619E+03 -0.11788056309E+02  0.40932496168E+03  0.44245001558E+03  0.12509000000E+03 0.  0.
         25    1    3    3    0    0 -0.81026635651E+02  0.47860095410E+02  0.33576171989E+03  0.37045829058E+03  0.12509000000E+03 0.  0.
         25    1    3    3    0    0 -0.30457110537E+02 -0.36072039101E+02  0.28318928548E+03  0.31316530315E+03  0.12509000000E+03 0.  0.
<mgrwt>
<rscale>  2 0.45901014E+03</rscale>
<asrwt>0</asrwt>
<pdfrwt beam="1">  1       21 0.15840804E+00 0.45901014E+03</pdfrwt>
<pdfrwt beam="2">  1       21 0.71910038E-02 0.45901014E+03</pdfrwt>
<totfact> 0.33530778E+04</totfact>
</mgrwt>
</event>
<event>
 7    0  0.4775379E-002  0.4551038E+03  0.7546771E-02  0.1026211E+00
         21   -1    0    0  502  501  0.00000000000E+00  0.00000000000E+00  0.10613495416E+03  0.10613495416E+03  0.00000000000E+00 0.  1.
         21   -1    0    0  501  502 -0.00000000000E+00 -0.00000000000E+00 -0.48786813249E+03  0.48786813249E+03  0.00000000000E+00 0.  1.
      99926    2    1    2    0    0  0.35527136788E-14  0.00000000000E+00 -0.38173317834E+03  0.59400308665E+03  0.45510377663E+03 0.  0.
      99925    2    3    3    0    0  0.17887897926E+02  0.71578704264E+02 -0.35239357059E+03  0.44584165955E+03  0.26296400704E+03 0.  0.
         25    1    4    4    0    0  0.26251598965E+02  0.18604438997E+02 -0.11878880079E+03  0.17548093598E+03  0.12509000000E+03 0.  0.
         25    1    4    4    0    0 -0.83637010389E+01  0.52974265267E+02 -0.23360476980E+03  0.27036072357E+03  0.12509000000E+03 0.  0.
         25    1    3    3    0    0 -0.17887897926E+02 -0.71578704264E+02 -0.29339607741E+02  0.14816142709E+03  0.12509000000E+03 0.  0.
<mgrwt>
<rscale>  2 0.45510378E+03</rscale>
<asrwt>0</asrwt>
<pdfrwt beam="1">  1       21 0.15608082E-01 0.45510378E+03</pdfrwt>
<pdfrwt beam="2">  1       21 0.71745313E-01 0.45510378E+03</pdfrwt>
<totfact> 0.59000516E+04</totfact>
</mgrwt>
</event>
<event>
 7    0  0.4775379E-002  0.4744082E+03  0.7546771E-02  0.1020683E+00
         21   -1    0    0  502  501  0.00000000000E+00  0.00000000000E+00  0.13816070362E+03  0.13816070362E+03  0.00000000000E+00 0.  1.
         21   -1    0    0  501  502 -0.00000000000E+00 -0.00000000000E+00 -0.40724879476E+03  0.40724879476E+03  0.00000000000E+00 0.  1.
      99926    2    1    2    0    0  0.00000000000E+00  0.00000000000E+00 -0.26908809114E+03  0.54540949838E+03  0.47440817882E+03 0.  0.
      99925    2    3    3    0    0 -0.57234927979E+02  0.78310568950E+02 -0.26695944096E+03  0.38710466130E+03  0.26301006348E+03 0.  0.
         25    1    3    3    0    0  0.57234927979E+02 -0.78310568950E+02 -0.21286501745E+01  0.15830483708E+03  0.12509000000E+03 0.  0.
         25    1    4    4    0    0  0.59114972567E+01  0.15106501669E+02 -0.10923230712E+03  0.16686029250E+03  0.12509000000E+03 0.  0.
         25    1    4    4    0    0 -0.63146425236E+02  0.63204067281E+02 -0.15772713384E+03  0.22024436880E+03  0.12509000000E+03 0.  0.
<mgrwt>
<rscale>  2 0.47440818E+03</rscale>
<asrwt>0</asrwt>
<pdfrwt beam="1">  1       21 0.20317750E-01 0.47440818E+03</pdfrwt>
<pdfrwt beam="2">  1       21 0.59889529E-01 0.47440818E+03</pdfrwt>
<totfact> 0.53465879E+04</totfact>
</mgrwt>
</event>
<event>
 7    0  0.4775379E-002  0.4473925E+03  0.7546771E-02  0.1028502E+00
         21   -1    0    0  502  501  0.00000000000E+00  0.00000000000E+00  0.12474206594E+03  0.12474206594E+03  0.00000000000E+00 0. -1.
         21   -1    0    0  501  502 -0.00000000000E+00 -0.00000000000E+00 -0.40114779050E+03  0.40114779050E+03  0.00000000000E+00 0. -1.
      99926    2    1    2    0    0  0.00000000000E+00  0.14210854715E-13 -0.27640572456E+03  0.52588985645E+03  0.44739246367E+03 0.  0.
      99925    2    3    3    0    0 -0.58577065469E+02 -0.80591400436E+02 -0.13357561384E+03  0.31147391709E+03  0.26314883619E+03 0.  0.
         25    1    4    4    0    0 -0.22763253120E+02 -0.25705574391E+02 -0.22159858501E+02  0.13159600935E+03  0.12509000000E+03 0.  0.
         25    1    3    3    0    0  0.58577065469E+02  0.80591400436E+02 -0.14283011072E+03  0.21441593936E+03  0.12509000000E+03 0.  0.
         25    1    4    4    0    0 -0.35813812348E+02 -0.54885826045E+02 -0.11141575534E+03  0.17987790774E+03  0.12509000000E+03 0.  0.
<mgrwt>
<rscale>  2 0.44739246E+03</rscale>
<asrwt>0</asrwt>
<pdfrwt beam="1">  1       21 0.18344422E-01 0.44739246E+03</pdfrwt>
<pdfrwt beam="2">  1       21 0.58992322E-01 0.44739246E+03</pdfrwt>
<totfact> 0.67460408E+04</totfact>
</mgrwt>
</event>
<event>
 7    0  0.4775379E-002  0.4525403E+03  0.7546771E-02  0.1026967E+00
         21   -1    0    0  502  501  0.00000000000E+00  0.00000000000E+00  0.38356842134E+02  0.38356842134E+02  0.00000000000E+00 0.  1.
         21   -1    0    0  501  502 -0.00000000000E+00 -0.00000000000E+00 -0.13347858856E+04  0.13347858856E+04  0.00000000000E+00 0.  1.
      99926    2    1    2    0    0  0.00000000000E+00  0.00000000000E+00 -0.12964290435E+04  0.13731427278E+04  0.45254025897E+03 0.  0.
      99925    2    3    3    0    0 -0.40189054185E+02 -0.83476255040E+02 -0.10023974827E+04  0.10404484055E+04  0.26296145329E+03 0.  0.
         25    1    4    4    0    0  0.13702542986E+02 -0.63879286558E+02 -0.49554695486E+03  0.51525005144E+03  0.12509000000E+03 0.  0.
         25    1    3    3    0    0  0.40189054185E+02  0.83476255040E+02 -0.29403156074E+03  0.33269432223E+03  0.12509000000E+03 0.  0.
         25    1    4    4    0    0 -0.53891597171E+02 -0.19596968482E+02 -0.50685052788E+03  0.52519835408E+03  0.12509000000E+03 0.  0.
<mgrwt>
<rscale>  2 0.45254026E+03</rscale>
<asrwt>0</asrwt>
<pdfrwt beam="1">  1       21 0.56407132E-02 0.45254026E+03</pdfrwt>
<pdfrwt beam="2">  1       21 0.19629200E+00 0.45254026E+03</pdfrwt>
<totfact> 0.27580103E+04</totfact>
</mgrwt>
</event>
<event>
 7    0  0.4775379E-002  0.4444781E+03  0.7546771E-02  0.1029382E+00
         21   -1    0    0  502  501  0.00000000000E+00  0.00000000000E+00  0.50225064213E+03  0.50225064213E+03  0.00000000000E+00 0. -1.
         21   -1    0    0  501  502 -0.00000000000E+00 -0.00000000000E+00 -0.98337749870E+02  0.98337749870E+02  0.00000000000E+00 0. -1.
      99926    2    1    2    0    0  0.00000000000E+00  0.14210854715E-13  0.40391289226E+03  0.60058839200E+03  0.44447811203E+03 0.  0.
      99925    2    3    3    0    0  0.11295085852E+02  0.84107356728E+02  0.17781757171E+03  0.32861738529E+03  0.26299937392E+03 0.  0.
         25    1    4    4    0    0 -0.27498728991E+02  0.19406764018E+02  0.71644408270E+02  0.14803118564E+03  0.12509000000E+03 0.  0.
         25    1    3    3    0    0 -0.11295085852E+02 -0.84107356728E+02  0.22609532055E+03  0.27197100672E+03  0.12509000000E+03 0.  0.
         25    1    4    4    0    0  0.38793814843E+02  0.64700592710E+02  0.10617316344E+03  0.18058619965E+03  0.12509000000E+03 0.  0.
<mgrwt>
<rscale>  2 0.44447811E+03</rscale>
<asrwt>0</asrwt>
<pdfrwt beam="1">  1       21 0.73860387E-01 0.44447811E+03</pdfrwt>
<pdfrwt beam="2">  1       21 0.14461434E-01 0.44447811E+03</pdfrwt>
<totfact> 0.63781146E+04</totfact>
</mgrwt>
</event>
<event>
 7    0  0.4775379E-002  0.4420452E+03  0.7546771E-02  0.1030121E+00
         21   -1    0    0  502  501  0.00000000000E+00  0.00000000000E+00  0.32565256422E+02  0.32565256422E+02  0.00000000000E+00 0.  1.
         21   -1    0    0  501  502 -0.00000000000E+00 -0.00000000000E+00 -0.15000955414E+04  0.15000955414E+04  0.00000000000E+00 0.  1.
      99926    2    1    2    0    0 -0.14210854715E-13  0.00000000000E+00 -0.14675302850E+04  0.15326607978E+04  0.44204522828E+03 0.  0.
      99925    2    3    3    0    0 -0.76377800686E+02  0.57161110509E+02 -0.10447979626E+04  0.10816052741E+04  0.26299472490E+03 0.  0.
         25    1    4    4    0    0 -0.28647000022E+02 -0.12182346805E+02 -0.46878325016E+03  0.48618340564E+03  0.12509000000E+03 0.  0.
         25    1    3    3    0    0  0.76377800686E+02 -0.57161110509E+02 -0.42273232237E+03  0.45105552371E+03  0.12509000000E+03 0.  0.
         25    1    4    4    0    0 -0.47730800664E+02  0.69343457314E+02 -0.57601471244E+03  0.59542186847E+03  0.12509000000E+03 0.  0.
<mgrwt>
<rscale>  2 0.44204523E+03</rscale>
<asrwt>0</asrwt>
<pdfrwt beam="1">  1       21 0.47890092E-02 0.44204523E+03</pdfrwt>
<pdfrwt beam="2">  1       21 0.22060224E+00 0.44204523E+03</pdfrwt>
<totfact> 0.25456576E+04</totfact>
</mgrwt>
</event>
<event>
 7    0  0.4775379E-002  0.4648097E+03  0.7546771E-02  0.1023395E+00
         21   -1    0    0  502  501  0.00000000000E+00  0.00000000000E+00  0.14474608652E+04  0.14474608652E+04  0.00000000000E+00 0. -1.
         21   -1    0    0  501  502 -0.00000000000E+00 -0.00000000000E+00 -0.37315006910E+02  0.37315006910E+02  0.00000000000E+00 0. -1.
      99926    2    1    2    0    0  0.00000000000E+00  0.00000000000E+00  0.14101458583E+04  0.14847758722E+04  0.46480969090E+03 0.  0.
      99925    2    3    3    0    0 -0.85969965290E+02  0.86137942329E+02  0.85278578932E+03  0.90073106679E+03  0.26317726379E+03 0.  0.
         25    1    4    4    0    0 -0.68929125495E+02  0.11697144431E+02  0.41022694169E+03  0.43453618873E+03  0.12509000000E+03 0.  0.
         25    1    3    3    0    0  0.85969965290E+02 -0.86137942329E+02  0.55736006902E+03  0.58404480537E+03  0.12509000000E+03 0.  0.
         25    1    4    4    0    0 -0.17040839795E+02  0.74440797898E+02  0.44255884763E+03  0.46619487806E+03  0.12509000000E+03 0.  0.
<mgrwt>
<rscale>  2 0.46480969E+03</rscale>
<asrwt>0</asrwt>
<pdfrwt beam="1">  1       21 0.21286185E+00 0.46480969E+03</pdfrwt>
<pdfrwt beam="2">  1       21 0.54875020E-02 0.46480969E+03</pdfrwt>
<totfact> 0.22398766E+04</totfact>
</mgrwt>
</event>
<event>
 7    0  0.4775379E-002  0.4608623E+03  0.7546771E-02  0.1024531E+00
         21   -1    0    0  502  501  0.00000000000E+00  0.00000000000E+00  0.11224759643E+03  0.11224759643E+03  0.00000000000E+00 0. -1.
         21   -1    0    0  501  502 -0.00000000000E+00 -0.00000000000E+00 -0.47304804103E+03  0.47304804103E+03  0.00000000000E+00 0. -1.
      99926    2    1    2    0    0  0.35527136788E-14  0.00000000000E+00 -0.36080044460E+03  0.58529563745E+03  0.46086225968E+03 0.  0.
      99925    2    3    3    0    0  0.31460317806E+02  0.10744575020E+03 -0.27552676062E+03  0.39700477174E+03  0.26298945251E+03 0.  0.
         25    1    4    4    0    0  0.18753333257E+02  0.95613206662E+02 -0.16957868370E+03  0.23215945137E+03  0.12509000000E+03 0.  0.
         25    1    3    3    0    0 -0.31460317806E+02 -0.10744575020E+03 -0.85273683986E+02  0.18829086572E+03  0.12509000000E+03 0.  0.
         25    1    4    4    0    0  0.12706984549E+02  0.11832543538E+02 -0.10594807692E+03  0.16484532036E+03  0.12509000000E+03 0.  0.
<mgrwt>
<rscale>  2 0.46086226E+03</rscale>
<asrwt>0</asrwt>
<pdfrwt beam="1">  1       21 0.16507000E-01 0.46086226E+03</pdfrwt>
<pdfrwt beam="2">  1       21 0.69565888E-01 0.46086226E+03</pdfrwt>
<totfact> 0.56909253E+04</totfact>
</mgrwt>
</event>
<event>
 7    0  0.4775379E-002  0.4558486E+03  0.7546771E-02  0.1025992E+00
         21   -1    0    0  502  501  0.00000000000E+00  0.00000000000E+00  0.20184402874E+04  0.20184402874E+04  0.00000000000E+00 0. -1.
         21   -1    0    0  501  502 -0.00000000000E+00 -0.00000000000E+00 -0.25737438840E+02  0.25737438840E+02  0.00000000000E+00 0. -1.
      99926    2    1    2    0    0  0.00000000000E+00  0.00000000000E+00  0.19927028486E+04  0.20441777262E+04  0.45584858648E+03 0.  0.
      99925    2    3    3    0    0  0.24127315476E+02 -0.11138474035E+03  0.12385930014E+04  0.12713143118E+04  0.26294251932E+03 0.  0.
         25    1    4    4    0    0  0.14472401592E+02 -0.69332154738E+02  0.47267433963E+03  0.49404952943E+03  0.12509000000E+03 0.  0.
         25    1    3    3    0    0 -0.24127315476E+02  0.11138474035E+03  0.75410984711E+03  0.77286341442E+03  0.12509000000E+03 0.  0.
         25    1    4    4    0    0  0.96549138838E+01 -0.42052585616E+02  0.76591866181E+03  0.77726478238E+03  0.12509000000E+03 0.  0.
<mgrwt>
<rscale>  2 0.45584859E+03</rscale>
<asrwt>0</asrwt>
<pdfrwt beam="1">  1       21 0.29682935E+00 0.45584859E+03</pdfrwt>
<pdfrwt beam="2">  1       21 0.37849189E-02 0.45584859E+03</pdfrwt>
<totfact> 0.12916524E+04</totfact>
</mgrwt>
</event>
<event>
 7    0  0.4775379E-002  0.4379104E+03  0.7546771E-02  0.1031390E+00
         21   -1    0    0  502  501  0.00000000000E+00  0.00000000000E+00  0.56189078229E+03  0.56189078229E+03  0.00000000000E+00 0. -1.
         21   -1    0    0  501  502 -0.00000000000E+00 -0.00000000000E+00 -0.85321512890E+02  0.85321512890E+02  0.00000000000E+00 0. -1.
      99926    2    1    2    0    0 -0.14210854715E-13 -0.17763568394E-14  0.47656926940E+03  0.64721229518E+03  0.43791036354E+03 0.  0.
      99925    2    3    3    0    0  0.85745121362E+02  0.12574074220E+02  0.24268479799E+03  0.36817862831E+03  0.26296246498E+03 0.  0.
         25    1    4    4    0    0  0.27062790080E+02  0.72277532361E+01  0.16706574997E+03  0.21057803289E+03  0.12509000000E+03 0.  0.
         25    1    3    3    0    0 -0.85745121362E+02 -0.12574074220E+02  0.23388447140E+03  0.27903366686E+03  0.12509000000E+03 0.  0.
         25    1    4    4    0    0  0.58682331282E+02  0.53463209841E+01  0.75619048023E+02  0.15760059542E+03  0.12509000000E+03 0.  0.
<mgrwt>
<rscale>  2 0.43791036E+03</rscale>
<asrwt>0</asrwt>
<pdfrwt beam="1">  1       21 0.82630996E-01 0.43791036E+03</pdfrwt>
<pdfrwt beam="2">  1       21 0.12547282E-01 0.43791036E+03</pdfrwt>
<totfact> 0.64070889E+04</totfact>
</mgrwt>
</event>
<event>
 7    0  0.4775379E-002  0.4883935E+03  0.7546771E-02  0.1016854E+00
         21   -1    0    0  502  501  0.00000000000E+00  0.00000000000E+00  0.13457929634E+03  0.13457929634E+03  0.00000000000E+00 0. -1.
         21   -1    0    0  501  502 -0.00000000000E+00 -0.00000000000E+00 -0.44309968224E+03  0.44309968224E+03  0.00000000000E+00 0. -1.
      99926    2    1    2    0    0  0.00000000000E+00  0.00000000000E+00 -0.30852038590E+03  0.57767897857E+03  0.48839346205E+03 0.  0.
      99925    2    3    3    0    0  0.11251790704E+03 -0.85843867948E+02 -0.17232567349E+03  0.34481430359E+03  0.26300440518E+03 0.  0.
         25    1    3    3    0    0 -0.11251790704E+03  0.85843867948E+02 -0.13619471241E+03  0.23286467499E+03  0.12509000000E+03 0.  0.
         25    1    4    4    0    0  0.27903488715E+02 -0.37721446027E+02 -0.11495526703E+03  0.17624906720E+03  0.12509000000E+03 0.  0.
         25    1    4    4    0    0  0.84614418322E+02 -0.48122421921E+02 -0.57370406464E+02  0.16856523638E+03  0.12509000000E+03 0.  0.
<mgrwt>
<rscale>  2 0.48839346E+03</rscale>
<asrwt>0</asrwt>
<pdfrwt beam="1">  1       21 0.19791073E-01 0.48839346E+03</pdfrwt>
<pdfrwt beam="2">  1       21 0.65161719E-01 0.48839346E+03</pdfrwt>
<totfact> 0.46514370E+04</totfact>
</mgrwt>
</event>
<event>
 7    0  0.4775379E-002  0.4541122E+03  0.7546771E-02  0.1026503E+00
         21   -1    0    0  502  501  0.00000000000E+00  0.00000000000E+00  0.14101723564E+03  0.14101723564E+03  0.00000000000E+00 0. -1.
         21   -1    0    0  501  502 -0.00000000000E+00 -0.00000000000E+00 -0.36558986009E+03  0.36558986009E+03  0.00000000000E+00 0. -1.
      99926    2    1    2    0    0  0.00000000000E+00 -0.71054273576E-14 -0.22457262446E+03  0.50660709573E+03  0.45411219515E+03 0.  0.
      99925    2    3    3    0    0 -0.67870979696E+02  0.50490137159E+02 -0.22367574647E+03  0.35559704200E+03  0.26317806308E+03 0.  0.
         25    1    3    3    0    0  0.67870979696E+02 -0.50490137159E+02 -0.89687798286E+00  0.15101005372E+03  0.12509000000E+03 0.  0.
         25    1    4    4    0    0 -0.36866052886E+02  0.70109745084E+01 -0.15670638118E+03  0.20399180773E+03  0.12509000000E+03 0.  0.
         25    1    4    4    0    0 -0.31004926809E+02  0.43479162650E+02 -0.66969365290E+02  0.15160523427E+03  0.12509000000E+03 0.  0.
<mgrwt>
<rscale>  2 0.45411220E+03</rscale>
<asrwt>0</asrwt>
<pdfrwt beam="1">  1       21 0.20737829E-01 0.45411220E+03</pdfrwt>
<pdfrwt beam="2">  1       21 0.53763215E-01 0.45411220E+03</pdfrwt>
<totfact> 0.65267633E+04</totfact>
</mgrwt>
</event>
<event>
 7    0  0.4775379E-002  0.4566470E+03  0.7546771E-02  0.1025758E+00
         21   -1    0    0  502  501  0.00000000000E+00  0.00000000000E+00  0.70561503751E+03  0.70561503751E+03  0.00000000000E+00 0.  1.
         21   -1    0    0  501  502 -0.00000000000E+00 -0.00000000000E+00 -0.73881095093E+02  0.73881095093E+02  0.00000000000E+00 0.  1.
      99926    2    1    2    0    0  0.00000000000E+00  0.00000000000E+00  0.63173394241E+03  0.77949613260E+03  0.45664696073E+03 0.  0.
      99925    2    3    3    0    0  0.61842404013E+02  0.76022405931E+02  0.49905325950E+03  0.57248028573E+03  0.26282243548E+03 0.  0.
         25    1    4    4    0    0  0.16250068590E+01  0.51058096079E+02  0.19427302936E+03  0.23664126407E+03  0.12509000000E+03 0.  0.
         25    1    3    3    0    0 -0.61842404013E+02 -0.76022405931E+02  0.13268068291E+03  0.20701584687E+03  0.12509000000E+03 0.  0.
         25    1    4    4    0    0  0.60217397155E+02  0.24964309852E+02  0.30478023013E+03  0.33583902166E+03  0.12509000000E+03 0.  0.
<mgrwt>
<rscale>  2 0.45664696E+03</rscale>
<asrwt>0</asrwt>
<pdfrwt beam="1">  1       21 0.10376691E+00 0.45664696E+03</pdfrwt>
<pdfrwt beam="2">  1       21 0.10864867E-01 0.45664696E+03</pdfrwt>
<totfact> 0.48147147E+04</totfact>
</mgrwt>
</event>
<event>
 7    0  0.4775379E-002  0.4516950E+03  0.7546771E-02  0.1027218E+00
         21   -1    0    0  502  501  0.00000000000E+00  0.00000000000E+00  0.15552008802E+04  0.15552008802E+04  0.00000000000E+00 0.  1.
         21   -1    0    0  501  502 -0.00000000000E+00 -0.00000000000E+00 -0.32797755654E+02  0.32797755654E+02  0.00000000000E+00 0.  1.
      99926    2    1    2    0    0  0.35527136788E-14  0.00000000000E+00  0.15224031245E+04  0.15879986359E+04  0.45169502305E+03 0.  0.
      99925    2    3    3    0    0 -0.19731765119E+02 -0.99374651096E+02  0.81060422439E+03  0.85822480364E+03  0.26307022092E+03 0.  0.
         25    1    4    4    0    0 -0.21528344243E+02 -0.18375103344E+02  0.29877361566E+03  0.32513734874E+03  0.12509000000E+03 0.  0.
         25    1    4    4    0    0  0.17965791246E+01 -0.80999547753E+02  0.51183060873E+03  0.53308745490E+03  0.12509000000E+03 0.  0.
         25    1    3    3    0    0  0.19731765119E+02  0.99374651096E+02  0.71179890015E+03  0.72977383222E+03  0.12509000000E+03 0.  0.
<mgrwt>
<rscale>  2 0.45169502E+03</rscale>
<asrwt>0</asrwt>
<pdfrwt beam="1">  1       21 0.22870596E+00 0.45169502E+03</pdfrwt>
<pdfrwt beam="2">  1       21 0.48232004E-02 0.45169502E+03</pdfrwt>
<totfact> 0.22268360E+04</totfact>
</mgrwt>
</event>
<event>
 7    0  0.4775379E-002  0.4514387E+03  0.7546771E-02  0.1027294E+00
         21   -1    0    0  502  501  0.00000000000E+00  0.00000000000E+00  0.23426499359E+03  0.23426499359E+03  0.00000000000E+00 0.  1.
         21   -1    0    0  501  502 -0.00000000000E+00 -0.00000000000E+00 -0.21748541176E+03  0.21748541176E+03  0.00000000000E+00 0.  1.
      99926    2    1    2    0    0 -0.35527136788E-14 -0.14210854715E-13  0.16779581834E+02  0.45175040535E+03  0.45143867177E+03 0.  0.
      99925    2    3    3    0    0 -0.21876715297E+02 -0.65433578469E+02  0.96130455293E+02  0.28833616766E+03  0.26293827656E+03 0.  0.
         25    1    4    4    0    0 -0.21940971775E+02 -0.46115176996E+02  0.10504223982E+02  0.13552070917E+03  0.12509000000E+03 0.  0.
         25    1    4    4    0    0  0.64256478648E-01 -0.19318401473E+02  0.85626231311E+02  0.15281545849E+03  0.12509000000E+03 0.  0.
         25    1    3    3    0    0  0.21876715297E+02  0.65433578469E+02 -0.79350873458E+02  0.16341423770E+03  0.12509000000E+03 0.  0.
<mgrwt>
<rscale>  2 0.45143867E+03</rscale>
<asrwt>0</asrwt>
<pdfrwt beam="1">  1       21 0.34450734E-01 0.45143867E+03</pdfrwt>
<pdfrwt beam="2">  1       21 0.31983149E-01 0.45143867E+03</pdfrwt>
<totfact> 0.70774339E+04</totfact>
</mgrwt>
</event>
<event>
 7    0  0.4775379E-002  0.4675903E+03  0.7546771E-02  0.1022603E+00
         21   -1    0    0  502  501  0.00000000000E+00  0.00000000000E+00  0.38517193242E+03  0.38517193242E+03  0.00000000000E+00 0. -1.
         21   -1    0    0  501  502 -0.00000000000E+00 -0.00000000000E+00 -0.14191110923E+03  0.14191110923E+03  0.00000000000E+00 0. -1.
      99926    2    1    2    0    0  0.00000000000E+00  0.00000000000E+00  0.24326082320E+03  0.52708304165E+03  0.46759031715E+03 0.  0.
      99925    2    3    3    0    0 -0.39728164817E+02 -0.50590836550E+02  0.31107103751E+02  0.27253546536E+03  0.26300222081E+03 0.  0.
         25    1    3    3    0    0  0.39728164817E+02  0.50590836550E+02  0.21215371945E+03  0.25454757629E+03  0.12509000000E+03 0.  0.
         25    1    4    4    0    0 -0.57163513417E+02 -0.19289157570E+02  0.56910708952E+00  0.13887969920E+03  0.12509000000E+03 0.  0.
         25    1    4    4    0    0  0.17435348600E+02 -0.31301678979E+02  0.30537996662E+02  0.13365576616E+03  0.12509000000E+03 0.  0.
<mgrwt>
<rscale>  2 0.46759032E+03</rscale>
<asrwt>0</asrwt>
<pdfrwt beam="1">  1       21 0.56642931E-01 0.46759032E+03</pdfrwt>
<pdfrwt beam="2">  1       21 0.20869281E-01 0.46759032E+03</pdfrwt>
<totfact> 0.57450363E+04</totfact>
</mgrwt>
</event>
<event>
 7    0  0.4775379E-002  0.4578929E+03  0.7546771E-02  0.1025394E+00
         21   -1    0    0  502  501  0.00000000000E+00  0.00000000000E+00  0.10963789211E+03  0.10963789211E+03  0.00000000000E+00 0. -1.
         21   -1    0    0  501  502 -0.00000000000E+00 -0.00000000000E+00 -0.47808726025E+03  0.47808726025E+03  0.00000000000E+00 0. -1.
      99926    2    1    2    0    0  0.00000000000E+00  0.00000000000E+00 -0.36844936815E+03  0.58772515236E+03  0.45789291087E+03 0.  0.
      99925    2    3    3    0    0 -0.89652555764E+02  0.45858459816E+02 -0.30498819140E+03  0.41505376462E+03  0.26289018912E+03 0.  0.
         25    1    4    4    0    0 -0.76542419071E+02  0.46676302628E+02 -0.19119826936E+03  0.24544185758E+03  0.12509000000E+03 0.  0.
         25    1    4    4    0    0 -0.13110136693E+02 -0.81784281136E+00 -0.11378992204E+03  0.16961190704E+03  0.12509000000E+03 0.  0.
         25    1    3    3    0    0  0.89652555764E+02 -0.45858459816E+02 -0.63461176745E+02  0.17267138774E+03  0.12509000000E+03 0.  0.
<mgrwt>
<rscale>  2 0.45789291E+03</rscale>
<asrwt>0</asrwt>
<pdfrwt beam="1">  1       21 0.16123219E-01 0.45789291E+03</pdfrwt>
<pdfrwt beam="2">  1       21 0.70306950E-01 0.45789291E+03</pdfrwt>
<totfact> 0.58100292E+04</totfact>
</mgrwt>
</event>
<event>
 7    0  0.4775379E-002  0.4593381E+03  0.7546771E-02  0.1024973E+00
         21   -1    0    0  502  501  0.00000000000E+00  0.00000000000E+00  0.99963805789E+03  0.99963805789E+03  0.00000000000E+00 0.  1.
         21   -1    0    0  501  502 -0.00000000000E+00 -0.00000000000E+00 -0.52766967520E+02  0.52766967520E+02  0.00000000000E+00 0.  1.
      99926    2    1    2    0    0  0.00000000000E+00  0.00000000000E+00  0.94687109037E+03  0.10524050254E+04  0.45933808435E+03 0.  0.
      99925    2    3    3    0    0 -0.65489389557E+02 -0.81310678889E+02  0.71472532673E+03  0.76878653109E+03  0.26324921855E+03 0.  0.
         25    1    4    4    0    0 -0.35095465830E+02 -0.78562085597E+02  0.33429161798E+03  0.36715403711E+03  0.12509000000E+03 0.  0.
         25    1    3    3    0    0  0.65489389557E+02  0.81310678889E+02  0.23214576364E+03  0.28361849432E+03  0.12509000000E+03 0.  0.
         25    1    4    4    0    0 -0.30393923728E+02 -0.27485932920E+01  0.38043370875E+03  0.40163249397E+03  0.12509000000E+03 0.  0.
<mgrwt>
<rscale>  2 0.45933808E+03</rscale>
<asrwt>0</asrwt>
<pdfrwt beam="1">  1       21 0.14700558E+00 0.45933808E+03</pdfrwt>
<pdfrwt beam="2">  1       21 0.77598488E-02 0.45933808E+03</pdfrwt>
<totfact> 0.35956300E+04</totfact>
</mgrwt>
</event>
<event>
 7    0  0.4775379E-002  0.4571468E+03  0.7546771E-02  0.1025612E+00
         21   -1    0    0  502  501  0.00000000000E+00  0.00000000000E+00  0.47192052049E+03  0.47192052049E+03  0.00000000000E+00 0. -1.
         21   -1    0    0  501  502 -0.00000000000E+00 -0.00000000000E+00 -0.11070889500E+03  0.11070889500E+03  0.00000000000E+00 0. -1.
      99926    2    1    2    0    0  0.00000000000E+00  0.00000000000E+00  0.36121162550E+03  0.58262941549E+03  0.45714680071E+03 0.  0.
      99925    2    3    3    0    0  0.76827513101E+02  0.79727682460E+02  0.26673043741E+03  0.39070971061E+03  0.26315391238E+03 0.  0.
         25    1    3    3    0    0 -0.76827513101E+02 -0.79727682460E+02  0.94481188085E+02  0.19191970488E+03  0.12509000000E+03 0.  0.
         25    1    4    4    0    0  0.19527907867E+02  0.76177274577E+02  0.13274945293E+03  0.19863091829E+03  0.12509000000E+03 0.  0.
         25    1    4    4    0    0  0.57299605235E+02  0.35504078824E+01  0.13398098448E+03  0.19207879232E+03  0.12509000000E+03 0.  0.
<mgrwt>
<rscale>  2 0.45714680E+03</rscale>
<asrwt>0</asrwt>
<pdfrwt beam="1">  1       21 0.69400076E-01 0.45714680E+03</pdfrwt>
<pdfrwt beam="2">  1       21 0.16280720E-01 0.45714680E+03</pdfrwt>
<totfact> 0.58756892E+04</totfact>
</mgrwt>
</event>
<event>
 7    0  0.4775379E-002  0.4558388E+03  0.7546771E-02  0.1025995E+00
         21   -1    0    0  502  501  0.00000000000E+00  0.00000000000E+00  0.26445013301E+04  0.26445013301E+04  0.00000000000E+00 0. -1.
         21   -1    0    0  501  502 -0.00000000000E+00 -0.00000000000E+00 -0.19643500244E+02  0.19643500244E+02  0.00000000000E+00 0. -1.
      99926    2    1    2    0    0 -0.14210854715E-13  0.00000000000E+00  0.26248578299E+04  0.26641448304E+04  0.45583884224E+03 0.  0.
      99925    2    3    3    0    0 -0.10496825418E+03 -0.16574480762E+02  0.14128607147E+04  0.14410840947E+04  0.26316329739E+03 0.  0.
         25    1    4    4    0    0 -0.31626146793E+02 -0.31987748071E+02  0.81016958478E+03  0.82100285833E+03  0.12509000000E+03 0.  0.
         25    1    3    3    0    0  0.10496825418E+03  0.16574480762E+02  0.12119971152E+04  0.12230607357E+04  0.12509000000E+03 0.  0.
         25    1    4    4    0    0 -0.73342107387E+02  0.15413267308E+02  0.60269112989E+03  0.62008123635E+03  0.12509000000E+03 0.  0.
<mgrwt>
<rscale>  2 0.45583884E+03</rscale>
<asrwt>0</asrwt>
<pdfrwt beam="1">  1       21 0.38889701E+00 0.45583884E+03</pdfrwt>
<pdfrwt beam="2">  1       21 0.28887519E-02 0.45583884E+03</pdfrwt>
<totfact> 0.55576867E+03</totfact>
</mgrwt>
</event>
<event>
 7    0  0.4775379E-002  0.4650969E+03  0.7546771E-02  0.1023313E+00
         21   -1    0    0  502  501  0.00000000000E+00  0.00000000000E+00  0.42041566953E+02  0.42041566953E+02  0.00000000000E+00 0.  1.
         21   -1    0    0  501  502 -0.00000000000E+00 -0.00000000000E+00 -0.12863170155E+04  0.12863170155E+04  0.00000000000E+00 0.  1.
      99926    2    1    2    0    0  0.22204460493E-14  0.00000000000E+00 -0.12442754485E+04  0.13283585825E+04  0.46509690573E+03 0.  0.
      99925    2    3    3    0    0 -0.28890556518E+01  0.54265337222E+02 -0.46221332434E+03  0.53449351351E+03  0.26284802704E+03 0.  0.
         25    1    3    3    0    0  0.28890556518E+01 -0.54265337222E+02 -0.78206212421E+03  0.79386506895E+03  0.12509000000E+03 0.  0.
         25    1    4    4    0    0  0.17707205752E+02  0.54902305341E+02 -0.28565794331E+03  0.31713684262E+03  0.12509000000E+03 0.  0.
         25    1    4    4    0    0 -0.20596261404E+02 -0.63696811856E+00 -0.17655538103E+03  0.21735667089E+03  0.12509000000E+03 0.  0.
<mgrwt>
<rscale>  2 0.46509691E+03</rscale>
<asrwt>0</asrwt>
<pdfrwt beam="1">  1       21 0.61825841E-02 0.46509691E+03</pdfrwt>
<pdfrwt beam="2">  1       21 0.18916424E+00 0.46509691E+03</pdfrwt>
<totfact> 0.26185021E+04</totfact>
</mgrwt>
</event>
<event>
 7    0  0.4775379E-002  0.4692105E+03  0.7546771E-02  0.1022143E+00
         21   -1    0    0  502  501  0.00000000000E+00  0.00000000000E+00  0.17227326325E+04  0.17227326325E+04  0.00000000000E+00 0. -1.
         21   -1    0    0  501  502 -0.00000000000E+00 -0.00000000000E+00 -0.31949022096E+02  0.31949022096E+02  0.00000000000E+00 0. -1.
      99926    2    1    2    0    0  0.00000000000E+00  0.00000000000E+00  0.16907836104E+04  0.17546816546E+04  0.46921049836E+03 0.  0.
      99925    2    3    3    0    0  0.89797665613E+02  0.88471995614E+02  0.10541141169E+04  0.10937077770E+04  0.26296238390E+03 0.  0.
         25    1    3    3    0    0 -0.89797665613E+02 -0.88471995614E+02  0.63666949353E+03  0.66097387759E+03  0.12509000000E+03 0.  0.
         25    1    4    4    0    0  0.43182980712E+02  0.58503604877E+02  0.39809085349E+03  0.42356968416E+03  0.12509000000E+03 0.  0.
         25    1    4    4    0    0  0.46614684901E+02  0.29968390737E+02  0.65602326339E+03  0.67013809286E+03  0.12509000000E+03 0.  0.
<mgrwt>
<rscale>  2 0.46921050E+03</rscale>
<asrwt>0</asrwt>
<pdfrwt beam="1">  1       21 0.25334297E+00 0.46921050E+03</pdfrwt>
<pdfrwt beam="2">  1       21 0.46983868E-02 0.46921050E+03</pdfrwt>
<totfact> 0.16275762E+04</totfact>
</mgrwt>
</event>
<event>
 7    0  0.4775379E-002  0.4422665E+03  0.7546771E-02  0.1030054E+00
         21   -1    0    0  502  501  0.00000000000E+00  0.00000000000E+00  0.13947651315E+03  0.13947651315E+03  0.00000000000E+00 0.  1.
         21   -1    0    0  501  502 -0.00000000000E+00 -0.00000000000E+00 -0.35059607802E+03  0.35059607802E+03  0.00000000000E+00 0.  1.
      99926    2    1    2    0    0  0.00000000000E+00  0.00000000000E+00 -0.21111956487E+03  0.49007259116E+03  0.44226651913E+03 0.  0.
      99925    2    3    3    0    0 -0.27474900612E+02  0.83816118759E+02 -0.80566517273E+02  0.28889700054E+03  0.26304087379E+03 0.  0.
         25    1    4    4    0    0 -0.28957795688E+02  0.28690611569E+02 -0.76376385075E+02  0.15212680704E+03  0.12509000000E+03 0.  0.
         25    1    3    3    0    0  0.27474900612E+02 -0.83816118759E+02 -0.13055304760E+03  0.20117559063E+03  0.12509000000E+03 0.  0.
         25    1    4    4    0    0  0.14828950763E+01  0.55125507190E+02 -0.41901321974E+01  0.13677019349E+03  0.12509000000E+03 0.  0.
<mgrwt>
<rscale>  2 0.44226652E+03</rscale>
<asrwt>0</asrwt>
<pdfrwt beam="1">  1       21 0.20511252E-01 0.44226652E+03</pdfrwt>
<pdfrwt beam="2">  1       21 0.51558246E-01 0.44226652E+03</pdfrwt>
<totfact> 0.73086934E+04</totfact>
</mgrwt>
</event>
<event>
 7    0  0.4775379E-002  0.4570026E+03  0.7546771E-02  0.1025654E+00
         21   -1    0    0  502  501  0.00000000000E+00  0.00000000000E+00  0.37390895104E+03  0.37390895104E+03  0.00000000000E+00 0.  1.
         21   -1    0    0  501  502 -0.00000000000E+00 -0.00000000000E+00 -0.13964055219E+03  0.13964055219E+03  0.00000000000E+00 0.  1.
      99926    2    1    2    0    0 -0.35527136788E-14  0.00000000000E+00  0.23426839884E+03  0.51354950323E+03  0.45700263629E+03 0.  0.
      99925    2    3    3    0    0 -0.22895545112E+02  0.90218272405E+02  0.22310649621E+03  0.35723047422E+03  0.26300866982E+03 0.  0.
         25    1    3    3    0    0  0.22895545112E+02 -0.90218272405E+02  0.11161902637E+02  0.15631902902E+03  0.12509000000E+03 0.  0.
         25    1    4    4    0    0 -0.47861462750E+02  0.65279317229E+02  0.11674866165E+03  0.18928778875E+03  0.12509000000E+03 0.  0.
         25    1    4    4    0    0  0.24965917638E+02  0.24938955177E+02  0.10635783456E+03  0.16794268547E+03  0.12509000000E+03 0.  0.
<mgrwt>
<rscale>  2 0.45700264E+03</rscale>
<asrwt>0</asrwt>
<pdfrwt beam="1">  1       21 0.54986610E-01 0.45700264E+03</pdfrwt>
<pdfrwt beam="2">  1       21 0.20535375E-01 0.45700264E+03</pdfrwt>
<totfact> 0.63316619E+04</totfact>
</mgrwt>
</event>
<event>
 7    0  0.4775379E-002  0.4529218E+03  0.7546771E-02  0.1026854E+00
         21   -1    0    0  502  501  0.00000000000E+00  0.00000000000E+00  0.26449168569E+03  0.26449168569E+03  0.00000000000E+00 0. -1.
         21   -1    0    0  501  502 -0.00000000000E+00 -0.00000000000E+00 -0.19389849501E+03  0.19389849501E+03  0.00000000000E+00 0. -1.
      99926    2    1    2    0    0  0.00000000000E+00  0.88817841970E-15  0.70593190682E+02  0.45839018070E+03  0.45292180251E+03 0.  0.
      99925    2    3    3    0    0 -0.35056245603E+02  0.32432312491E+01 -0.62185703238E+02  0.27260212491E+03  0.26306918845E+03 0.  0.
         25    1    4    4    0    0  0.17969513293E+02 -0.18246277947E+02 -0.24975032442E+02  0.13010415217E+03  0.12509000000E+03 0.  0.
         25    1    4    4    0    0 -0.53025758897E+02  0.21489509196E+02 -0.37210670796E+02  0.14249797273E+03  0.12509000000E+03 0.  0.
         25    1    3    3    0    0  0.35056245603E+02 -0.32432312491E+01  0.13277889392E+03  0.18578805579E+03  0.12509000000E+03 0.  0.
<mgrwt>
<rscale>  2 0.45292180E+03</rscale>
<asrwt>0</asrwt>
<pdfrwt beam="1">  1       21 0.38895836E-01 0.45292180E+03</pdfrwt>
<pdfrwt beam="2">  1       21 0.28514485E-01 0.45292180E+03</pdfrwt>
<totfact> 0.69441755E+04</totfact>
</mgrwt>
</event>
<event>
 7    0  0.4775379E-002  0.4334393E+03  0.7546771E-02  0.1032779E+00
         21   -1    0    0  502  501  0.00000000000E+00  0.00000000000E+00  0.43866670918E+03  0.43866670918E+03  0.00000000000E+00 0.  1.
         21   -1    0    0  501  502 -0.00000000000E+00 -0.00000000000E+00 -0.10706852787E+03  0.10706852787E+03  0.00000000000E+00 0.  1.
      99926    2    1    2    0    0 -0.35527136788E-14 -0.14210854715E-13  0.33159818131E+03  0.54573523705E+03  0.43343926347E+03 0.  0.
      99925    2    3    3    0    0 -0.16193122872E+02 -0.84680718596E+02  0.25171976914E+03  0.37409284672E+03  0.26296306672E+03 0.  0.
         25    1    4    4    0    0 -0.26308693983E+01 -0.11964542239E+01  0.12649579708E+03  0.17792427534E+03  0.12509000000E+03 0.  0.
         25    1    3    3    0    0  0.16193122872E+02  0.84680718596E+02  0.79878412166E+02  0.17164239034E+03  0.12509000000E+03 0.  0.
         25    1    4    4    0    0 -0.13562253473E+02 -0.83484264373E+02  0.12522397206E+03  0.19616857138E+03  0.12509000000E+03 0.  0.
<mgrwt>
<rscale>  2 0.43343926E+03</rscale>
<asrwt>0</asrwt>
<pdfrwt beam="1">  1       21 0.64509809E-01 0.43343926E+03</pdfrwt>
<pdfrwt beam="2">  1       21 0.15745372E-01 0.43343926E+03</pdfrwt>
<totfact> 0.73986391E+04</totfact>
</mgrwt>
</event>
<event>
 7    0  0.4775379E-002  0.4561637E+03  0.7546771E-02  0.1025900E+00
         21   -1    0    0  502  501  0.00000000000E+00  0.00000000000E+00  0.22052372033E+03  0.22052372033E+03  0.00000000000E+00 0. -1.
         21   -1    0    0  501  502 -0.00000000000E+00 -0.00000000000E+00 -0.23589899564E+03  0.23589899564E+03  0.00000000000E+00 0. -1.
      99926    2    1    2    0    0  0.00000000000E+00  0.14210854715E-13 -0.15375275311E+02  0.45642271597E+03  0.45616367300E+03 0.  0.
      99925    2    3    3    0    0 -0.60718938076E+02 -0.92413335074E+02  0.19911021691E+02  0.28577792468E+03  0.26276521746E+03 0.  0.
         25    1    3    3    0    0  0.60718938076E+02  0.92413335074E+02 -0.35286297002E+02  0.17064479130E+03  0.12509000000E+03 0.  0.
         25    1    4    4    0    0 -0.51225994590E+02 -0.57323048701E+02  0.44060471845E+02  0.15329340401E+03  0.12509000000E+03 0.  0.
         25    1    4    4    0    0 -0.94929434862E+01 -0.35090286373E+02 -0.24149450155E+02  0.13248452067E+03  0.12509000000E+03 0.  0.
<mgrwt>
<rscale>  2 0.45616367E+03</rscale>
<asrwt>0</asrwt>
<pdfrwt beam="1">  1       21 0.32429959E-01 0.45616367E+03</pdfrwt>
<pdfrwt beam="2">  1       21 0.34691029E-01 0.45616367E+03</pdfrwt>
<totfact> 0.67809909E+04</totfact>
</mgrwt>
</event>
<event>
 7    0  0.4775379E-002  0.4569033E+03  0.7546771E-02  0.1025683E+00
         21   -1    0    0  502  501  0.00000000000E+00  0.00000000000E+00  0.11199651915E+03  0.11199651915E+03  0.00000000000E+00 0.  1.
         21   -1    0    0  501  502 -0.00000000000E+00 -0.00000000000E+00 -0.46599798531E+03  0.46599798531E+03  0.00000000000E+00 0.  1.
      99926    2    1    2    0    0  0.00000000000E+00  0.00000000000E+00 -0.35400146616E+03  0.57799450446E+03  0.45690328204E+03 0.  0.
      99925    2    3    3    0    0 -0.24074868742E+02  0.97803575067E+02 -0.29242808537E+03  0.40599471398E+03  0.26300643352E+03 0.  0.
         25    1    4    4    0    0  0.63665593899E+01  0.18012729684E+02 -0.16580693543E+03  0.20857717863E+03  0.12509000000E+03 0.  0.
         25    1    4    4    0    0 -0.30441428132E+02  0.79790845383E+02 -0.12662114994E+03  0.19741753536E+03  0.12509000000E+03 0.  0.
         25    1    3    3    0    0  0.24074868742E+02 -0.97803575067E+02 -0.61573380795E+02  0.17199979047E+03  0.12509000000E+03 0.  0.
<mgrwt>
<rscale>  2 0.45690328E+03</rscale>
<asrwt>0</asrwt>
<pdfrwt beam="1">  1       21 0.16470076E-01 0.45690328E+03</pdfrwt>
<pdfrwt beam="2">  1       21 0.68529116E-01 0.45690328E+03</pdfrwt>
<totfact> 0.59158392E+04</totfact>
</mgrwt>
</event>
<event>
 7    0  0.4775379E-002  0.4538206E+03  0.7546771E-02  0.1026589E+00
         21   -1    0    0  502  501  0.00000000000E+00  0.00000000000E+00  0.65266823281E+03  0.65266823281E+03  0.00000000000E+00 0.  1.
         21   -1    0    0  501  502 -0.00000000000E+00 -0.00000000000E+00 -0.78888896004E+02  0.78888896004E+02  0.00000000000E+00 0.  1.
      99926    2    1    2    0    0  0.88817841970E-15  0.35527136788E-14  0.57377933681E+03  0.73155712882E+03  0.45382056517E+03 0.  0.
      99925    2    3    3    0    0  0.77880807477E+01  0.24587669727E+02  0.53736318972E+03  0.59874579055E+03  0.26281574597E+03 0.  0.
         25    1    4    4    0    0  0.12590131767E+02  0.49730077598E+02  0.24784807642E+03  0.28232564375E+03  0.12509000000E+03 0.  0.
         25    1    4    4    0    0 -0.48020510197E+01 -0.25142407870E+02  0.28951511330E+03  0.31642014680E+03  0.12509000000E+03 0.  0.
         25    1    3    3    0    0 -0.77880807477E+01 -0.24587669727E+02  0.36416147089E+02  0.13281133827E+03  0.12509000000E+03 0.  0.
<mgrwt>
<rscale>  2 0.45382057E+03</rscale>
<asrwt>0</asrwt>
<pdfrwt beam="1">  1       21 0.95980620E-01 0.45382057E+03</pdfrwt>
<pdfrwt beam="2">  1       21 0.11601309E-01 0.45382057E+03</pdfrwt>
<totfact> 0.51700719E+04</totfact>
</mgrwt>
</event>
<event>
 7    0  0.4775379E-002  0.4640544E+03  0.7546771E-02  0.1023612E+00
         21   -1    0    0  502  501  0.00000000000E+00  0.00000000000E+00  0.52110961325E+02  0.52110961325E+02  0.00000000000E+00 0. -1.
         21   -1    0    0  501  502 -0.00000000000E+00 -0.00000000000E+00 -0.10331152761E+04  0.10331152761E+04  0.00000000000E+00 0. -1.
      99926    2    1    2    0    0  0.00000000000E+00  0.14210854715E-13 -0.98100431481E+03  0.10852262375E+04  0.46405443732E+03 0.  0.
      99925    2    3    3    0    0 -0.95729119964E+02 -0.70472128089E+02 -0.67099429550E+03  0.73042473603E+03  0.26297635856E+03 0.  0.
         25    1    3    3    0    0  0.95729119964E+02  0.70472128089E+02 -0.31001001931E+03  0.35480150143E+03  0.12509000000E+03 0.  0.
         25    1    4    4    0    0 -0.51724540979E+02 -0.76512622737E+02 -0.38016408725E+03  0.41073330874E+03  0.12509000000E+03 0.  0.
         25    1    4    4    0    0 -0.44004578985E+02  0.60404946476E+01 -0.29083020825E+03  0.31969142729E+03  0.12509000000E+03 0.  0.
<mgrwt>
<rscale>  2 0.46405444E+03</rscale>
<asrwt>0</asrwt>
<pdfrwt beam="1">  1       21 0.76633761E-02 0.46405444E+03</pdfrwt>
<pdfrwt beam="2">  1       21 0.15192873E+00 0.46405444E+03</pdfrwt>
<totfact> 0.33575307E+04</totfact>
</mgrwt>
</event>
<event>
 7    0  0.4775379E-002  0.4539625E+03  0.7546771E-02  0.1026547E+00
         21   -1    0    0  502  501  0.00000000000E+00  0.00000000000E+00  0.22212740524E+03  0.22212740524E+03  0.00000000000E+00 0. -1.
         21   -1    0    0  501  502 -0.00000000000E+00 -0.00000000000E+00 -0.23194114726E+03  0.23194114726E+03  0.00000000000E+00 0. -1.
      99926    2    1    2    0    0  0.00000000000E+00  0.00000000000E+00 -0.98137420168E+01  0.45406855250E+03  0.45396248836E+03 0.  0.
      99925    2    3    3    0    0  0.10260248480E+03 -0.31829767142E+02 -0.38582791504E+02  0.28669002857E+03  0.26298695161E+03 0.  0.
         25    1    4    4    0    0  0.63082967640E+02 -0.36502863984E+00 -0.55579001532E+02  0.15071870343E+03  0.12509000000E+03 0.  0.
         25    1    3    3    0    0 -0.10260248480E+03  0.31829767142E+02  0.28769049487E+02  0.16737852393E+03  0.12509000000E+03 0.  0.
         25    1    4    4    0    0  0.39519517158E+02 -0.31464738502E+02  0.16996210029E+02  0.13597132514E+03  0.12509000000E+03 0.  0.
<mgrwt>
<rscale>  2 0.45396249E+03</rscale>
<asrwt>0</asrwt>
<pdfrwt beam="1">  1       21 0.32665795E-01 0.45396249E+03</pdfrwt>
<pdfrwt beam="2">  1       21 0.34108992E-01 0.45396249E+03</pdfrwt>
<totfact> 0.69185047E+04</totfact>
</mgrwt>
</event>
<event>
 7    0  0.4775379E-002  0.4555087E+03  0.7546771E-02  0.1026092E+00
         21   -1    0    0  502  501  0.00000000000E+00  0.00000000000E+00  0.19129682041E+03  0.19129682041E+03  0.00000000000E+00 0.  1.
         21   -1    0    0  501  502 -0.00000000000E+00 -0.00000000000E+00 -0.27115996018E+03  0.27115996018E+03  0.00000000000E+00 0.  1.
      99926    2    1    2    0    0  0.71054273576E-14 -0.17763568394E-14 -0.79863139761E+02  0.46245678059E+03  0.45550867480E+03 0.  0.
      99925    2    3    3    0    0  0.61627166727E+02 -0.14387833181E+02  0.45562011348E+02  0.27435070931E+03  0.26303516380E+03 0.  0.
         25    1    4    4    0    0  0.56520054801E+02 -0.35415451248E+02  0.81079535514E+01  0.14199302023E+03  0.12509000000E+03 0.  0.
         25    1    3    3    0    0 -0.61627166727E+02  0.14387833181E+02 -0.12542515111E+03  0.18810607128E+03  0.12509000000E+03 0.  0.
         25    1    4    4    0    0  0.51071119254E+01  0.21027618068E+02  0.37454057797E+02  0.13235768908E+03  0.12509000000E+03 0.  0.
<mgrwt>
<rscale>  2 0.45550867E+03</rscale>
<asrwt>0</asrwt>
<pdfrwt beam="1">  1       21 0.28131886E-01 0.45550867E+03</pdfrwt>
<pdfrwt beam="2">  1       21 0.39876465E-01 0.45550867E+03</pdfrwt>
<totfact> 0.67725039E+04</totfact>
</mgrwt>
</event>
<event>
 7    0  0.4775379E-002  0.4547468E+03  0.7546771E-02  0.1026316E+00
         21   -1    0    0  502  501  0.00000000000E+00  0.00000000000E+00  0.54043335427E+02  0.54043335427E+02  0.00000000000E+00 0.  1.
         21   -1    0    0  501  502 -0.00000000000E+00 -0.00000000000E+00 -0.95661474958E+03  0.95661474958E+03  0.00000000000E+00 0.  1.
      99926    2    1    2    0    0  0.00000000000E+00  0.14210854715E-13 -0.90257141415E+03  0.10106580850E+04  0.45474675056E+03 0.  0.
      99925    2    3    3    0    0 -0.30325684841E+02 -0.10864426772E+03 -0.58005942588E+03  0.64681098147E+03  0.26300624352E+03 0.  0.
         25    1    3    3    0    0  0.30325684841E+02  0.10864426772E+03 -0.32251198827E+03  0.36384710353E+03  0.12509000000E+03 0.  0.
         25    1    4    4    0    0  0.12939485782E+02 -0.57342131588E+02 -0.35221526216E+03  0.37836311837E+03  0.12509000000E+03 0.  0.
         25    1    4    4    0    0 -0.43265170622E+02 -0.51302136135E+02 -0.22784416372E+03  0.26844786310E+03  0.12509000000E+03 0.  0.
<mgrwt>
<rscale>  2 0.45474675E+03</rscale>
<asrwt>0</asrwt>
<pdfrwt beam="1">  1       21 0.79475495E-02 0.45474675E+03</pdfrwt>
<pdfrwt beam="2">  1       21 0.14067864E+00 0.45474675E+03</pdfrwt>
<totfact> 0.38831507E+04</totfact>
</mgrwt>
</event>
<event>
 7    0  0.4775379E-002  0.4549031E+03  0.7546771E-02  0.1026270E+00
         21   -1    0    0  502  501  0.00000000000E+00  0.00000000000E+00  0.59229531497E+03  0.59229531497E+03  0.00000000000E+00 0. -1.
         21   -1    0    0  501  502 -0.00000000000E+00 -0.00000000000E+00 -0.87345274856E+02  0.87345274856E+02  0.00000000000E+00 0. -1.
      99926    2    1    2    0    0  0.00000000000E+00  0.00000000000E+00  0.50495004011E+03  0.67964058983E+03  0.45490305377E+03 0.  0.
      99925    2    3    3    0    0 -0.83082783108E+02 -0.73140829230E+02  0.28252338681E+03  0.40147974796E+03  0.26289578577E+03 0.  0.
         25    1    4    4    0    0 -0.44813153618E+02 -0.16027546195E+02  0.18608776469E+03  0.22921881520E+03  0.12509000000E+03 0.  0.
         25    1    4    4    0    0 -0.38269629490E+02 -0.57113283034E+02  0.96435622114E+02  0.17226093275E+03  0.12509000000E+03 0.  0.
         25    1    3    3    0    0  0.83082783108E+02  0.73140829230E+02  0.22242665331E+03  0.27816084187E+03  0.12509000000E+03 0.  0.
<mgrwt>
<rscale>  2 0.45490305E+03</rscale>
<asrwt>0</asrwt>
<pdfrwt beam="1">  1       21 0.87102250E-01 0.45490305E+03</pdfrwt>
<pdfrwt beam="2">  1       21 0.12844894E-01 0.45490305E+03</pdfrwt>
<totfact> 0.54064042E+04</totfact>
</mgrwt>
</event>
<event>
 7    0  0.4775379E-002  0.4596264E+03  0.7546771E-02  0.1024890E+00
         21   -1    0    0  502  501  0.00000000000E+00  0.00000000000E+00  0.17685316654E+03  0.17685316654E+03  0.00000000000E+00 0.  1.
         21   -1    0    0  501  502 -0.00000000000E+00 -0.00000000000E+00 -0.29863254921E+03  0.29863254921E+03  0.00000000000E+00 0.  1.
      99926    2    1    2    0    0  0.00000000000E+00  0.71054273576E-14 -0.12177938267E+03  0.47548571576E+03  0.45962642205E+03 0.  0.
      99925    2    3    3    0    0  0.10365298073E+02  0.63050522960E+02  0.25996534922E+02  0.27160330413E+03  0.26269702537E+03 0.  0.
         25    1    3    3    0    0 -0.10365298073E+02 -0.63050522960E+02 -0.14777591759E+03  0.20388241162E+03  0.12509000000E+03 0.  0.
         25    1    4    4    0    0  0.23112500513E+02  0.52910102932E+02 -0.15888550753E+02  0.13868533022E+03  0.12509000000E+03 0.  0.
         25    1    4    4    0    0 -0.12747202440E+02  0.10140420028E+02  0.41885085676E+02  0.13291797392E+03  0.12509000000E+03 0.  0.
<mgrwt>
<rscale>  2 0.45962642E+03</rscale>
<asrwt>0</asrwt>
<pdfrwt beam="1">  1       21 0.26007819E-01 0.45962642E+03</pdfrwt>
<pdfrwt beam="2">  1       21 0.43916551E-01 0.45962642E+03</pdfrwt>
<totfact> 0.64625100E+04</totfact>
</mgrwt>
</event>
<event>
 7    0  0.4775379E-002  0.4597110E+03  0.7546771E-02  0.1024865E+00
         21   -1    0    0  502  501  0.00000000000E+00  0.00000000000E+00  0.42350487679E+03  0.42350487679E+03  0.00000000000E+00 0. -1.
         21   -1    0    0  501  502 -0.00000000000E+00 -0.00000000000E+00 -0.12475313676E+03  0.12475313676E+03  0.00000000000E+00 0. -1.
      99926    2    1    2    0    0 -0.17763568394E-14  0.00000000000E+00  0.29875174003E+03  0.54825801355E+03  0.45971104757E+03 0.  0.
      99925    2    3    3    0    0 -0.12566503183E+02 -0.13625429729E+02  0.32567417641E+03  0.41896804867E+03  0.26292011579E+03 0.  0.
         25    1    4    4    0    0 -0.40050391184E+02 -0.10728281596E+02  0.13017918905E+03  0.18523838485E+03  0.12509000000E+03 0.  0.
         25    1    3    3    0    0  0.12566503183E+02  0.13625429729E+02 -0.26922436384E+02  0.12928996488E+03  0.12509000000E+03 0.  0.
         25    1    4    4    0    0  0.27483888000E+02 -0.28971481337E+01  0.19549498736E+03  0.23372966382E+03  0.12509000000E+03 0.  0.
<mgrwt>
<rscale>  2 0.45971105E+03</rscale>
<asrwt>0</asrwt>
<pdfrwt beam="1">  1       21 0.62280128E-01 0.45971105E+03</pdfrwt>
<pdfrwt beam="2">  1       21 0.18346050E-01 0.45971105E+03</pdfrwt>
<totfact> 0.59724195E+04</totfact>
</mgrwt>
</event>
<event>
 7    0  0.4775379E-002  0.4558525E+03  0.7546771E-02  0.1025991E+00
         21   -1    0    0  502  501  0.00000000000E+00  0.00000000000E+00  0.21399717355E+03  0.21399717355E+03  0.00000000000E+00 0.  1.
         21   -1    0    0  501  502 -0.00000000000E+00 -0.00000000000E+00 -0.24276195635E+03  0.24276195635E+03  0.00000000000E+00 0.  1.
      99926    2    1    2    0    0  0.00000000000E+00  0.00000000000E+00 -0.28764782803E+02  0.45675912990E+03  0.45585248712E+03 0.  0.
      99925    2    3    3    0    0 -0.91701580506E+02 -0.38260839274E+02 -0.74580085916E+02  0.29056760849E+03  0.26266761163E+03 0.  0.
         25    1    4    4    0    0 -0.75024886118E+02 -0.27912750532E+02 -0.11097332339E+02  0.14892452472E+03  0.12509000000E+03 0.  0.
         25    1    4    4    0    0 -0.16676694388E+02 -0.10348088742E+02 -0.63482753576E+02  0.14164308376E+03  0.12509000000E+03 0.  0.
         25    1    3    3    0    0  0.91701580506E+02  0.38260839274E+02  0.45815303113E+02  0.16619152141E+03  0.12509000000E+03 0.  0.
<mgrwt>
<rscale>  2 0.45585249E+03</rscale>
<asrwt>0</asrwt>
<pdfrwt beam="1">  1       21 0.31470173E-01 0.45585249E+03</pdfrwt>
<pdfrwt beam="2">  1       21 0.35700288E-01 0.45585249E+03</pdfrwt>
<totfact> 0.67953760E+04</totfact>
</mgrwt>
</event>
<event>
 7    0  0.4775379E-002  0.4335419E+03  0.7546771E-02  0.1032747E+00
         21   -1    0    0  502  501  0.00000000000E+00  0.00000000000E+00  0.32331628316E+03  0.32331628316E+03  0.00000000000E+00 0.  1.
         21   -1    0    0  501  502 -0.00000000000E+00 -0.00000000000E+00 -0.14533646757E+03  0.14533646757E+03  0.00000000000E+00 0.  1.
      99926    2    1    2    0    0 -0.71054273576E-14  0.00000000000E+00  0.17797981559E+03  0.46865275073E+03  0.43354190802E+03 0.  0.
      99925    2    3    3    0    0  0.47366192533E+02 -0.60795810055E+02  0.60924616826E+02  0.28079877986E+03  0.26305219847E+03 0.  0.
         25    1    4    4    0    0 -0.14939021766E+02 -0.43588377352E+02  0.29615018562E+02  0.13655650272E+03  0.12509000000E+03 0.  0.
         25    1    3    3    0    0 -0.47366192533E+02  0.60795810055E+02  0.11705519877E+03  0.18785397088E+03  0.12509000000E+03 0.  0.
         25    1    4    4    0    0  0.62305214299E+02 -0.17207432703E+02  0.31309598264E+02  0.14424227713E+03  0.12509000000E+03 0.  0.
<mgrwt>
<rscale>  2 0.43354191E+03</rscale>
<asrwt>0</asrwt>
<pdfrwt beam="1">  1       21 0.47546512E-01 0.43354191E+03</pdfrwt>
<pdfrwt beam="2">  1       21 0.21373010E-01 0.43354191E+03</pdfrwt>
<totfact> 0.80377925E+04</totfact>
</mgrwt>
</event>
<event>
 7    0  0.4775379E-002  0.4420495E+03  0.7546771E-02  0.1030120E+00
         21   -1    0    0  502  501  0.00000000000E+00  0.00000000000E+00  0.43983125823E+03  0.43983125823E+03  0.00000000000E+00 0. -1.
         21   -1    0    0  501  502 -0.00000000000E+00 -0.00000000000E+00 -0.11106974874E+03  0.11106974874E+03  0.00000000000E+00 0. -1.
      99926    2    1    2    0    0  0.00000000000E+00  0.00000000000E+00  0.32876150949E+03  0.55090100696E+03  0.44204953269E+03 0.  0.
      99925    2    3    3    0    0  0.74854774518E+02  0.18961003156E+02  0.28981049520E+03  0.39882389980E+03  0.26288328782E+03 0.  0.
         25    1    4    4    0    0  0.47566948121E+02 -0.44011166929E+01  0.20004707813E+03  0.24072458527E+03  0.12509000000E+03 0.  0.
         25    1    4    4    0    0  0.27287826397E+02  0.23362119849E+02  0.89763417068E+02  0.15809931454E+03  0.12509000000E+03 0.  0.
         25    1    3    3    0    0 -0.74854774518E+02 -0.18961003156E+02  0.38951014286E+02  0.15207710716E+03  0.12509000000E+03 0.  0.
<mgrwt>
<rscale>  2 0.44204953E+03</rscale>
<asrwt>0</asrwt>
<pdfrwt beam="1">  1       21 0.64681067E-01 0.44204953E+03</pdfrwt>
<pdfrwt beam="2">  1       21 0.16333787E-01 0.44204953E+03</pdfrwt>
<totfact> 0.68566838E+04</totfact>
</mgrwt>
</event>
<event>
 7    0  0.4775379E-002  0.4678195E+03  0.7546771E-02  0.1022537E+00
         21   -1    0    0  502  501  0.00000000000E+00  0.00000000000E+00  0.21223545360E+03  0.21223545360E+03  0.00000000000E+00 0.  1.
         21   -1    0    0  501  502 -0.00000000000E+00 -0.00000000000E+00 -0.25779756126E+03  0.25779756126E+03  0.00000000000E+00 0.  1.
      99926    2    1    2    0    0  0.14210854715E-13  0.71054273576E-14 -0.45562107658E+02  0.47003301486E+03  0.46781954790E+03 0.  0.
      99925    2    3    3    0    0 -0.10425318599E+03 -0.58909111514E+02 -0.64026382808E+02  0.29588523920E+03  0.26288721322E+03 0.  0.
         25    1    4    4    0    0 -0.65558568245E+02 -0.68004420501E+02 -0.46277899362E+02  0.16343708009E+03  0.12509000000E+03 0.  0.
         25    1    3    3    0    0  0.10425318599E+03  0.58909111514E+02  0.18464275151E+02  0.17414777565E+03  0.12509000000E+03 0.  0.
         25    1    4    4    0    0 -0.38694617746E+02  0.90953089865E+01 -0.17748483446E+02  0.13244815911E+03  0.12509000000E+03 0.  0.
<mgrwt>
<rscale>  2 0.46781955E+03</rscale>
<asrwt>0</asrwt>
<pdfrwt beam="1">  1       21 0.31211096E-01 0.46781955E+03</pdfrwt>
<pdfrwt beam="2">  1       21 0.37911406E-01 0.46781955E+03</pdfrwt>
<totfact> 0.60978449E+04</totfact>
</mgrwt>
</event>
<event>
 7    0  0.4775379E-002  0.4555748E+03  0.7546771E-02  0.1026073E+00
         21   -1    0    0  502  501  0.00000000000E+00  0.00000000000E+00  0.50780807864E+03  0.50780807864E+03  0.00000000000E+00 0. -1.
         21   -1    0    0  501  502 -0.00000000000E+00 -0.00000000000E+00 -0.10217855713E+03  0.10217855713E+03  0.00000000000E+00 0. -1.
      99926    2    1    2    0    0  0.00000000000E+00 -0.71054273576E-14  0.40562952151E+03  0.60998663577E+03  0.45557478760E+03 0.  0.
      99925    2    3    3    0    0  0.87596191337E+02 -0.43889008441E+02  0.33261339386E+03  0.43512039890E+03  0.26286641849E+03 0.  0.
         25    1    4    4    0    0  0.41347870148E+02 -0.60163035302E+02  0.19373940246E+03  0.24189192080E+03  0.12509000000E+03 0.  0.
         25    1    3    3    0    0 -0.87596191337E+02  0.43889008441E+02  0.73016127657E+02  0.17486623687E+03  0.12509000000E+03 0.  0.
         25    1    4    4    0    0  0.46248321188E+02  0.16274026860E+02  0.13887399140E+03  0.19322847810E+03  0.12509000000E+03 0.  0.
<mgrwt>
<rscale>  2 0.45557479E+03</rscale>
<asrwt>0</asrwt>
<pdfrwt beam="1">  1       21 0.74677657E-01 0.45557479E+03</pdfrwt>
<pdfrwt beam="2">  1       21 0.15026259E-01 0.45557479E+03</pdfrwt>
<totfact> 0.57804845E+04</totfact>
</mgrwt>
</event>
<event>
 7    0  0.4775379E-002  0.4749824E+03  0.7546771E-02  0.1020523E+00
         21   -1    0    0  502  501  0.00000000000E+00  0.00000000000E+00  0.40314150734E+03  0.40314150734E+03  0.00000000000E+00 0. -1.
         21   -1    0    0  501  502 -0.00000000000E+00 -0.00000000000E+00 -0.13990638493E+03  0.13990638493E+03  0.00000000000E+00 0. -1.
      99926    2    1    2    0    0 -0.71054273576E-14  0.00000000000E+00  0.26323512241E+03  0.54304789228E+03  0.47498240350E+03 0.  0.
      99925    2    3    3    0    0  0.35991038559E+02  0.10975770819E+03  0.23364699246E+03  0.37023274567E+03  0.26294345308E+03 0.  0.
         25    1    4    4    0    0  0.53470302311E+02  0.42095955744E+02  0.97535513972E+02  0.17260309182E+03  0.12509000000E+03 0.  0.
         25    1    4    4    0    0 -0.17479263752E+02  0.67661752444E+02  0.13611147849E+03  0.19762965385E+03  0.12509000000E+03 0.  0.
         25    1    3    3    0    0 -0.35991038559E+02 -0.10975770819E+03  0.29588129953E+02  0.17281514661E+03  0.12509000000E+03 0.  0.
<mgrwt>
<rscale>  2 0.47498240E+03</rscale>
<asrwt>0</asrwt>
<pdfrwt beam="1">  1       21 0.59285516E-01 0.47498240E+03</pdfrwt>
<pdfrwt beam="2">  1       21 0.20574468E-01 0.47498240E+03</pdfrwt>
<totfact> 0.53365691E+04</totfact>
</mgrwt>
</event>
<event>
 7    0  0.4775379E-002  0.4446486E+03  0.7546771E-02  0.1029330E+00
         21   -1    0    0  502  501  0.00000000000E+00  0.00000000000E+00  0.47968961826E+03  0.47968961826E+03  0.00000000000E+00 0.  1.
         21   -1    0    0  501  502 -0.00000000000E+00 -0.00000000000E+00 -0.10304181754E+03  0.10304181754E+03  0.00000000000E+00 0.  1.
      99926    2    1    2    0    0  0.00000000000E+00  0.00000000000E+00  0.37664780072E+03  0.58273143580E+03  0.44464858089E+03 0.  0.
      99925    2    3    3    0    0  0.63289136510E+01 -0.11257260438E+02  0.10551359208E+03  0.28385345359E+03  0.26319742389E+03 0.  0.
         25    1    4    4    0    0  0.21750908192E+02  0.26531705988E+02  0.33983841613E+02  0.13408744543E+03  0.12509000000E+03 0.  0.
         25    1    4    4    0    0 -0.15421994541E+02 -0.37788966426E+02  0.71529750469E+02  0.14976600816E+03  0.12509000000E+03 0.  0.
         25    1    3    3    0    0 -0.63289136510E+01  0.11257260438E+02  0.27113420864E+03  0.29887798222E+03  0.12509000000E+03 0.  0.
<mgrwt>
<rscale>  2 0.44464858E+03</rscale>
<asrwt>0</asrwt>
<pdfrwt beam="1">  1       21 0.70542590E-01 0.44464858E+03</pdfrwt>
<pdfrwt beam="2">  1       21 0.15153209E-01 0.44464858E+03</pdfrwt>
<totfact> 0.64904024E+04</totfact>
</mgrwt>
</event>
<event>
 7    0  0.4775379E-002  0.4485928E+03  0.7546771E-02  0.1028143E+00
         21   -1    0    0  502  501  0.00000000000E+00  0.00000000000E+00  0.21144908890E+02  0.21144908890E+02  0.00000000000E+00 0. -1.
         21   -1    0    0  501  502 -0.00000000000E+00 -0.00000000000E+00 -0.23792424449E+04  0.23792424449E+04  0.00000000000E+00 0. -1.
      99926    2    1    2    0    0 -0.35527136788E-14  0.00000000000E+00 -0.23580975360E+04  0.24003873538E+04  0.44859275396E+03 0.  0.
      99925    2    3    3    0    0 -0.21762296834E+02  0.78380313069E+02 -0.18648262183E+04  0.18850416717E+04  0.26303651586E+03 0.  0.
         25    1    4    4    0    0  0.26215892787E+02  0.47719361442E+02 -0.83196596112E+03  0.84307726755E+03  0.12509000000E+03 0.  0.
         25    1    4    4    0    0 -0.47978189620E+02  0.30660951628E+02 -0.10328602572E+04  0.10419644042E+04  0.12509000000E+03 0.  0.
         25    1    3    3    0    0  0.21762296834E+02 -0.78380313069E+02 -0.49327131777E+03  0.51534568211E+03  0.12509000000E+03 0.  0.
<mgrwt>
<rscale>  2 0.44859275E+03</rscale>
<asrwt>0</asrwt>
<pdfrwt beam="1">  1       21 0.31095434E-02 0.44859275E+03</pdfrwt>
<pdfrwt beam="2">  1       21 0.34988883E+00 0.44859275E+03</pdfrwt>
<totfact> 0.86270019E+03</totfact>
</mgrwt>
</event>
<event>
 7    0  0.4775379E-002  0.4465287E+03  0.7546771E-02  0.1028762E+00
         21   -1    0    0  502  501  0.00000000000E+00  0.00000000000E+00  0.99753658110E+03  0.99753658110E+03  0.00000000000E+00 0.  1.
         21   -1    0    0  501  502 -0.00000000000E+00 -0.00000000000E+00 -0.49970061693E+02  0.49970061693E+02  0.00000000000E+00 0.  1.
      99926    2    1    2    0    0  0.00000000000E+00  0.00000000000E+00  0.94756651941E+03  0.10475066428E+04  0.44652867544E+03 0.  0.
      99925    2    3    3    0    0  0.27074318686E+02  0.99805814972E+02  0.64358162982E+03  0.70290754147E+03  0.26303512727E+03 0.  0.
         25    1    4    4    0    0  0.74984772328E+00  0.29884417716E+02  0.21842376790E+03  0.25347601697E+03  0.12509000000E+03 0.  0.
         25    1    3    3    0    0 -0.27074318686E+02 -0.99805814972E+02  0.30398488959E+03  0.34459910132E+03  0.12509000000E+03 0.  0.
         25    1    4    4    0    0  0.26324470963E+02  0.69921397256E+02  0.42515786192E+03  0.44943152450E+03  0.12509000000E+03 0.  0.
<mgrwt>
<rscale>  2 0.44652868E+03</rscale>
<asrwt>0</asrwt>
<pdfrwt beam="1">  1       21 0.14669654E+00 0.44652868E+03</pdfrwt>
<pdfrwt beam="2">  1       21 0.73485391E-02 0.44652868E+03</pdfrwt>
<totfact> 0.39945652E+04</totfact>
</mgrwt>
</event>
<event>
 6    0  0.4775379E-002  0.9011942E+03  0.7546771E-02  0.9424090E-01
         21   -1    0    0  502  501  0.00000000000E+00  0.00000000000E+00  0.24231138753E+03  0.24231138753E+03  0.00000000000E+00 0. -1.
         21   -1    0    0  501  502 -0.00000000000E+00 -0.00000000000E+00 -0.83792076622E+03  0.83792076622E+03  0.00000000000E+00 0. -1.
      99925    2    1    2    0    0  0.25503286031E+03  0.13654255377E+03 -0.65183049481E+03  0.76008538924E+03  0.26298512534E+03 0.  0.
         25    1    1    2    0    0 -0.25503286031E+03 -0.13654255377E+03  0.56221116123E+02  0.32014676451E+03  0.12509000000E+03 0.  0.
         25    1    3    3    0    0  0.13913875869E+03  0.29140035993E+02 -0.30863125002E+03  0.36209044789E+03  0.12509000000E+03 0.  0.
         25    1    3    3    0    0  0.11589410162E+03  0.10740251778E+03 -0.34319924479E+03  0.39799494135E+03  0.12509000000E+03 0.  0.
<mgrwt>
<rscale>  2 0.90119419E+03</rscale>
<asrwt>0</asrwt>
<pdfrwt beam="1">  1       21 0.35634027E-01 0.90119419E+03</pdfrwt>
<pdfrwt beam="2">  1       21 0.12322364E+00 0.90119419E+03</pdfrwt>
<totfact> 0.29184387E+03</totfact>
</mgrwt>
</event>
<event>
 7    0  0.4775379E-002  0.4529731E+03  0.7546771E-02  0.1026839E+00
         21   -1    0    0  502  501  0.00000000000E+00  0.00000000000E+00  0.68044880818E+02  0.68044880818E+02  0.00000000000E+00 0.  1.
         21   -1    0    0  501  502 -0.00000000000E+00 -0.00000000000E+00 -0.75385765178E+03  0.75385765178E+03  0.00000000000E+00 0.  1.
      99926    2    1    2    0    0  0.14210854715E-13  0.00000000000E+00 -0.68581277096E+03  0.82190253260E+03  0.45297308560E+03 0.  0.
      99925    2    3    3    0    0  0.71456517553E+02 -0.83665821581E+02 -0.40222319082E+03  0.49300047778E+03  0.26298283642E+03 0.  0.
         25    1    3    3    0    0 -0.71456517553E+02  0.83665821581E+02 -0.28358958015E+03  0.32890205483E+03  0.12509000000E+03 0.  0.
         25    1    4    4    0    0  0.36176554565E+02 -0.80843971166E+02 -0.24499176182E+03  0.28898609349E+03  0.12509000000E+03 0.  0.
         25    1    4    4    0    0  0.35279962988E+02 -0.28218504145E+01 -0.15723142900E+03  0.20401438428E+03  0.12509000000E+03 0.  0.
<mgrwt>
<rscale>  2 0.45297309E+03</rscale>
<asrwt>0</asrwt>
<pdfrwt beam="1">  1       21 0.10006600E-01 0.45297309E+03</pdfrwt>
<pdfrwt beam="2">  1       21 0.11086142E+00 0.45297309E+03</pdfrwt>
<totfact> 0.47474145E+04</totfact>
</mgrwt>
</event>
<event>
 7    0  0.4775379E-002  0.4465590E+03  0.7546771E-02  0.1028753E+00
         21   -1    0    0  502  501  0.00000000000E+00  0.00000000000E+00  0.27089243378E+03  0.27089243378E+03  0.00000000000E+00 0. -1.
         21   -1    0    0  501  502 -0.00000000000E+00 -0.00000000000E+00 -0.18403519062E+03  0.18403519062E+03  0.00000000000E+00 0. -1.
      99926    2    1    2    0    0 -0.71054273576E-14 -0.71054273576E-14  0.86857243168E+02  0.45492762440E+03  0.44655902493E+03 0.  0.
      99925    2    3    3    0    0  0.63084595923E+02  0.55418863313E+02  0.11926351614E+03  0.30082184488E+03  0.26309519080E+03 0.  0.
         25    1    3    3    0    0 -0.63084595923E+02 -0.55418863313E+02 -0.32406272972E+02  0.15410577952E+03  0.12509000000E+03 0.  0.
         25    1    4    4    0    0  0.42497172238E+02  0.13601296330E+02  0.19641253555E+02  0.13425457851E+03  0.12509000000E+03 0.  0.
         25    1    4    4    0    0  0.20587423684E+02  0.41817566984E+02  0.99622262585E+02  0.16656726637E+03  0.12509000000E+03 0.  0.
<mgrwt>
<rscale>  2 0.44655902E+03</rscale>
<asrwt>0</asrwt>
<pdfrwt beam="1">  1       21 0.39837122E-01 0.44655902E+03</pdfrwt>
<pdfrwt beam="2">  1       21 0.27063999E-01 0.44655902E+03</pdfrwt>
<totfact> 0.73364512E+04</totfact>
</mgrwt>
</event>
<event>
 7    0  0.4775379E-002  0.4389513E+03  0.7546771E-02  0.1031069E+00
         21   -1    0    0  502  501  0.00000000000E+00  0.00000000000E+00  0.26351093882E+03  0.26351093882E+03  0.00000000000E+00 0.  1.
         21   -1    0    0  501  502 -0.00000000000E+00 -0.00000000000E+00 -0.18279907909E+03  0.18279907909E+03  0.00000000000E+00 0.  1.
      99926    2    1    2    0    0 -0.17763568394E-14  0.00000000000E+00  0.80711859734E+02  0.44631001791E+03  0.43895128179E+03 0.  0.
      99925    2    3    3    0    0 -0.97408535126E+01  0.44306617464E+02  0.13959604301E+03  0.30080120127E+03  0.26255732115E+03 0.  0.
         25    1    4    4    0    0  0.16964630896E+02  0.55809105002E+02  0.72702112487E+02  0.15599859026E+03  0.12509000000E+03 0.  0.
         25    1    4    4    0    0 -0.26705484409E+02 -0.11502487537E+02  0.66893930518E+02  0.14480261102E+03  0.12509000000E+03 0.  0.
         25    1    3    3    0    0  0.97408535126E+01 -0.44306617464E+02 -0.58884183271E+02  0.14550881663E+03  0.12509000000E+03 0.  0.
<mgrwt>
<rscale>  2 0.43895128E+03</rscale>
<asrwt>0</asrwt>
<pdfrwt beam="1">  1       21 0.38751609E-01 0.43895128E+03</pdfrwt>
<pdfrwt beam="2">  1       21 0.26882218E-01 0.43895128E+03</pdfrwt>
<totfact> 0.78800236E+04</totfact>
</mgrwt>
</event>
<event>
 7    0  0.4775379E-002  0.4339923E+03  0.7546771E-02  0.1032606E+00
         21   -1    0    0  502  501  0.00000000000E+00  0.00000000000E+00  0.10617764557E+03  0.10617764557E+03  0.00000000000E+00 0.  1.
         21   -1    0    0  501  502 -0.00000000000E+00 -0.00000000000E+00 -0.44347694296E+03  0.44347694296E+03  0.00000000000E+00 0.  1.
      99926    2    1    2    0    0 -0.14210854715E-13  0.35527136788E-14 -0.33729929739E+03  0.54965458853E+03  0.43399233942E+03 0.  0.
      99925    2    3    3    0    0 -0.77510025476E+02 -0.21450985475E+02 -0.15978396484E+03  0.31807922236E+03  0.26301240931E+03 0.  0.
         25    1    4    4    0    0  0.14172440625E+00 -0.22346839992E+02 -0.62515434381E+02  0.14161599126E+03  0.12509000000E+03 0.  0.
         25    1    3    3    0    0  0.77510025476E+02  0.21450985475E+02 -0.17751533254E+03  0.23157536617E+03  0.12509000000E+03 0.  0.
         25    1    4    4    0    0 -0.77651749882E+02  0.89585451637E+00 -0.97268530461E+02  0.17646323111E+03  0.12509000000E+03 0.  0.
<mgrwt>
<rscale>  2 0.43399234E+03</rscale>
<asrwt>0</asrwt>
<pdfrwt beam="1">  1       21 0.15614360E-01 0.43399234E+03</pdfrwt>
<pdfrwt beam="2">  1       21 0.65217196E-01 0.43399234E+03</pdfrwt>
<totfact> 0.73339896E+04</totfact>
</mgrwt>
</event>
<event>
 7    0  0.4775379E-002  0.4565186E+03  0.7546771E-02  0.1025796E+00
         21   -1    0    0  502  501  0.00000000000E+00  0.00000000000E+00  0.36300068445E+03  0.36300068445E+03  0.00000000000E+00 0.  1.
         21   -1    0    0  501  502 -0.00000000000E+00 -0.00000000000E+00 -0.14353226258E+03  0.14353226258E+03  0.00000000000E+00 0.  1.
      99926    2    1    2    0    0  0.00000000000E+00  0.00000000000E+00  0.21946842187E+03  0.50653294703E+03  0.45651860666E+03 0.  0.
      99925    2    3    3    0    0  0.46452926480E+02 -0.52505493708E+02  0.23868742809E+03  0.36185544516E+03  0.26277932493E+03 0.  0.
         25    1    4    4    0    0  0.46146562952E+02 -0.21373018615E+02  0.16558465530E+03  0.21366351436E+03  0.12509000000E+03 0.  0.
         25    1    3    3    0    0 -0.46452926480E+02  0.52505493708E+02 -0.19219006224E+02  0.14467750187E+03  0.12509000000E+03 0.  0.
         25    1    4    4    0    0  0.30636352783E+00 -0.31132475093E+02  0.73102772796E+02  0.14819193080E+03  0.12509000000E+03 0.  0.
<mgrwt>
<rscale>  2 0.45651861E+03</rscale>
<asrwt>0</asrwt>
<pdfrwt beam="1">  1       21 0.53382453E-01 0.45651861E+03</pdfrwt>
<pdfrwt beam="2">  1       21 0.21107686E-01 0.45651861E+03</pdfrwt>
<totfact> 0.64038722E+04</totfact>
</mgrwt>
</event>
<event>
 7    0  0.4775379E-002  0.4519627E+03  0.7546771E-02  0.1027138E+00
         21   -1    0    0  502  501  0.00000000000E+00  0.00000000000E+00  0.21592028098E+02  0.21592028098E+02  0.00000000000E+00 0.  1.
         21   -1    0    0  501  502 -0.00000000000E+00 -0.00000000000E+00 -0.23651119927E+04  0.23651119927E+04  0.00000000000E+00 0.  1.
      99926    2    1    2    0    0  0.71054273576E-14  0.00000000000E+00 -0.23435199646E+04  0.23867040208E+04  0.45196267369E+03 0.  0.
      99925    2    3    3    0    0 -0.50865229636E+02 -0.94229020083E+02 -0.13394188104E+04  0.13691908681E+04  0.26301046367E+03 0.  0.
         25    1    3    3    0    0  0.50865229636E+02  0.94229020083E+02 -0.10041011542E+04  0.10175131527E+04  0.12509000000E+03 0.  0.
         25    1    4    4    0    0  0.82136595824E+01 -0.23106216868E+02 -0.65940799673E+03  0.67161579472E+03  0.12509000000E+03 0.  0.
         25    1    4    4    0    0 -0.59078889218E+02 -0.71122803215E+02 -0.68001081364E+03  0.69757507342E+03  0.12509000000E+03 0.  0.
<mgrwt>
<rscale>  2 0.45196267E+03</rscale>
<asrwt>0</asrwt>
<pdfrwt beam="1">  1       21 0.31752993E-02 0.45196267E+03</pdfrwt>
<pdfrwt beam="2">  1       21 0.34781048E+00 0.45196267E+03</pdfrwt>
<totfact> 0.85618064E+03</totfact>
</mgrwt>
</event>
<event>
 7    0  0.4775379E-002  0.4546689E+03  0.7546771E-02  0.1026339E+00
         21   -1    0    0  502  501  0.00000000000E+00  0.00000000000E+00  0.15672903516E+03  0.15672903516E+03  0.00000000000E+00 0. -1.
         21   -1    0    0  501  502 -0.00000000000E+00 -0.00000000000E+00 -0.32974716340E+03  0.32974716340E+03  0.00000000000E+00 0. -1.
      99926    2    1    2    0    0  0.35527136788E-14 -0.14210854715E-13 -0.17301812825E+03  0.48647619856E+03  0.45466891148E+03 0.  0.
      99925    2    3    3    0    0  0.22075849618E+02 -0.11027541668E+03 -0.97397435571E+02  0.30204732902E+03  0.26286558894E+03 0.  0.
         25    1    3    3    0    0 -0.22075849618E+02  0.11027541668E+03 -0.75620692674E+02  0.18442886954E+03  0.12509000000E+03 0.  0.
         25    1    4    4    0    0 -0.46549796928E+01 -0.28328107931E+02 -0.14967298299E+02  0.12921175896E+03  0.12509000000E+03 0.  0.
         25    1    4    4    0    0  0.26730829311E+02 -0.81947308748E+02 -0.82430137271E+02  0.17283557006E+03  0.12509000000E+03 0.  0.
<mgrwt>
<rscale>  2 0.45466891E+03</rscale>
<asrwt>0</asrwt>
<pdfrwt beam="1">  1       21 0.23048388E-01 0.45466891E+03</pdfrwt>
<pdfrwt beam="2">  1       21 0.48492230E-01 0.45466891E+03</pdfrwt>
<totfact> 0.66405987E+04</totfact>
</mgrwt>
</event>
<event>
 7    0  0.4775379E-002  0.4572736E+03  0.7546771E-02  0.1025575E+00
         21   -1    0    0  502  501  0.00000000000E+00  0.00000000000E+00  0.97508825665E+02  0.97508825665E+02  0.00000000000E+00 0.  1.
         21   -1    0    0  501  502 -0.00000000000E+00 -0.00000000000E+00 -0.53610307900E+03  0.53610307900E+03  0.00000000000E+00 0.  1.
      99926    2    1    2    0    0  0.00000000000E+00  0.00000000000E+00 -0.43859425334E+03  0.63361190467E+03  0.45727357968E+03 0.  0.
      99925    2    3    3    0    0  0.88457603568E+02 -0.73840462197E+02 -0.26815875996E+03  0.39283622693E+03  0.26293348809E+03 0.  0.
         25    1    4    4    0    0  0.46841692337E+02 -0.72349072125E+02 -0.17308412247E+03  0.23029145431E+03  0.12509000000E+03 0.  0.
         25    1    3    3    0    0 -0.88457603568E+02  0.73840462197E+02 -0.17043549338E+03  0.24077567774E+03  0.12509000000E+03 0.  0.
         25    1    4    4    0    0  0.41615911231E+02 -0.14913900717E+01 -0.95074637495E+02  0.16254477262E+03  0.12509000000E+03 0.  0.
<mgrwt>
<rscale>  2 0.45727358E+03</rscale>
<asrwt>0</asrwt>
<pdfrwt beam="1">  1       21 0.14339533E-01 0.45727358E+03</pdfrwt>
<pdfrwt beam="2">  1       21 0.78838689E-01 0.45727358E+03</pdfrwt>
<totfact> 0.55650181E+04</totfact>
</mgrwt>
</event>
<event>
 7    0  0.4775379E-002  0.4547909E+03  0.7546771E-02  0.1026303E+00
         21   -1    0    0  502  501  0.00000000000E+00  0.00000000000E+00  0.86795328590E+03  0.86795328590E+03  0.00000000000E+00 0. -1.
         21   -1    0    0  501  502 -0.00000000000E+00 -0.00000000000E+00 -0.59575422490E+02  0.59575422490E+02  0.00000000000E+00 0. -1.
      99926    2    1    2    0    0  0.00000000000E+00 -0.71054273576E-14  0.80837786341E+03  0.92752870839E+03  0.45479086934E+03 0.  0.
      99925    2    3    3    0    0  0.36375421079E+02  0.33470940085E+02  0.30247491775E+03  0.40405113140E+03  0.26329216818E+03 0.  0.
         25    1    4    4    0    0  0.25753281270E+02  0.52773633076E+02  0.18601000458E+03  0.23172293315E+03  0.12509000000E+03 0.  0.
         25    1    4    4    0    0  0.10622139809E+02 -0.19302692990E+02  0.11646491318E+03  0.17232819825E+03  0.12509000000E+03 0.  0.
         25    1    3    3    0    0 -0.36375421079E+02 -0.33470940085E+02  0.50590294566E+03  0.52347757699E+03  0.12509000000E+03 0.  0.
<mgrwt>
<rscale>  2 0.45479087E+03</rscale>
<asrwt>0</asrwt>
<pdfrwt beam="1">  1       21 0.12764018E+00 0.45479087E+03</pdfrwt>
<pdfrwt beam="2">  1       21 0.87610920E-02 0.45479087E+03</pdfrwt>
<totfact> 0.42133303E+04</totfact>
</mgrwt>
</event>
<event>
 7    0  0.4775379E-002  0.4285358E+03  0.7546771E-02  0.1034323E+00
         21   -1    0    0  502  501  0.00000000000E+00  0.00000000000E+00  0.25548741686E+03  0.25548741686E+03  0.00000000000E+00 0. -1.
         21   -1    0    0  501  502 -0.00000000000E+00 -0.00000000000E+00 -0.17969862151E+03  0.17969862151E+03  0.00000000000E+00 0. -1.
      99926    2    1    2    0    0  0.00000000000E+00  0.00000000000E+00  0.75788795349E+02  0.43518603836E+03  0.42853581704E+03 0.  0.
      99925    2    3    3    0    0 -0.27802083797E+02  0.67430280958E+02  0.95285928274E+02  0.28907838988E+03  0.26299640437E+03 0.  0.
         25    1    4    4    0    0 -0.20344357265E+02  0.75191271741E+02  0.52691914748E+02  0.15649781531E+03  0.12509000000E+03 0.  0.
         25    1    3    3    0    0  0.27802083797E+02 -0.67430280958E+02 -0.19497132924E+02  0.14610764849E+03  0.12509000000E+03 0.  0.
         25    1    4    4    0    0 -0.74577265318E+01 -0.77609907825E+01  0.42594013526E+02  0.13258057456E+03  0.12509000000E+03 0.  0.
<mgrwt>
<rscale>  2 0.42853582E+03</rscale>
<asrwt>0</asrwt>
<pdfrwt beam="1">  1       21 0.37571679E-01 0.42853582E+03</pdfrwt>
<pdfrwt beam="2">  1       21 0.26426268E-01 0.42853582E+03</pdfrwt>
<totfact> 0.86981509E+04</totfact>
</mgrwt>
</event>
<event>
 7    0  0.4775379E-002  0.4632485E+03  0.7546771E-02  0.1023843E+00
         21   -1    0    0  502  501  0.00000000000E+00  0.00000000000E+00  0.55811043300E+02  0.55811043300E+02  0.00000000000E+00 0. -1.
         21   -1    0    0  501  502 -0.00000000000E+00 -0.00000000000E+00 -0.96127548624E+03  0.96127548624E+03  0.00000000000E+00 0. -1.
      99926    2    1    2    0    0  0.00000000000E+00  0.00000000000E+00 -0.90546444294E+03  0.10170865295E+04  0.46324847668E+03 0.  0.
      99925    2    3    3    0    0 -0.82160274311E+02 -0.51690473726E+02 -0.40760511252E+03  0.49465602053E+03  0.26290765518E+03 0.  0.
         25    1    3    3    0    0  0.82160274311E+02  0.51690473726E+02 -0.49785933042E+03  0.52243050900E+03  0.12509000000E+03 0.  0.
         25    1    4    4    0    0 -0.57738040055E+02 -0.14883763922E+02 -0.14573288638E+03  0.20109895567E+03  0.12509000000E+03 0.  0.
         25    1    4    4    0    0 -0.24422234256E+02 -0.36806709804E+02 -0.26187222613E+03  0.29355706487E+03  0.12509000000E+03 0.  0.
<mgrwt>
<rscale>  2 0.46324848E+03</rscale>
<asrwt>0</asrwt>
<pdfrwt beam="1">  1       21 0.82075066E-02 0.46324848E+03</pdfrwt>
<pdfrwt beam="2">  1       21 0.14136404E+00 0.46324848E+03</pdfrwt>
<totfact> 0.36125330E+04</totfact>
</mgrwt>
</event>
<event>
 7    0  0.4775379E-002  0.4551719E+03  0.7546771E-02  0.1026191E+00
         21   -1    0    0  502  501  0.00000000000E+00  0.00000000000E+00  0.79262483386E+02  0.79262483386E+02  0.00000000000E+00 0. -1.
         21   -1    0    0  501  502 -0.00000000000E+00 -0.00000000000E+00 -0.65346627563E+03  0.65346627563E+03  0.00000000000E+00 0. -1.
      99926    2    1    2    0    0  0.00000000000E+00 -0.35527136788E-14 -0.57420379224E+03  0.73272875901E+03  0.45517187881E+03 0.  0.
      99925    2    3    3    0    0  0.45710386022E+02  0.27575223280E+02 -0.52217137817E+03  0.58711037919E+03  0.26303196924E+03 0.  0.
         25    1    3    3    0    0 -0.45710386022E+02 -0.27575223280E+02 -0.52032414070E+02  0.14561837983E+03  0.12509000000E+03 0.  0.
         25    1    4    4    0    0  0.53059168102E+02 -0.24398078837E+01 -0.21965440127E+03  0.25829593895E+03  0.12509000000E+03 0.  0.
         25    1    4    4    0    0 -0.73487820798E+01  0.30015031164E+02 -0.30251697690E+03  0.32881444023E+03  0.12509000000E+03 0.  0.
<mgrwt>
<rscale>  2 0.45517188E+03</rscale>
<asrwt>0</asrwt>
<pdfrwt beam="1">  1       21 0.11656248E-01 0.45517188E+03</pdfrwt>
<pdfrwt beam="2">  1       21 0.96097979E-01 0.45517188E+03</pdfrwt>
<totfact> 0.51092703E+04</totfact>
</mgrwt>
</event>
<event>
 7    0  0.4775379E-002  0.4507552E+03  0.7546771E-02  0.1027497E+00
         21   -1    0    0  502  501  0.00000000000E+00  0.00000000000E+00  0.16479458814E+03  0.16479458814E+03  0.00000000000E+00 0. -1.
         21   -1    0    0  501  502 -0.00000000000E+00 -0.00000000000E+00 -0.30823262859E+03  0.30823262859E+03  0.00000000000E+00 0. -1.
      99926    2    1    2    0    0  0.00000000000E+00  0.00000000000E+00 -0.14343804045E+03  0.47302721673E+03  0.45075522883E+03 0.  0.
      99925    2    3    3    0    0  0.91774496848E+02 -0.55009644506E+02 -0.68091080171E+02  0.29199326471E+03  0.26301150579E+03 0.  0.
         25    1    4    4    0    0  0.79461326071E+02 -0.50342319300E+02 -0.53333075769E+02  0.16534925620E+03  0.12509000000E+03 0.  0.
         25    1    4    4    0    0  0.12313170776E+02 -0.46673252062E+01 -0.14758004401E+02  0.12664400852E+03  0.12509000000E+03 0.  0.
         25    1    3    3    0    0 -0.91774496848E+02  0.55009644506E+02 -0.75346960280E+02  0.18103395202E+03  0.12509000000E+03 0.  0.
<mgrwt>
<rscale>  2 0.45075523E+03</rscale>
<asrwt>0</asrwt>
<pdfrwt beam="1">  1       21 0.24234499E-01 0.45075523E+03</pdfrwt>
<pdfrwt beam="2">  1       21 0.45328327E-01 0.45075523E+03</pdfrwt>
<totfact> 0.69523952E+04</totfact>
</mgrwt>
</event>
<event>
 7    0  0.4775379E-002  0.4580448E+03  0.7546771E-02  0.1025350E+00
         21   -1    0    0  502  501  0.00000000000E+00  0.00000000000E+00  0.52079383503E+03  0.52079383503E+03  0.00000000000E+00 0. -1.
         21   -1    0    0  501  502 -0.00000000000E+00 -0.00000000000E+00 -0.10071404947E+03  0.10071404947E+03  0.00000000000E+00 0. -1.
      99926    2    1    2    0    0  0.00000000000E+00  0.00000000000E+00  0.42007978556E+03  0.62150788450E+03  0.45804478412E+03 0.  0.
      99925    2    3    3    0    0  0.93195655466E+02 -0.22458193303E+02  0.17662353600E+03  0.33149365348E+03  0.26363301801E+03 0.  0.
         25    1    4    4    0    0  0.33187218823E+02  0.22802189487E+02  0.58956751251E+02  0.14403033693E+03  0.12509000000E+03 0.  0.
         25    1    3    3    0    0 -0.93195655466E+02  0.22458193303E+02  0.24345624956E+03  0.29001423102E+03  0.12509000000E+03 0.  0.
         25    1    4    4    0    0  0.60008436643E+02 -0.45260382790E+02  0.11766678475E+03  0.18746331655E+03  0.12509000000E+03 0.  0.
<mgrwt>
<rscale>  2 0.45804478E+03</rscale>
<asrwt>0</asrwt>
<pdfrwt beam="1">  1       21 0.76587327E-01 0.45804478E+03</pdfrwt>
<pdfrwt beam="2">  1       21 0.14810890E-01 0.45804478E+03</pdfrwt>
<totfact> 0.56014622E+04</totfact>
</mgrwt>
</event>
<event>
 7    0  0.4775379E-002  0.4591069E+03  0.7546771E-02  0.1025041E+00
         21   -1    0    0  502  501  0.00000000000E+00  0.00000000000E+00  0.55584358943E+02  0.55584358943E+02  0.00000000000E+00 0.  1.
         21   -1    0    0  501  502 -0.00000000000E+00 -0.00000000000E+00 -0.94801480177E+03  0.94801480177E+03  0.00000000000E+00 0.  1.
      99926    2    1    2    0    0  0.00000000000E+00  0.00000000000E+00 -0.89243044282E+03  0.10035991607E+04  0.45910693754E+03 0.  0.
      99925    2    3    3    0    0 -0.96001524793E+02 -0.56532915121E+02 -0.48425286753E+03  0.56238639534E+03  0.26337303335E+03 0.  0.
         25    1    3    3    0    0  0.96001524793E+02  0.56532915121E+02 -0.40817757529E+03  0.44121276537E+03  0.12509000000E+03 0.  0.
         25    1    4    4    0    0 -0.87288207145E+02 -0.23472665172E+02 -0.23011320227E+03  0.27707362032E+03  0.12509000000E+03 0.  0.
         25    1    4    4    0    0 -0.87133176483E+01 -0.33060249949E+02 -0.25413966527E+03  0.28531277502E+03  0.12509000000E+03 0.  0.
<mgrwt>
<rscale>  2 0.45910694E+03</rscale>
<asrwt>0</asrwt>
<pdfrwt beam="1">  1       21 0.81741712E-02 0.45910694E+03</pdfrwt>
<pdfrwt beam="2">  1       21 0.13941393E+00 0.45910694E+03</pdfrwt>
<totfact> 0.37800106E+04</totfact>
</mgrwt>
</event>
<event>
 7    0  0.4775379E-002  0.4503850E+03  0.7546771E-02  0.1027607E+00
         21   -1    0    0  502  501  0.00000000000E+00  0.00000000000E+00  0.69096004775E+03  0.69096004775E+03  0.00000000000E+00 0. -1.
         21   -1    0    0  501  502 -0.00000000000E+00 -0.00000000000E+00 -0.73393059514E+02  0.73393059514E+02  0.00000000000E+00 0. -1.
      99926    2    1    2    0    0  0.71054273576E-14 -0.14210854715E-13  0.61756698824E+03  0.76435310727E+03  0.45038504374E+03 0.  0.
      99925    2    3    3    0    0 -0.43277824528E+02  0.99791828581E+02  0.39454880438E+03  0.48647544070E+03  0.26297949771E+03 0.  0.
         25    1    4    4    0    0 -0.49335995323E+02  0.20295836457E+02  0.19909233988E+03  0.24110418767E+03  0.12509000000E+03 0.  0.
         25    1    3    3    0    0  0.43277824528E+02 -0.99791828581E+02  0.22301818385E+03  0.27787766657E+03  0.12509000000E+03 0.  0.
         25    1    4    4    0    0  0.60581707950E+01  0.79495992125E+02  0.19545646451E+03  0.24537125303E+03  0.12509000000E+03 0.  0.
<mgrwt>
<rscale>  2 0.45038504E+03</rscale>
<asrwt>0</asrwt>
<pdfrwt beam="1">  1       21 0.10161177E+00 0.45038504E+03</pdfrwt>
<pdfrwt beam="2">  1       21 0.10793097E-01 0.45038504E+03</pdfrwt>
<totfact> 0.51373293E+04</totfact>
</mgrwt>
</event>
<event>
 7    0  0.4775379E-002  0.4451485E+03  0.7546771E-02  0.1029179E+00
         21   -1    0    0  502  501  0.00000000000E+00  0.00000000000E+00  0.83258153457E+02  0.83258153457E+02  0.00000000000E+00 0.  1.
         21   -1    0    0  501  502 -0.00000000000E+00 -0.00000000000E+00 -0.59500847052E+03  0.59500847052E+03  0.00000000000E+00 0.  1.
      99926    2    1    2    0    0  0.26645352591E-14  0.00000000000E+00 -0.51175031706E+03  0.67826662397E+03  0.44514854396E+03 0.  0.
      99925    2    3    3    0    0 -0.53752896407E+01  0.10204190279E+03 -0.35339015700E+03  0.45206562474E+03  0.26274946686E+03 0.  0.
         25    1    3    3    0    0  0.53752896407E+01 -0.10204190279E+03 -0.15836016006E+03  0.22620099924E+03  0.12509000000E+03 0.  0.
         25    1    4    4    0    0  0.18462347594E+02  0.42818914204E+02 -0.22585833997E+03  0.26236199329E+03  0.12509000000E+03 0.  0.
         25    1    4    4    0    0 -0.23837637235E+02  0.59222988583E+02 -0.12753181703E+03  0.18970363144E+03  0.12509000000E+03 0.  0.
<mgrwt>
<rscale>  2 0.44514854E+03</rscale>
<asrwt>0</asrwt>
<pdfrwt beam="1">  1       21 0.12243845E-01 0.44514854E+03</pdfrwt>
<pdfrwt beam="2">  1       21 0.87501250E-01 0.44514854E+03</pdfrwt>
<totfact> 0.58507663E+04</totfact>
</mgrwt>
</event>
<event>
 6    0  0.4775379E-002  0.4529835E+03  0.7546771E-02  0.1026836E+00
         21   -1    0    0  502  501  0.00000000000E+00  0.00000000000E+00  0.16327491305E+03  0.16327491305E+03  0.00000000000E+00 0. -1.
         21   -1    0    0  501  502 -0.00000000000E+00 -0.00000000000E+00 -0.31418485842E+03  0.31418485842E+03  0.00000000000E+00 0. -1.
      99926    2    1    2    0    0  0.71054273576E-14  0.00000000000E+00 -0.15090994537E+03  0.47745977147E+03  0.45298346743E+03 0.  0.
         25    1    3    3    0    0  0.11399010259E+01  0.71929674483E+02 -0.66269633301E+02  0.15879026999E+03  0.12509000000E+03 0.  0.
         25    1    3    3    0    0  0.50645510688E+02  0.20874072034E+01 -0.93380996411E+02  0.16412447597E+03  0.12509000000E+03 0.  0.
         25    1    3    3    0    0 -0.51785411714E+02 -0.74017081687E+02  0.87406843375E+01  0.15454502551E+03  0.12509000000E+03 0.  0.
<mgrwt>
<rscale>  2 0.45298347E+03</rscale>
<asrwt>0</asrwt>
<pdfrwt beam="1">  1       21 0.24011017E-01 0.45298347E+03</pdfrwt>
<pdfrwt beam="2">  1       21 0.46203655E-01 0.45298347E+03</pdfrwt>
<totfact> 0.67966811E+04</totfact>
</mgrwt>
</event>
<event>
 7    0  0.4775379E-002  0.4362064E+03  0.7546771E-02  0.1031917E+00
         21   -1    0    0  502  501  0.00000000000E+00  0.00000000000E+00  0.55439340553E+02  0.55439340553E+02  0.00000000000E+00 0.  1.
         21   -1    0    0  501  502 -0.00000000000E+00 -0.00000000000E+00 -0.85803697464E+03  0.85803697464E+03  0.00000000000E+00 0.  1.
      99926    2    1    2    0    0  0.00000000000E+00  0.00000000000E+00 -0.80259763409E+03  0.91347631519E+03  0.43620639172E+03 0.  0.
      99925    2    3    3    0    0  0.49060237824E+02 -0.48249456503E+02 -0.37858293659E+03  0.46607170102E+03  0.26298835265E+03 0.  0.
         25    1    4    4    0    0  0.21581395299E+02 -0.54110946462E+02 -0.24317464523E+03  0.27959822483E+03  0.12509000000E+03 0.  0.
         25    1    3    3    0    0 -0.49060237824E+02  0.48249456503E+02 -0.42401469750E+03  0.44740461417E+03  0.12509000000E+03 0.  0.
         25    1    4    4    0    0  0.27478842526E+02  0.58614899589E+01 -0.13540829136E+03  0.18647347619E+03  0.12509000000E+03 0.  0.
<mgrwt>
<rscale>  2 0.43620639E+03</rscale>
<asrwt>0</asrwt>
<pdfrwt beam="1">  1       21 0.81528446E-02 0.43620639E+03</pdfrwt>
<pdfrwt beam="2">  1       21 0.12618190E+00 0.43620639E+03</pdfrwt>
<totfact> 0.49549777E+04</totfact>
</mgrwt>
</event>
<event>
 7    0  0.4775379E-002  0.4532803E+03  0.7546771E-02  0.1026748E+00
         21   -1    0    0  502  501  0.00000000000E+00  0.00000000000E+00  0.24375450059E+03  0.24375450059E+03  0.00000000000E+00 0. -1.
         21   -1    0    0  501  502 -0.00000000000E+00 -0.00000000000E+00 -0.21072738315E+03  0.21072738315E+03  0.00000000000E+00 0. -1.
      99926    2    1    2    0    0 -0.35527136788E-14  0.00000000000E+00  0.33027117446E+02  0.45448188374E+03  0.45328025785E+03 0.  0.
      99925    2    3    3    0    0 -0.26218745557E+02  0.41537908337E+02 -0.79551048984E+02  0.27917024093E+03  0.26304910868E+03 0.  0.
         25    1    3    3    0    0  0.26218745557E+02 -0.41537908337E+02  0.11257816643E+03  0.17531164281E+03  0.12509000000E+03 0.  0.
         25    1    4    4    0    0 -0.49683026913E+02  0.85135254016E+01 -0.53724682411E+02  0.14517139139E+03  0.12509000000E+03 0.  0.
         25    1    4    4    0    0  0.23464281355E+02  0.33024382935E+02 -0.25826366573E+02  0.13399884954E+03  0.12509000000E+03 0.  0.
<mgrwt>
<rscale>  2 0.45328026E+03</rscale>
<asrwt>0</asrwt>
<pdfrwt beam="1">  1       21 0.35846250E-01 0.45328026E+03</pdfrwt>
<pdfrwt beam="2">  1       21 0.30989321E-01 0.45328026E+03</pdfrwt>
<totfact> 0.69533004E+04</totfact>
</mgrwt>
</event>
<event>
 7    0  0.4775379E-002  0.4409771E+03  0.7546771E-02  0.1030447E+00
         21   -1    0    0  502  501  0.00000000000E+00  0.00000000000E+00  0.91094383731E+02  0.91094383731E+02  0.00000000000E+00 0.  1.
         21   -1    0    0  501  502 -0.00000000000E+00 -0.00000000000E+00 -0.53367935906E+03  0.53367935906E+03  0.00000000000E+00 0.  1.
      99926    2    1    2    0    0  0.14210854715E-13  0.00000000000E+00 -0.44258497533E+03  0.62477374279E+03  0.44097706210E+03 0.  0.
      99925    2    3    3    0    0 -0.92083632509E+02  0.35406989302E+02 -0.30091400542E+03  0.41158082058E+03  0.26290013872E+03 0.  0.
         25    1    4    4    0    0 -0.37442739721E+02 -0.22495097927E+02 -0.13908196521E+03  0.19209187733E+03  0.12509000000E+03 0.  0.
         25    1    4    4    0    0 -0.54640892788E+02  0.57902087229E+02 -0.16183204021E+03  0.21948894325E+03  0.12509000000E+03 0.  0.
         25    1    3    3    0    0  0.92083632509E+02 -0.35406989302E+02 -0.14167096991E+03  0.21319292222E+03  0.12509000000E+03 0.  0.
<mgrwt>
<rscale>  2 0.44097706E+03</rscale>
<asrwt>0</asrwt>
<pdfrwt beam="1">  1       21 0.13396233E-01 0.44097706E+03</pdfrwt>
<pdfrwt beam="2">  1       21 0.78482259E-01 0.44097706E+03</pdfrwt>
<totfact> 0.63972031E+04</totfact>
</mgrwt>
</event>
<event>
 7    0  0.4775379E-002  0.4503973E+03  0.7546771E-02  0.1027604E+00
         21   -1    0    0  502  501  0.00000000000E+00  0.00000000000E+00  0.15668511255E+03  0.15668511255E+03  0.00000000000E+00 0.  1.
         21   -1    0    0  501  502 -0.00000000000E+00 -0.00000000000E+00 -0.32367103660E+03  0.32367103660E+03  0.00000000000E+00 0.  1.
      99926    2    1    2    0    0  0.00000000000E+00  0.00000000000E+00 -0.16698592404E+03  0.48035614915E+03  0.45039730372E+03 0.  0.
      99925    2    3    3    0    0 -0.53862301483E+02 -0.32905166019E+02 -0.11075706380E+02  0.27073887519E+03  0.26304556601E+03 0.  0.
         25    1    4    4    0    0  0.66358963894E+01  0.79904996022E+01 -0.69142832155E+00  0.12552238596E+03  0.12509000000E+03 0.  0.
         25    1    3    3    0    0  0.53862301483E+02  0.32905166019E+02 -0.15591021766E+03  0.20961727396E+03  0.12509000000E+03 0.  0.
         25    1    4    4    0    0 -0.60498197872E+02 -0.40895665622E+02 -0.10384278058E+02  0.14521648923E+03  0.12509000000E+03 0.  0.
<mgrwt>
<rscale>  2 0.45039730E+03</rscale>
<asrwt>0</asrwt>
<pdfrwt beam="1">  1       21 0.23041928E-01 0.45039730E+03</pdfrwt>
<pdfrwt beam="2">  1       21 0.47598682E-01 0.45039730E+03</pdfrwt>
<totfact> 0.69166967E+04</totfact>
</mgrwt>
</event>
<event>
 7    0  0.4775379E-002  0.4533833E+03  0.7546771E-02  0.1026718E+00
         21   -1    0    0  502  501  0.00000000000E+00  0.00000000000E+00  0.12235021234E+03  0.12235021234E+03  0.00000000000E+00 0. -1.
         21   -1    0    0  501  502 -0.00000000000E+00 -0.00000000000E+00 -0.42001642494E+03  0.42001642494E+03  0.00000000000E+00 0. -1.
      99926    2    1    2    0    0  0.00000000000E+00  0.00000000000E+00 -0.29766621260E+03  0.54236663729E+03  0.45338327618E+03 0.  0.
      99925    2    3    3    0    0 -0.75386837706E+02  0.53702387681E+02 -0.26212329681E+03  0.38274856593E+03  0.26309830909E+03 0.  0.
         25    1    3    3    0    0  0.75386837706E+02 -0.53702387681E+02 -0.35542915782E+02  0.15961807136E+03  0.12509000000E+03 0.  0.
         25    1    4    4    0    0 -0.57524839766E+02  0.27734654338E+02 -0.86890033191E+02  0.16515357765E+03  0.12509000000E+03 0.  0.
         25    1    4    4    0    0 -0.17861997940E+02  0.25967733343E+02 -0.17523326362E+03  0.21759498828E+03  0.12509000000E+03 0.  0.
<mgrwt>
<rscale>  2 0.45338328E+03</rscale>
<asrwt>0</asrwt>
<pdfrwt beam="1">  1       21 0.17992678E-01 0.45338328E+03</pdfrwt>
<pdfrwt beam="2">  1       21 0.61767121E-01 0.45338328E+03</pdfrwt>
<totfact> 0.63178185E+04</totfact>
</mgrwt>
</event>
<event>
 7    0  0.4775379E-002  0.4495458E+03  0.7546771E-02  0.1027858E+00
         21   -1    0    0  502  501  0.00000000000E+00  0.00000000000E+00  0.22648263538E+03  0.22648263538E+03  0.00000000000E+00 0. -1.
         21   -1    0    0  501  502 -0.00000000000E+00 -0.00000000000E+00 -0.22307606128E+03  0.22307606128E+03  0.00000000000E+00 0. -1.
      99926    2    1    2    0    0  0.00000000000E+00 -0.35527136788E-14  0.34065740916E+01  0.44955869666E+03  0.44954578965E+03 0.  0.
      99925    2    3    3    0    0  0.52193159598E+02  0.18955779041E+02 -0.90505368638E+02  0.28357553922E+03  0.26294565450E+03 0.  0.
         25    1    3    3    0    0 -0.52193159598E+02 -0.18955779041E+02  0.93911942730E+02  0.16598315744E+03  0.12509000000E+03 0.  0.
         25    1    4    4    0    0  0.62613100969E+02  0.28803114814E+02 -0.49651766734E+02  0.15120458285E+03  0.12509000000E+03 0.  0.
         25    1    4    4    0    0 -0.10419941371E+02 -0.98473357726E+01 -0.40853601904E+02  0.13237095636E+03  0.12509000000E+03 0.  0.
<mgrwt>
<rscale>  2 0.44954579E+03</rscale>
<asrwt>0</asrwt>
<pdfrwt beam="1">  1       21 0.33306270E-01 0.44954579E+03</pdfrwt>
<pdfrwt beam="2">  1       21 0.32805303E-01 0.44954579E+03</pdfrwt>
<totfact> 0.72030279E+04</totfact>
</mgrwt>
</event>
<event>
 7    0  0.4775379E-002  0.4537099E+03  0.7546771E-02  0.1026621E+00
         21   -1    0    0  502  501  0.00000000000E+00  0.00000000000E+00  0.30074608512E+03  0.30074608512E+03  0.00000000000E+00 0. -1.
         21   -1    0    0  501  502 -0.00000000000E+00 -0.00000000000E+00 -0.17111832388E+03  0.17111832388E+03  0.00000000000E+00 0. -1.
      99926    2    1    2    0    0  0.00000000000E+00  0.00000000000E+00  0.12962776124E+03  0.47186440900E+03  0.45370988968E+03 0.  0.
      99925    2    3    3    0    0 -0.89412669593E+02  0.38773316803E+02  0.23882162396E+02  0.28126630997E+03  0.26275917465E+03 0.  0.
         25    1    4    4    0    0 -0.55380542387E+02  0.55684532220E+02  0.28611363980E+02  0.15044563753E+03  0.12509000000E+03 0.  0.
         25    1    4    4    0    0 -0.34032127206E+02 -0.16911215417E+02 -0.47292015837E+01  0.13082067244E+03  0.12509000000E+03 0.  0.
         25    1    3    3    0    0  0.89412669593E+02 -0.38773316803E+02  0.10574559885E+03  0.19059809903E+03  0.12509000000E+03 0.  0.
<mgrwt>
<rscale>  2 0.45370989E+03</rscale>
<asrwt>0</asrwt>
<pdfrwt beam="1">  1       21 0.44227365E-01 0.45370989E+03</pdfrwt>
<pdfrwt beam="2">  1       21 0.25164460E-01 0.45370989E+03</pdfrwt>
<totfact> 0.67990640E+04</totfact>
</mgrwt>
</event>
<event>
 7    0  0.4775379E-002  0.4543752E+03  0.7546771E-02  0.1026425E+00
         21   -1    0    0  502  501  0.00000000000E+00  0.00000000000E+00  0.79619172040E+03  0.79619172040E+03  0.00000000000E+00 0. -1.
         21   -1    0    0  501  502 -0.00000000000E+00 -0.00000000000E+00 -0.64826349168E+02  0.64826349168E+02  0.00000000000E+00 0. -1.
      99926    2    1    2    0    0 -0.14210854715E-13  0.14210854715E-13  0.73136537124E+03  0.86101806957E+03  0.45437518626E+03 0.  0.
      99925    2    3    3    0    0 -0.80815933987E+02  0.76265840112E+02  0.49444629413E+03  0.57097350274E+03  0.26303214536E+03 0.  0.
         25    1    3    3    0    0  0.80815933987E+02 -0.76265840112E+02  0.23691907711E+03  0.29004456684E+03  0.12509000000E+03 0.  0.
         25    1    4    4    0    0 -0.82834447699E+02  0.39454690763E+02  0.26845189180E+03  0.31005184189E+03  0.12509000000E+03 0.  0.
         25    1    4    4    0    0  0.20185137119E+01  0.36811149349E+02  0.22599440233E+03  0.26092166084E+03  0.12509000000E+03 0.  0.
<mgrwt>
<rscale>  2 0.45437519E+03</rscale>
<asrwt>0</asrwt>
<pdfrwt beam="1">  1       21 0.11708701E+00 0.45437519E+03</pdfrwt>
<pdfrwt beam="2">  1       21 0.95332871E-02 0.45437519E+03</pdfrwt>
<totfact> 0.45171379E+04</totfact>
</mgrwt>
</event>
<event>
 7    0  0.4775379E-002  0.4548940E+03  0.7546771E-02  0.1026273E+00
         21   -1    0    0  502  501  0.00000000000E+00  0.00000000000E+00  0.27459205199E+03  0.27459205199E+03  0.00000000000E+00 0. -1.
         21   -1    0    0  501  502 -0.00000000000E+00 -0.00000000000E+00 -0.18839634645E+03  0.18839634645E+03  0.00000000000E+00 0. -1.
      99926    2    1    2    0    0  0.71054273576E-14  0.00000000000E+00  0.86195705548E+02  0.46298839844E+03  0.45489400681E+03 0.  0.
      99925    2    3    3    0    0  0.58900644865E+02 -0.75655422962E+02 -0.66609880141E+01  0.28005971663E+03  0.26305141537E+03 0.  0.
         25    1    3    3    0    0 -0.58900644865E+02  0.75655422962E+02  0.92856693562E+02  0.18292868181E+03  0.12509000000E+03 0.  0.
         25    1    4    4    0    0  0.43201357936E+02 -0.25769640234E+00 -0.13339200732E+02  0.13301077442E+03  0.12509000000E+03 0.  0.
         25    1    4    4    0    0  0.15699286929E+02 -0.75397726560E+02  0.66782127182E+01  0.14704894221E+03  0.12509000000E+03 0.  0.
<mgrwt>
<rscale>  2 0.45489401E+03</rscale>
<asrwt>0</asrwt>
<pdfrwt beam="1">  1       21 0.40381184E-01 0.45489401E+03</pdfrwt>
<pdfrwt beam="2">  1       21 0.27705345E-01 0.45489401E+03</pdfrwt>
<totfact> 0.68017046E+04</totfact>
</mgrwt>
</event>
<event>
 7    0  0.4775379E-002  0.4553250E+03  0.7546771E-02  0.1026146E+00
         21   -1    0    0  502  501  0.00000000000E+00  0.00000000000E+00  0.89820997225E+03  0.89820997225E+03  0.00000000000E+00 0. -1.
         21   -1    0    0  501  502 -0.00000000000E+00 -0.00000000000E+00 -0.57703894842E+02  0.57703894842E+02  0.00000000000E+00 0. -1.
      99926    2    1    2    0    0  0.00000000000E+00  0.00000000000E+00  0.84050607741E+03  0.95591386710E+03  0.45532499947E+03 0.  0.
      99925    2    3    3    0    0 -0.10151038392E+03  0.22040262891E+02  0.43303612597E+03  0.51720052029E+03  0.26303224244E+03 0.  0.
         25    1    3    3    0    0  0.10151038392E+03 -0.22040262891E+02  0.40746995144E+03  0.43871334680E+03  0.12509000000E+03 0.  0.
         25    1    4    4    0    0 -0.55610082461E+02  0.77173296243E+01  0.14525719974E+03  0.19974784260E+03  0.12509000000E+03 0.  0.
         25    1    4    4    0    0 -0.45900301462E+02  0.14322933267E+02  0.28777892623E+03  0.31745267769E+03  0.12509000000E+03 0.  0.
<mgrwt>
<rscale>  2 0.45532500E+03</rscale>
<asrwt>0</asrwt>
<pdfrwt beam="1">  1       21 0.13208969E+00 0.45532500E+03</pdfrwt>
<pdfrwt beam="2">  1       21 0.84858674E-02 0.45532500E+03</pdfrwt>
<totfact> 0.40798501E+04</totfact>
</mgrwt>
</event>
<event>
 6    0  0.4775379E-002  0.5295417E+03  0.7546771E-02  0.1006343E+00
         21   -1    0    0  502  501  0.00000000000E+00  0.00000000000E+00  0.24350944573E+04  0.24350944573E+04  0.00000000000E+00 0.  1.
         21   -1    0    0  501  502 -0.00000000000E+00 -0.00000000000E+00 -0.28788859422E+02  0.28788859422E+02  0.00000000000E+00 0.  1.
      99926    2    1    2    0    0  0.00000000000E+00 -0.28421709430E-13  0.24063055979E+04  0.24638833168E+04  0.52954165846E+03 0.  0.
         25    1    3    3    0    0  0.74512695824E+02  0.13811093252E+03  0.63286674936E+03  0.66392364175E+03  0.12509000000E+03 0.  0.
         25    1    3    3    0    0 -0.23863718619E+02 -0.22063248100E+02  0.69045251804E+03  0.70244462540E+03  0.12509000000E+03 0.  0.
         25    1    3    3    0    0 -0.50648977205E+02 -0.11604768442E+03  0.10829863305E+04  0.10975150496E+04  0.12509000000E+03 0.  0.
<mgrwt>
<rscale>  2 0.52954166E+03</rscale>
<asrwt>0</asrwt>
<pdfrwt beam="1">  1       21 0.35810199E+00 0.52954166E+03</pdfrwt>
<pdfrwt beam="2">  1       21 0.42336575E-02 0.52954166E+03</pdfrwt>
<totfact> 0.43771429E+03</totfact>
</mgrwt>
</event>
<event>
 7    0  0.4775379E-002  0.4570228E+03  0.7546771E-02  0.1025648E+00
         21   -1    0    0  502  501  0.00000000000E+00  0.00000000000E+00  0.13296657275E+03  0.13296657275E+03  0.00000000000E+00 0.  1.
         21   -1    0    0  501  502 -0.00000000000E+00 -0.00000000000E+00 -0.39271112526E+03  0.39271112526E+03  0.00000000000E+00 0.  1.
      99926    2    1    2    0    0  0.00000000000E+00  0.00000000000E+00 -0.25974455251E+03  0.52567769800E+03  0.45702276707E+03 0.  0.
      99925    2    3    3    0    0  0.48817093013E+02  0.80419935774E+02 -0.23935049584E+03  0.36783632102E+03  0.26299130131E+03 0.  0.
         25    1    3    3    0    0 -0.48817093013E+02 -0.80419935774E+02 -0.20394056668E+02  0.15784137698E+03  0.12509000000E+03 0.  0.
         25    1    4    4    0    0  0.98553619442E+01  0.54749927041E+01 -0.83164251942E+02  0.15063500458E+03  0.12509000000E+03 0.  0.
         25    1    4    4    0    0  0.38961731069E+02  0.74944943070E+02 -0.15618624390E+03  0.21720131644E+03  0.12509000000E+03 0.  0.
<mgrwt>
<rscale>  2 0.45702277E+03</rscale>
<asrwt>0</asrwt>
<pdfrwt beam="1">  1       21 0.19553908E-01 0.45702277E+03</pdfrwt>
<pdfrwt beam="2">  1       21 0.57751636E-01 0.45702277E+03</pdfrwt>
<totfact> 0.62491953E+04</totfact>
</mgrwt>
</event>
<event>
 7    0  0.4775379E-002  0.4422131E+03  0.7546771E-02  0.1030070E+00
         21   -1    0    0  502  501  0.00000000000E+00  0.00000000000E+00  0.68627275186E+02  0.68627275186E+02  0.00000000000E+00 0.  1.
         21   -1    0    0  501  502 -0.00000000000E+00 -0.00000000000E+00 -0.71237127125E+03  0.71237127125E+03  0.00000000000E+00 0.  1.
      99926    2    1    2    0    0  0.00000000000E+00  0.00000000000E+00 -0.64374399607E+03  0.78099854644E+03  0.44221306750E+03 0.  0.
      99925    2    3    3    0    0  0.66792642647E+02  0.50692428234E+02 -0.31342590193E+03  0.41797164550E+03  0.26350241184E+03 0.  0.
         25    1    3    3    0    0 -0.66792642647E+02 -0.50692428234E+02 -0.33031809414E+03  0.36302690094E+03  0.12509000000E+03 0.  0.
         25    1    4    4    0    0  0.61675867930E+02  0.50200133764E+02 -0.20071046504E+03  0.24951185341E+03  0.12509000000E+03 0.  0.
         25    1    4    4    0    0  0.51167747169E+01  0.49229447028E+00 -0.11271543689E+03  0.16845979209E+03  0.12509000000E+03 0.  0.
<mgrwt>
<rscale>  2 0.44221307E+03</rscale>
<asrwt>0</asrwt>
<pdfrwt beam="1">  1       21 0.10092246E-01 0.44221307E+03</pdfrwt>
<pdfrwt beam="2">  1       21 0.10476049E+00 0.44221307E+03</pdfrwt>
<totfact> 0.53908086E+04</totfact>
</mgrwt>
</event>
<event>
 7    0  0.4775379E-002  0.4476956E+03  0.7546771E-02  0.1028411E+00
         21   -1    0    0  502  501  0.00000000000E+00  0.00000000000E+00  0.20878951552E+03  0.20878951552E+03  0.00000000000E+00 0.  1.
         21   -1    0    0  501  502 -0.00000000000E+00 -0.00000000000E+00 -0.23999207152E+03  0.23999207152E+03  0.00000000000E+00 0.  1.
      99926    2    1    2    0    0  0.00000000000E+00  0.14210854715E-13 -0.31202555998E+02  0.44878158704E+03  0.44769555880E+03 0.  0.
      99925    2    3    3    0    0  0.10466424368E+02  0.79864724839E+02  0.49618374586E+02  0.27946693548E+03  0.26296742121E+03 0.  0.
         25    1    4    4    0    0  0.81335433538E+01  0.19243093513E+02 -0.12019347184E+02  0.12739083163E+03  0.12509000000E+03 0.  0.
         25    1    3    3    0    0 -0.10466424368E+02 -0.79864724839E+02 -0.80820930584E+02  0.16931465156E+03  0.12509000000E+03 0.  0.
         25    1    4    4    0    0  0.23328810138E+01  0.60621631326E+02  0.61637721770E+02  0.15207610385E+03  0.12509000000E+03 0.  0.
<mgrwt>
<rscale>  2 0.44769556E+03</rscale>
<asrwt>0</asrwt>
<pdfrwt beam="1">  1       21 0.30704341E-01 0.44769556E+03</pdfrwt>
<pdfrwt beam="2">  1       21 0.35292952E-01 0.44769556E+03</pdfrwt>
<totfact> 0.73176468E+04</totfact>
</mgrwt>
</event>
<event>
 7    0  0.4775379E-002  0.4606238E+03  0.7546771E-02  0.1024600E+00
         21   -1    0    0  502  501  0.00000000000E+00  0.00000000000E+00  0.67599086869E+03  0.67599086869E+03  0.00000000000E+00 0.  1.
         21   -1    0    0  501  502 -0.00000000000E+00 -0.00000000000E+00 -0.78467878538E+02  0.78467878538E+02  0.00000000000E+00 0.  1.
      99926    2    1    2    0    0 -0.17763568394E-14  0.14210854715E-13  0.59752299015E+03  0.75445874723E+03  0.46062379173E+03 0.  0.
      99925    2    3    3    0    0  0.14762815156E+02  0.95995266149E+02  0.48478945473E+03  0.56006381431E+03  0.26309243404E+03 0.  0.
         25    1    3    3    0    0 -0.14762815156E+02 -0.95995266149E+02  0.11273353542E+03  0.19439493292E+03  0.12509000000E+03 0.  0.
         25    1    4    4    0    0  0.45011629293E+02  0.57054238138E+02  0.22404009755E+03  0.26668840671E+03  0.12509000000E+03 0.  0.
         25    1    4    4    0    0 -0.30248814137E+02  0.38941028011E+02  0.26074935717E+03  0.29337540760E+03  0.12509000000E+03 0.  0.
<mgrwt>
<rscale>  2 0.46062379E+03</rscale>
<asrwt>0</asrwt>
<pdfrwt beam="1">  1       21 0.99410419E-01 0.46062379E+03</pdfrwt>
<pdfrwt beam="2">  1       21 0.11539394E-01 0.46062379E+03</pdfrwt>
<totfact> 0.47892002E+04</totfact>
</mgrwt>
</event>
<event>
 7    0  0.4775379E-002  0.4539217E+03  0.7546771E-02  0.1026559E+00
         21   -1    0    0  502  501  0.00000000000E+00  0.00000000000E+00  0.29867009607E+03  0.29867009607E+03  0.00000000000E+00 0. -1.
         21   -1    0    0  501  502 -0.00000000000E+00 -0.00000000000E+00 -0.17246868121E+03  0.17246868121E+03  0.00000000000E+00 0. -1.
      99926    2    1    2    0    0  0.14210854715E-13  0.00000000000E+00  0.12620141487E+03  0.47113877728E+03  0.45392174473E+03 0.  0.
      99925    2    3    3    0    0 -0.46981565398E+02  0.75325565763E+02  0.14993584474E+03  0.31592267114E+03  0.26352451168E+03 0.  0.
         25    1    4    4    0    0 -0.64580051388E+02  0.30919557391E+02  0.74907959359E+02  0.16243556428E+03  0.12509000000E+03 0.  0.
         25    1    4    4    0    0  0.17598485990E+02  0.44406008371E+02  0.75027885377E+02  0.15348710686E+03  0.12509000000E+03 0.  0.
         25    1    3    3    0    0  0.46981565398E+02 -0.75325565763E+02 -0.23734429867E+02  0.15521610614E+03  0.12509000000E+03 0.  0.
<mgrwt>
<rscale>  2 0.45392174E+03</rscale>
<asrwt>0</asrwt>
<pdfrwt beam="1">  1       21 0.43922073E-01 0.45392174E+03</pdfrwt>
<pdfrwt beam="2">  1       21 0.25363041E-01 0.45392174E+03</pdfrwt>
<totfact> 0.67930390E+04</totfact>
</mgrwt>
</event>
<event>
 7    0  0.4775379E-002  0.4559679E+03  0.7546771E-02  0.1025957E+00
         21   -1    0    0  502  501  0.00000000000E+00  0.00000000000E+00  0.40186998580E+03  0.40186998580E+03  0.00000000000E+00 0. -1.
         21   -1    0    0  501  502 -0.00000000000E+00 -0.00000000000E+00 -0.12933705242E+03  0.12933705242E+03  0.00000000000E+00 0. -1.
      99926    2    1    2    0    0 -0.14210854715E-13  0.00000000000E+00  0.27253293338E+03  0.53120703822E+03  0.45596789106E+03 0.  0.
      99925    2    3    3    0    0  0.70401538796E+02 -0.77564590724E+02  0.22415799934E+03  0.36102982252E+03  0.26291268833E+03 0.  0.
         25    1    3    3    0    0 -0.70401538796E+02  0.77564590724E+02  0.48374934047E+02  0.17017721570E+03  0.12509000000E+03 0.  0.
         25    1    4    4    0    0  0.45441096158E+02 -0.82917493670E+01  0.13955970176E+03  0.19302348246E+03  0.12509000000E+03 0.  0.
         25    1    4    4    0    0  0.24960442638E+02 -0.69272841357E+02  0.84598297580E+02  0.16800634006E+03  0.12509000000E+03 0.  0.
<mgrwt>
<rscale>  2 0.45596789E+03</rscale>
<asrwt>0</asrwt>
<pdfrwt beam="1">  1       21 0.59098527E-01 0.45596789E+03</pdfrwt>
<pdfrwt beam="2">  1       21 0.19020155E-01 0.45596789E+03</pdfrwt>
<totfact> 0.62642950E+04</totfact>
</mgrwt>
</event>
<event>
 7    0  0.4775379E-002  0.4557437E+03  0.7546771E-02  0.1026023E+00
         21   -1    0    0  502  501  0.00000000000E+00  0.00000000000E+00  0.10729977699E+03  0.10729977699E+03  0.00000000000E+00 0.  1.
         21   -1    0    0  501  502 -0.00000000000E+00 -0.00000000000E+00 -0.48393004352E+03  0.48393004352E+03  0.00000000000E+00 0.  1.
      99926    2    1    2    0    0  0.00000000000E+00  0.14210854715E-13 -0.37663026653E+03  0.59122982052E+03  0.45574372514E+03 0.  0.
      99925    2    3    3    0    0 -0.37436944232E+02 -0.10119970672E+03 -0.28395968206E+03  0.40181427005E+03  0.26301844259E+03 0.  0.
         25    1    4    4    0    0  0.13208292960E+02 -0.67547549071E+02 -0.11759308023E+03  0.18496694571E+03  0.12509000000E+03 0.  0.
         25    1    3    3    0    0  0.37436944232E+02  0.10119970672E+03 -0.92670584463E+02  0.18941555047E+03  0.12509000000E+03 0.  0.
         25    1    4    4    0    0 -0.50645237192E+02 -0.33652157652E+02 -0.16636660184E+03  0.21684732434E+03  0.12509000000E+03 0.  0.
<mgrwt>
<rscale>  2 0.45574373E+03</rscale>
<asrwt>0</asrwt>
<pdfrwt beam="1">  1       21 0.15779379E-01 0.45574373E+03</pdfrwt>
<pdfrwt beam="2">  1       21 0.71166183E-01 0.45574373E+03</pdfrwt>
<totfact> 0.58874546E+04</totfact>
</mgrwt>
</event>
<event>
 7    0  0.4775379E-002  0.4529820E+03  0.7546771E-02  0.1026837E+00
         21   -1    0    0  502  501  0.00000000000E+00  0.00000000000E+00  0.42515122672E+02  0.42515122672E+02  0.00000000000E+00 0.  1.
         21   -1    0    0  501  502 -0.00000000000E+00 -0.00000000000E+00 -0.12065863291E+04  0.12065863291E+04  0.00000000000E+00 0.  1.
      99926    2    1    2    0    0  0.00000000000E+00  0.00000000000E+00 -0.11640712064E+04  0.12491014517E+04  0.45298196783E+03 0.  0.
      99925    2    3    3    0    0  0.47457277498E+02  0.62859712154E+02 -0.51709334952E+03  0.58545139939E+03  0.26299101188E+03 0.  0.
         25    1    4    4    0    0 -0.10805977462E+02  0.25741181582E+02 -0.19854521506E+03  0.23631988512E+03  0.12509000000E+03 0.  0.
         25    1    3    3    0    0 -0.47457277498E+02 -0.62859712154E+02 -0.64697785688E+03  0.66365005236E+03  0.12509000000E+03 0.  0.
         25    1    4    4    0    0  0.58263254960E+02  0.37118530571E+02 -0.31854813446E+03  0.34913151428E+03  0.12509000000E+03 0.  0.
<mgrwt>
<rscale>  2 0.45298197E+03</rscale>
<asrwt>0</asrwt>
<pdfrwt beam="1">  1       21 0.62522249E-02 0.45298197E+03</pdfrwt>
<pdfrwt beam="2">  1       21 0.17743914E+00 0.45298197E+03</pdfrwt>
<totfact> 0.31115385E+04</totfact>
</mgrwt>
</event>
<event>
 7    0  0.4775379E-002  0.4473082E+03  0.7546771E-02  0.1028528E+00
         21   -1    0    0  502  501  0.00000000000E+00  0.00000000000E+00  0.65805468377E+03  0.65805468377E+03  0.00000000000E+00 0. -1.
         21   -1    0    0  501  502 -0.00000000000E+00 -0.00000000000E+00 -0.76013688807E+02  0.76013688807E+02  0.00000000000E+00 0. -1.
      99926    2    1    2    0    0 -0.35527136788E-14 -0.14210854715E-13  0.58204099496E+03  0.73406837257E+03  0.44730823355E+03 0.  0.
      99925    2    3    3    0    0  0.27306824425E+02  0.64930913579E+02  0.23921198968E+03  0.36239523505E+03  0.26295673443E+03 0.  0.
         25    1    4    4    0    0  0.11176050731E+02  0.28164520224E+02  0.17200130690E+03  0.21482574796E+03  0.12509000000E+03 0.  0.
         25    1    3    3    0    0 -0.27306824425E+02 -0.64930913579E+02  0.34282900528E+03  0.37167313753E+03  0.12509000000E+03 0.  0.
         25    1    4    4    0    0  0.16130773693E+02  0.36766393355E+02  0.67210682776E+02  0.14756948709E+03  0.12509000000E+03 0.  0.
<mgrwt>
<rscale>  2 0.44730823E+03</rscale>
<asrwt>0</asrwt>
<pdfrwt beam="1">  1       21 0.96772745E-01 0.44730823E+03</pdfrwt>
<pdfrwt beam="2">  1       21 0.11178484E-01 0.44730823E+03</pdfrwt>
<totfact> 0.54302315E+04</totfact>
</mgrwt>
</event>
<event>
 7    0  0.4775379E-002  0.4561225E+03  0.7546771E-02  0.1025912E+00
         21   -1    0    0  502  501  0.00000000000E+00  0.00000000000E+00  0.43042618755E+03  0.43042618755E+03  0.00000000000E+00 0. -1.
         21   -1    0    0  501  502 -0.00000000000E+00 -0.00000000000E+00 -0.12083819705E+03  0.12083819705E+03  0.00000000000E+00 0. -1.
      99926    2    1    2    0    0  0.71054273576E-14  0.00000000000E+00  0.30958799049E+03  0.55126438460E+03  0.45612245929E+03 0.  0.
      99925    2    3    3    0    0  0.53983164576E+02 -0.43186563190E+02  0.84718223828E+02  0.28481892797E+03  0.26299312345E+03 0.  0.
         25    1    4    4    0    0  0.15958979747E+02 -0.28093833564E+02  0.16874807987E+01  0.12920645576E+03  0.12509000000E+03 0.  0.
         25    1    3    3    0    0 -0.53983164576E+02  0.43186563190E+02  0.22486976667E+03  0.26644545663E+03  0.12509000000E+03 0.  0.
         25    1    4    4    0    0  0.38024184829E+02 -0.15092729626E+02  0.83030743029E+02  0.15561247221E+03  0.12509000000E+03 0.  0.
<mgrwt>
<rscale>  2 0.45612246E+03</rscale>
<asrwt>0</asrwt>
<pdfrwt beam="1">  1       21 0.63297968E-01 0.45612246E+03</pdfrwt>
<pdfrwt beam="2">  1       21 0.17770323E-01 0.45612246E+03</pdfrwt>
<totfact> 0.61237403E+04</totfact>
</mgrwt>
</event>
<event>
 7    0  0.4775379E-002  0.4503209E+03  0.7546771E-02  0.1027626E+00
         21   -1    0    0  502  501  0.00000000000E+00  0.00000000000E+00  0.16722693787E+03  0.16722693787E+03  0.00000000000E+00 0.  1.
         21   -1    0    0  501  502 -0.00000000000E+00 -0.00000000000E+00 -0.30316426744E+03  0.30316426744E+03  0.00000000000E+00 0.  1.
      99926    2    1    2    0    0  0.00000000000E+00 -0.14210854715E-13 -0.13593732957E+03  0.47039120531E+03  0.45032091719E+03 0.  0.
      99925    2    3    3    0    0  0.57293408883E+02  0.78106404326E+02 -0.34664538829E+02  0.28254331114E+03  0.26314624702E+03 0.  0.
         25    1    4    4    0    0  0.30719033979E+02  0.38414276347E+02  0.23682419043E+02  0.13648326179E+03  0.12509000000E+03 0.  0.
         25    1    4    4    0    0  0.26574374904E+02  0.39692127979E+02 -0.58346957873E+02  0.14606004936E+03  0.12509000000E+03 0.  0.
         25    1    3    3    0    0 -0.57293408883E+02 -0.78106404326E+02 -0.10127279074E+03  0.18784789417E+03  0.12509000000E+03 0.  0.
<mgrwt>
<rscale>  2 0.45032092E+03</rscale>
<asrwt>0</asrwt>
<pdfrwt beam="1">  1       21 0.24592197E-01 0.45032092E+03</pdfrwt>
<pdfrwt beam="2">  1       21 0.44582980E-01 0.45032092E+03</pdfrwt>
<totfact> 0.69968491E+04</totfact>
</mgrwt>
</event>
<event>
 7    0  0.4775379E-002  0.4540684E+03  0.7546771E-02  0.1026516E+00
         21   -1    0    0  502  501  0.00000000000E+00  0.00000000000E+00  0.12065944126E+03  0.12065944126E+03  0.00000000000E+00 0.  1.
         21   -1    0    0  501  502 -0.00000000000E+00 -0.00000000000E+00 -0.42719018676E+03  0.42719018676E+03  0.00000000000E+00 0.  1.
      99926    2    1    2    0    0  0.00000000000E+00  0.00000000000E+00 -0.30653074550E+03  0.54784962802E+03  0.45406840562E+03 0.  0.
      99925    2    3    3    0    0 -0.98453592051E+02  0.39568077084E+02 -0.14857948571E+03  0.32013302546E+03  0.26296491763E+03 0.  0.
         25    1    3    3    0    0  0.98453592051E+02 -0.39568077084E+02 -0.15795125979E+03  0.22771660256E+03  0.12509000000E+03 0.  0.
         25    1    4    4    0    0 -0.65543859728E+02 -0.16993988971E+02 -0.79809243795E+02  0.16310063367E+03  0.12509000000E+03 0.  0.
         25    1    4    4    0    0 -0.32909732323E+02  0.56562066055E+02 -0.68770241916E+02  0.15703239179E+03  0.12509000000E+03 0.  0.
<mgrwt>
<rscale>  2 0.45406841E+03</rscale>
<asrwt>0</asrwt>
<pdfrwt beam="1">  1       21 0.17744036E-01 0.45406841E+03</pdfrwt>
<pdfrwt beam="2">  1       21 0.62822085E-01 0.45406841E+03</pdfrwt>
<totfact> 0.62468019E+04</totfact>
</mgrwt>
</event>
<event>
 7    0  0.4775379E-002  0.4456291E+03  0.7546771E-02  0.1029034E+00
         21   -1    0    0  502  501  0.00000000000E+00  0.00000000000E+00  0.98173958952E+03  0.98173958952E+03  0.00000000000E+00 0.  1.
         21   -1    0    0  501  502 -0.00000000000E+00 -0.00000000000E+00 -0.50569743642E+02  0.50569743642E+02  0.00000000000E+00 0.  1.
      99926    2    1    2    0    0  0.00000000000E+00  0.00000000000E+00  0.93116984588E+03  0.10323093332E+04  0.44562908058E+03 0.  0.
      99925    2    3    3    0    0 -0.98243985864E+02 -0.27404871355E+02  0.55657700859E+03  0.62442428860E+03  0.26405457384E+03 0.  0.
         25    1    3    3    0    0  0.98243985864E+02  0.27404871355E+02  0.37459283729E+03  0.40788504456E+03  0.12509000000E+03 0.  0.
         25    1    4    4    0    0 -0.89787071870E+02 -0.20787532422E+01  0.27560858150E+03  0.31571132033E+03  0.12509000000E+03 0.  0.
         25    1    4    4    0    0 -0.84569139943E+01 -0.25326118113E+02  0.28096842709E+03  0.30871296826E+03  0.12509000000E+03 0.  0.
<mgrwt>
<rscale>  2 0.44562908E+03</rscale>
<asrwt>0</asrwt>
<pdfrwt beam="1">  1       21 0.14437346E+00 0.44562908E+03</pdfrwt>
<pdfrwt beam="2">  1       21 0.74367277E-02 0.44562908E+03</pdfrwt>
<totfact> 0.40840177E+04</totfact>
</mgrwt>
</event>
<event>
 7    0  0.4775379E-002  0.4560345E+03  0.7546771E-02  0.1025938E+00
         21   -1    0    0  502  501  0.00000000000E+00  0.00000000000E+00  0.26519399612E+02  0.26519399612E+02  0.00000000000E+00 0. -1.
         21   -1    0    0  501  502 -0.00000000000E+00 -0.00000000000E+00 -0.19605221919E+04  0.19605221919E+04  0.00000000000E+00 0. -1.
      99926    2    1    2    0    0 -0.14210854715E-13  0.00000000000E+00 -0.19340027923E+04  0.19870415915E+04  0.45603452262E+03 0.  0.
      99925    2    3    3    0    0 -0.11030234978E+03 -0.27653164299E+02 -0.11701913014E+04  0.12047457347E+04  0.26293211587E+03 0.  0.
         25    1    3    3    0    0  0.11030234978E+03  0.27653164299E+02 -0.76381149092E+03  0.78229585684E+03  0.12509000000E+03 0.  0.
         25    1    4    4    0    0 -0.74283003289E+02 -0.24249707657E+02 -0.47172961487E+03  0.49424927976E+03  0.12509000000E+03 0.  0.
         25    1    4    4    0    0 -0.36019346491E+02 -0.34034566424E+01 -0.69846168650E+03  0.71049645491E+03  0.12509000000E+03 0.  0.
<mgrwt>
<rscale>  2 0.45603452E+03</rscale>
<asrwt>0</asrwt>
<pdfrwt beam="1">  1       21 0.38999100E-02 0.45603452E+03</pdfrwt>
<pdfrwt beam="2">  1       21 0.28831221E+00 0.45603452E+03</pdfrwt>
<totfact> 0.13811202E+04</totfact>
</mgrwt>
</event>
<event>
 7    0  0.4775379E-002  0.4263098E+03  0.7546771E-02  0.1035032E+00
         21   -1    0    0  502  501  0.00000000000E+00  0.00000000000E+00  0.37203909620E+02  0.37203909620E+02  0.00000000000E+00 0. -1.
         21   -1    0    0  501  502 -0.00000000000E+00 -0.00000000000E+00 -0.12212426760E+04  0.12212426760E+04  0.00000000000E+00 0. -1.
      99926    2    1    2    0    0  0.00000000000E+00 -0.35527136788E-14 -0.11840387664E+04  0.12584465856E+04  0.42630975660E+03 0.  0.
      99925    2    3    3    0    0 -0.74873709606E+02 -0.27389166883E+02 -0.69209508309E+03  0.74462527964E+03  0.26289725024E+03 0.  0.
         25    1    3    3    0    0  0.74873709606E+02  0.27389166883E+02 -0.49194368330E+03  0.51382130599E+03  0.12509000000E+03 0.  0.
         25    1    4    4    0    0 -0.37784952625E+02 -0.99493022872E+01 -0.45434521471E+03  0.47286760673E+03  0.12509000000E+03 0.  0.
         25    1    4    4    0    0 -0.37088756981E+02 -0.17439864596E+02 -0.23774986838E+03  0.27175767291E+03  0.12509000000E+03 0.  0.
<mgrwt>
<rscale>  2 0.42630976E+03</rscale>
<asrwt>0</asrwt>
<pdfrwt beam="1">  1       21 0.54711636E-02 0.42630976E+03</pdfrwt>
<pdfrwt beam="2">  1       21 0.17959450E+00 0.42630976E+03</pdfrwt>
<totfact> 0.38183773E+04</totfact>
</mgrwt>
</event>
<event>
 7    0  0.4775379E-002  0.4347916E+03  0.7546771E-02  0.1032357E+00
         21   -1    0    0  502  501  0.00000000000E+00  0.00000000000E+00  0.38572967960E+02  0.38572967960E+02  0.00000000000E+00 0. -1.
         21   -1    0    0  501  502 -0.00000000000E+00 -0.00000000000E+00 -0.12252348436E+04  0.12252348436E+04  0.00000000000E+00 0. -1.
      99926    2    1    2    0    0 -0.88817841970E-15  0.00000000000E+00 -0.11866618757E+04  0.12638078116E+04  0.43479164834E+03 0.  0.
      99925    2    3    3    0    0 -0.28818551517E+01 -0.89052911865E+02 -0.68465313797E+03  0.73883256739E+03  0.26303025890E+03 0.  0.
         25    1    4    4    0    0 -0.37589119052E+02 -0.30497800937E+02 -0.29827527369E+03  0.32704541692E+03  0.12509000000E+03 0.  0.
         25    1    3    3    0    0  0.28818551517E+01  0.89052911865E+02 -0.50200873771E+03  0.52497524421E+03  0.12509000000E+03 0.  0.
         25    1    4    4    0    0  0.34707263901E+02 -0.58555110928E+02 -0.38637786428E+03  0.41178715046E+03  0.12509000000E+03 0.  0.
<mgrwt>
<rscale>  2 0.43479165E+03</rscale>
<asrwt>0</asrwt>
<pdfrwt beam="1">  1       21 0.56724949E-02 0.43479165E+03</pdfrwt>
<pdfrwt beam="2">  1       21 0.18018161E+00 0.43479165E+03</pdfrwt>
<totfact> 0.35436410E+04</totfact>
</mgrwt>
</event>
<event>
 6    0  0.4775379E-002  0.4529843E+03  0.7546771E-02  0.1026836E+00
         21   -1    0    0  502  501  0.00000000000E+00  0.00000000000E+00  0.31162832187E+03  0.31162832187E+03  0.00000000000E+00 0. -1.
         21   -1    0    0  501  502 -0.00000000000E+00 -0.00000000000E+00 -0.16461498264E+03  0.16461498264E+03  0.00000000000E+00 0. -1.
      99926    2    1    2    0    0  0.71054273576E-14 -0.88817841970E-15  0.14701333923E+03  0.47624330451E+03  0.45298428580E+03 0.  0.
         25    1    3    3    0    0 -0.24162545890E+02  0.27895536531E+02 -0.38397455181E+02  0.13595536858E+03  0.12509000000E+03 0.  0.
         25    1    3    3    0    0 -0.20635757020E+02 -0.31626610633E+02  0.26873921180E+02  0.13340087221E+03  0.12509000000E+03 0.  0.
         25    1    3    3    0    0  0.44798302911E+02  0.37310741012E+01  0.15853687323E+03  0.20688706371E+03  0.12509000000E+03 0.  0.
<mgrwt>
<rscale>  2 0.45298429E+03</rscale>
<asrwt>0</asrwt>
<pdfrwt beam="1">  1       21 0.45827694E-01 0.45298429E+03</pdfrwt>
<pdfrwt beam="2">  1       21 0.24208086E-01 0.45298429E+03</pdfrwt>
<totfact> 0.68056869E+04</totfact>
</mgrwt>
</event>
<event>
 7    0  0.4775379E-002  0.4581724E+03  0.7546771E-02  0.1025313E+00
         21   -1    0    0  502  501  0.00000000000E+00  0.00000000000E+00  0.22813946535E+03  0.22813946535E+03  0.00000000000E+00 0.  1.
         21   -1    0    0  501  502 -0.00000000000E+00 -0.00000000000E+00 -0.23003689926E+03  0.23003689926E+03  0.00000000000E+00 0.  1.
      99926    2    1    2    0    0  0.71054273576E-14 -0.35527136788E-14 -0.18974339149E+01  0.45817636461E+03  0.45817243569E+03 0.  0.
      99925    2    3    3    0    0  0.44941361105E+02  0.26150364980E+02  0.10272510762E+03  0.28701284097E+03  0.26290750393E+03 0.  0.
         25    1    4    4    0    0 -0.58183060345E+01 -0.16660153309E+02  0.51178024551E+02  0.13630154691E+03  0.12509000000E+03 0.  0.
         25    1    4    4    0    0  0.50759667140E+02  0.42810518289E+02  0.51547083069E+02  0.15071129406E+03  0.12509000000E+03 0.  0.
         25    1    3    3    0    0 -0.44941361105E+02 -0.26150364980E+02 -0.10462254153E+03  0.17116352364E+03  0.12509000000E+03 0.  0.
<mgrwt>
<rscale>  2 0.45817244E+03</rscale>
<asrwt>0</asrwt>
<pdfrwt beam="1">  1       21 0.33549922E-01 0.45817244E+03</pdfrwt>
<pdfrwt beam="2">  1       21 0.33828956E-01 0.45817244E+03</pdfrwt>
<totfact> 0.66611559E+04</totfact>
</mgrwt>
</event>
<event>
 7    0  0.4775379E-002  0.4586281E+03  0.7546771E-02  0.1025180E+00
         21   -1    0    0  502  501  0.00000000000E+00  0.00000000000E+00  0.16204880759E+04  0.16204880759E+04  0.00000000000E+00 0.  1.
         21   -1    0    0  501  502 -0.00000000000E+00 -0.00000000000E+00 -0.32450056389E+02  0.32450056389E+02  0.00000000000E+00 0.  1.
      99926    2    1    2    0    0  0.00000000000E+00  0.00000000000E+00  0.15880380195E+04  0.16529381323E+04  0.45862808218E+03 0.  0.
      99925    2    3    3    0    0  0.11306447066E+03 -0.54811432215E+01  0.10934618403E+04  0.11303802670E+04  0.26322449415E+03 0.  0.
         25    1    4    4    0    0  0.98071940308E+02 -0.45887033501E+01  0.55155264440E+03  0.57401828309E+03  0.12509000000E+03 0.  0.
         25    1    3    3    0    0 -0.11306447066E+03  0.54811432215E+01  0.49457617916E+03  0.52255786527E+03  0.12509000000E+03 0.  0.
         25    1    4    4    0    0  0.14992530349E+02 -0.89243987138E+00  0.54190919594E+03  0.55636198392E+03  0.12509000000E+03 0.  0.
<mgrwt>
<rscale>  2 0.45862808E+03</rscale>
<asrwt>0</asrwt>
<pdfrwt beam="1">  1       21 0.23830702E+00 0.45862808E+03</pdfrwt>
<pdfrwt beam="2">  1       21 0.47720682E-02 0.45862808E+03</pdfrwt>
<totfact> 0.19698750E+04</totfact>
</mgrwt>
</event>
<event>
 7    0  0.4775379E-002  0.4565226E+03  0.7546771E-02  0.1025795E+00
         21   -1    0    0  502  501  0.00000000000E+00  0.00000000000E+00  0.12636417565E+03  0.12636417565E+03  0.00000000000E+00 0.  1.
         21   -1    0    0  501  502 -0.00000000000E+00 -0.00000000000E+00 -0.41232580574E+03  0.41232580574E+03  0.00000000000E+00 0.  1.
      99926    2    1    2    0    0  0.14210854715E-13  0.00000000000E+00 -0.28596163009E+03  0.53868998139E+03  0.45652255384E+03 0.  0.
      99925    2    3    3    0    0  0.71682180560E+02  0.79423812550E+02 -0.22817243550E+03  0.36423776409E+03  0.26298291096E+03 0.  0.
         25    1    4    4    0    0  0.14793070190E+02  0.53112738867E+01 -0.82239209756E+02  0.15052521476E+03  0.12509000000E+03 0.  0.
         25    1    3    3    0    0 -0.71682180560E+02 -0.79423812550E+02 -0.57789194588E+02  0.17445221730E+03  0.12509000000E+03 0.  0.
         25    1    4    4    0    0  0.56889110371E+02  0.74112538664E+02 -0.14593322574E+03  0.21371254933E+03  0.12509000000E+03 0.  0.
<mgrwt>
<rscale>  2 0.45652255E+03</rscale>
<asrwt>0</asrwt>
<pdfrwt beam="1">  1       21 0.18582967E-01 0.45652255E+03</pdfrwt>
<pdfrwt beam="2">  1       21 0.60636148E-01 0.45652255E+03</pdfrwt>
<totfact> 0.61871216E+04</totfact>
</mgrwt>
</event>
<event>
 6    0  0.4775379E-002  0.4431152E+03  0.7546771E-02  0.1029795E+00
         21   -1    0    0  502  501  0.00000000000E+00  0.00000000000E+00  0.35992216011E+02  0.35992216011E+02  0.00000000000E+00 0. -1.
         21   -1    0    0  501  502 -0.00000000000E+00 -0.00000000000E+00 -0.13638441097E+04  0.13638441097E+04  0.00000000000E+00 0. -1.
      99926    2    1    2    0    0  0.00000000000E+00 -0.17763568394E-14 -0.13278518937E+04  0.13998363257E+04  0.44311520760E+03 0.  0.
         25    1    3    3    0    0  0.18085141365E+02 -0.27884662568E+02 -0.51379845291E+03  0.52984996467E+03  0.12509000000E+03 0.  0.
         25    1    3    3    0    0 -0.67562620758E+02 -0.56800263445E+01 -0.23629513069E+03  0.27582579160E+03  0.12509000000E+03 0.  0.
         25    1    3    3    0    0  0.49477479392E+02  0.33564688913E+02 -0.57775831010E+03  0.59416056946E+03  0.12509000000E+03 0.  0.
<mgrwt>
<rscale>  2 0.44311521E+03</rscale>
<asrwt>0</asrwt>
<pdfrwt beam="1">  1       21 0.52929747E-02 0.44311521E+03</pdfrwt>
<pdfrwt beam="2">  1       21 0.20056525E+00 0.44311521E+03</pdfrwt>
<totfact> 0.28916311E+04</totfact>
</mgrwt>
</event>
<event>
 7    0  0.4775379E-002  0.4534236E+03  0.7546771E-02  0.1026706E+00
         21   -1    0    0  502  501  0.00000000000E+00  0.00000000000E+00  0.19928747117E+04  0.19928747117E+04  0.00000000000E+00 0. -1.
         21   -1    0    0  501  502 -0.00000000000E+00 -0.00000000000E+00 -0.25791002666E+02  0.25791002666E+02  0.00000000000E+00 0. -1.
      99926    2    1    2    0    0  0.00000000000E+00  0.00000000000E+00  0.19670837091E+04  0.20186657144E+04  0.45342358564E+03 0.  0.
      99925    2    3    3    0    0 -0.64136639154E+02 -0.88780777677E+02  0.13395226039E+04  0.13694538970E+04  0.26284526783E+03 0.  0.
         25    1    4    4    0    0 -0.12761341618E+02 -0.48283455307E+02  0.48523079613E+03  0.50357777702E+03  0.12509000000E+03 0.  0.
         25    1    3    3    0    0  0.64136639154E+02  0.88780777677E+02  0.62756110522E+03  0.64921181740E+03  0.12509000000E+03 0.  0.
         25    1    4    4    0    0 -0.51375297535E+02 -0.40497322370E+02  0.85429180772E+03  0.86587611998E+03  0.12509000000E+03 0.  0.
<mgrwt>
<rscale>  2 0.45342359E+03</rscale>
<asrwt>0</asrwt>
<pdfrwt beam="1">  1       21 0.29306971E+00 0.45342359E+03</pdfrwt>
<pdfrwt beam="2">  1       21 0.37927959E-02 0.45342359E+03</pdfrwt>
<totfact> 0.13572621E+04</totfact>
</mgrwt>
</event>
<event>
 6    0  0.4775379E-002  0.4590435E+03  0.7546771E-02  0.1025059E+00
         21   -1    0    0  502  501  0.00000000000E+00  0.00000000000E+00  0.44197810544E+03  0.44197810544E+03  0.00000000000E+00 0.  1.
         21   -1    0    0  501  502 -0.00000000000E+00 -0.00000000000E+00 -0.11919196144E+03  0.11919196144E+03  0.00000000000E+00 0.  1.
      99926    2    1    2    0    0  0.00000000000E+00  0.00000000000E+00  0.32278614400E+03  0.56117006688E+03  0.45904351559E+03 0.  0.
         25    1    3    3    0    0 -0.54456432215E+02  0.94034383660E+02  0.63453838108E+02  0.17743129935E+03  0.12509000000E+03 0.  0.
         25    1    3    3    0    0  0.49877611702E+02 -0.55972128470E+02  0.17621973983E+03  0.22873906557E+03  0.12509000000E+03 0.  0.
         25    1    3    3    0    0  0.45788205130E+01 -0.38062255189E+02  0.83112566060E+02  0.15499970195E+03  0.12509000000E+03 0.  0.
<mgrwt>
<rscale>  2 0.45904352E+03</rscale>
<asrwt>0</asrwt>
<pdfrwt beam="1">  1       21 0.64996780E-01 0.45904352E+03</pdfrwt>
<pdfrwt beam="2">  1       21 0.17528230E-01 0.45904352E+03</pdfrwt>
<totfact> 0.59217556E+04</totfact>
</mgrwt>
</event>
<event>
 7    0  0.4775379E-002  0.4556605E+03  0.7546771E-02  0.1026047E+00
         21   -1    0    0  502  501  0.00000000000E+00  0.00000000000E+00  0.21547704576E+02  0.21547704576E+02  0.00000000000E+00 0.  1.
         21   -1    0    0  501  502 -0.00000000000E+00 -0.00000000000E+00 -0.24089169354E+04  0.24089169354E+04  0.00000000000E+00 0.  1.
      99926    2    1    2    0    0  0.00000000000E+00  0.17763568394E-14 -0.23873692308E+04  0.24304646400E+04  0.45566053361E+03 0.  0.
      99925    2    3    3    0    0 -0.67540637051E+02 -0.12138326044E+02 -0.19854668711E+04  0.20039882731E+04  0.26302324245E+03 0.  0.
         25    1    4    4    0    0 -0.36480243395E+02  0.16354182455E+02 -0.12390093735E+04  0.12459494385E+04  0.12509000000E+03 0.  0.
         25    1    4    4    0    0 -0.31060393656E+02 -0.28492508499E+02 -0.74645749753E+03  0.75803883464E+03  0.12509000000E+03 0.  0.
         25    1    3    3    0    0  0.67540637051E+02  0.12138326044E+02 -0.40190235979E+03  0.42647636690E+03  0.12509000000E+03 0.  0.
<mgrwt>
<rscale>  2 0.45566053E+03</rscale>
<asrwt>0</asrwt>
<pdfrwt beam="1">  1       21 0.31687816E-02 0.45566053E+03</pdfrwt>
<pdfrwt beam="2">  1       21 0.35425232E+00 0.45566053E+03</pdfrwt>
<totfact> 0.78293997E+03</totfact>
</mgrwt>
</event>
<event>
 7    0  0.4775379E-002  0.4554138E+03  0.7546771E-02  0.1026120E+00
         21   -1    0    0  502  501  0.00000000000E+00  0.00000000000E+00  0.29068008120E+02  0.29068008120E+02  0.00000000000E+00 0. -1.
         21   -1    0    0  501  502 -0.00000000000E+00 -0.00000000000E+00 -0.17837630254E+04  0.17837630254E+04  0.00000000000E+00 0. -1.
      99926    2    1    2    0    0 -0.22204460493E-15  0.00000000000E+00 -0.17546950172E+04  0.18128310335E+04  0.45541382546E+03 0.  0.
      99925    2    3    3    0    0 -0.15720588214E+01  0.41811575801E+02 -0.15240120842E+04  0.15471003372E+04  0.26297517257E+03 0.  0.
         25    1    3    3    0    0  0.15720588214E+01 -0.41811575801E+02 -0.23068293303E+03  0.26573069625E+03  0.12509000000E+03 0.  0.
         25    1    4    4    0    0 -0.38527024069E+02  0.22721168660E+02 -0.84991674238E+03  0.86023633971E+03  0.12509000000E+03 0.  0.
         25    1    4    4    0    0  0.36954965248E+02  0.19090407141E+02 -0.67409534183E+03  0.68686399751E+03  0.12509000000E+03 0.  0.
<mgrwt>
<rscale>  2 0.45541383E+03</rscale>
<asrwt>0</asrwt>
<pdfrwt beam="1">  1       21 0.42747055E-02 0.45541383E+03</pdfrwt>
<pdfrwt beam="2">  1       21 0.26231819E+00 0.45541383E+03</pdfrwt>
<totfact> 0.16959658E+04</totfact>
</mgrwt>
</event>
<event>
 7    0  0.4775379E-002  0.4583465E+03  0.7546771E-02  0.1025262E+00
         21   -1    0    0  502  501  0.00000000000E+00  0.00000000000E+00  0.51530037289E+03  0.51530037289E+03  0.00000000000E+00 0.  1.
         21   -1    0    0  501  502 -0.00000000000E+00 -0.00000000000E+00 -0.10192187567E+03  0.10192187567E+03  0.00000000000E+00 0.  1.
      99926    2    1    2    0    0  0.00000000000E+00  0.00000000000E+00  0.41337849722E+03  0.61722224856E+03  0.45834650882E+03 0.  0.
      99925    2    3    3    0    0  0.42902980455E+02  0.93732495156E+02  0.33186072077E+03  0.43578602737E+03  0.26296668474E+03 0.  0.
         25    1    4    4    0    0  0.24767179417E+02  0.88709978071E+02  0.19710654795E+03  0.25096089881E+03  0.12509000000E+03 0.  0.
         25    1    3    3    0    0 -0.42902980455E+02 -0.93732495156E+02  0.81517776450E+02  0.18143622118E+03  0.12509000000E+03 0.  0.
         25    1    4    4    0    0  0.18135801038E+02  0.50225170850E+01  0.13475417281E+03  0.18482512856E+03  0.12509000000E+03 0.  0.
<mgrwt>
<rscale>  2 0.45834651E+03</rscale>
<asrwt>0</asrwt>
<pdfrwt beam="1">  1       21 0.75779465E-01 0.45834651E+03</pdfrwt>
<pdfrwt beam="2">  1       21 0.14988511E-01 0.45834651E+03</pdfrwt>
<totfact> 0.56132252E+04</totfact>
</mgrwt>
</event>
<event>
 7    0  0.4775379E-002  0.4609029E+03  0.7546771E-02  0.1024520E+00
         21   -1    0    0  502  501  0.00000000000E+00  0.00000000000E+00  0.12059825997E+03  0.12059825997E+03  0.00000000000E+00 0.  1.
         21   -1    0    0  501  502 -0.00000000000E+00 -0.00000000000E+00 -0.44037021500E+03  0.44037021500E+03  0.00000000000E+00 0.  1.
      99926    2    1    2    0    0 -0.71054273576E-14  0.00000000000E+00 -0.31977195502E+03  0.56096847497E+03  0.46090294715E+03 0.  0.
      99925    2    3    3    0    0 -0.49887299612E+02  0.31660017438E+02 -0.32535442427E+03  0.42251353129E+03  0.26300396074E+03 0.  0.
         25    1    4    4    0    0 -0.35493399774E+02 -0.11860150000E+02 -0.20457182289E+03  0.24268824324E+03  0.12509000000E+03 0.  0.
         25    1    4    4    0    0 -0.14393899838E+02  0.43520167438E+02 -0.12078260138E+03  0.17982528805E+03  0.12509000000E+03 0.  0.
         25    1    3    3    0    0  0.49887299612E+02 -0.31660017438E+02  0.55824692456E+01  0.13845494368E+03  0.12509000000E+03 0.  0.
<mgrwt>
<rscale>  2 0.46090295E+03</rscale>
<asrwt>0</asrwt>
<pdfrwt beam="1">  1       21 0.17735038E-01 0.46090295E+03</pdfrwt>
<pdfrwt beam="2">  1       21 0.64760326E-01 0.46090295E+03</pdfrwt>
<totfact> 0.58373812E+04</totfact>
</mgrwt>
</event>
<event>
 7    0  0.4775379E-002  0.4521240E+03  0.7546771E-02  0.1027091E+00
         21   -1    0    0  502  501  0.00000000000E+00  0.00000000000E+00  0.21231840206E+04  0.21231840206E+04  0.00000000000E+00 0. -1.
         21   -1    0    0  501  502 -0.00000000000E+00 -0.00000000000E+00 -0.24069524626E+02  0.24069524626E+02  0.00000000000E+00 0. -1.
      99926    2    1    2    0    0  0.00000000000E+00  0.00000000000E+00  0.20991144960E+04  0.21472535452E+04  0.45212400985E+03 0.  0.
      99925    2    3    3    0    0 -0.10882645944E+03  0.16575921206E+02  0.12834743771E+04  0.13147667459E+04  0.26303452247E+03 0.  0.
         25    1    4    4    0    0 -0.44756449881E+02 -0.50513885590E+01  0.79405900324E+03  0.80511233071E+03  0.12509000000E+03 0.  0.
         25    1    4    4    0    0 -0.64070009556E+02  0.21627309765E+02  0.48941537383E+03  0.50965441516E+03  0.12509000000E+03 0.  0.
         25    1    3    3    0    0  0.10882645944E+03 -0.16575921206E+02  0.81564011891E+03  0.83248679936E+03  0.12509000000E+03 0.  0.
<mgrwt>
<rscale>  2 0.45212401E+03</rscale>
<asrwt>0</asrwt>
<pdfrwt beam="1">  1       21 0.31223282E+00 0.45212401E+03</pdfrwt>
<pdfrwt beam="2">  1       21 0.35396374E-02 0.45212401E+03</pdfrwt>
<totfact> 0.11710551E+04</totfact>
</mgrwt>
</event>
<event>
 7    0  0.4775379E-002  0.4564851E+03  0.7546771E-02  0.1025806E+00
         21   -1    0    0  502  501  0.00000000000E+00  0.00000000000E+00  0.96206011050E+03  0.96206011050E+03  0.00000000000E+00 0.  1.
         21   -1    0    0  501  502 -0.00000000000E+00 -0.00000000000E+00 -0.54149072812E+02  0.54149072812E+02  0.00000000000E+00 0.  1.
      99926    2    1    2    0    0  0.71054273576E-14  0.00000000000E+00  0.90791103769E+03  0.10162091833E+04  0.45648510588E+03 0.  0.
      99925    2    3    3    0    0 -0.37713863312E+02  0.36300349949E+02  0.79745514365E+03  0.84131474795E+03  0.26293677585E+03 0.  0.
         25    1    4    4    0    0  0.21686179016E+02  0.13132096231E+02  0.38875201855E+03  0.40916791460E+03  0.12509000000E+03 0.  0.
         25    1    4    4    0    0 -0.59400042328E+02  0.23168253718E+02  0.40870312510E+03  0.43214683335E+03  0.12509000000E+03 0.  0.
         25    1    3    3    0    0  0.37713863312E+02 -0.36300349949E+02  0.11045589404E+03  0.17489443536E+03  0.12509000000E+03 0.  0.
<mgrwt>
<rscale>  2 0.45648511E+03</rscale>
<asrwt>0</asrwt>
<pdfrwt beam="1">  1       21 0.14147942E+00 0.45648511E+03</pdfrwt>
<pdfrwt beam="2">  1       21 0.79630996E-02 0.45648511E+03</pdfrwt>
<totfact> 0.38098466E+04</totfact>
</mgrwt>
</event>
<event>
 7    0  0.4775379E-002  0.4460269E+03  0.7546771E-02  0.1028914E+00
         21   -1    0    0  502  501  0.00000000000E+00  0.00000000000E+00  0.13636213273E+03  0.13636213273E+03  0.00000000000E+00 0.  1.
         21   -1    0    0  501  502 -0.00000000000E+00 -0.00000000000E+00 -0.36472734780E+03  0.36472734780E+03  0.00000000000E+00 0.  1.
      99926    2    1    2    0    0  0.00000000000E+00 -0.17763568394E-14 -0.22836521507E+03  0.50108948053E+03  0.44602690058E+03 0.  0.
      99925    2    3    3    0    0  0.28103125613E+01 -0.15168671825E+02 -0.26134059154E+03  0.37080951271E+03  0.26260769880E+03 0.  0.
         25    1    4    4    0    0  0.91287464039E+01 -0.46802713761E+02 -0.13162370575E+03  0.18773954309E+03  0.12509000000E+03 0.  0.
         25    1    3    3    0    0 -0.28103125613E+01  0.15168671825E+02  0.32975376471E+02  0.13027996782E+03  0.12509000000E+03 0.  0.
         25    1    4    4    0    0 -0.63184338426E+01  0.31634041936E+02 -0.12971688580E+03  0.18306996962E+03  0.12509000000E+03 0.  0.
<mgrwt>
<rscale>  2 0.44602690E+03</rscale>
<asrwt>0</asrwt>
<pdfrwt beam="1">  1       21 0.20053255E-01 0.44602690E+03</pdfrwt>
<pdfrwt beam="2">  1       21 0.53636374E-01 0.44602690E+03</pdfrwt>
<totfact> 0.70051897E+04</totfact>
</mgrwt>
</event>
<event>
 7    0  0.4775379E-002  0.4307780E+03  0.7546771E-02  0.1033614E+00
         21   -1    0    0  502  501  0.00000000000E+00  0.00000000000E+00  0.12343471250E+02  0.12343471250E+02  0.00000000000E+00 0. -1.
         21   -1    0    0  501  502 -0.00000000000E+00 -0.00000000000E+00 -0.37584575696E+04  0.37584575696E+04  0.00000000000E+00 0. -1.
      99926    2    1    2    0    0  0.00000000000E+00  0.00000000000E+00 -0.37461140984E+04  0.37708010409E+04  0.43077796115E+03 0.  0.
      99925    2    3    3    0    0 -0.86138702350E+02  0.17769378330E+02 -0.23185814763E+04  0.23351017262E+04  0.26295319509E+03 0.  0.
         25    1    3    3    0    0  0.86138702350E+02 -0.17769378330E+02 -0.14275326221E+04  0.14356993146E+04  0.12509000000E+03 0.  0.
         25    1    4    4    0    0 -0.53935121874E+02  0.49538436022E+01 -0.15131901882E+04  0.15193174756E+04  0.12509000000E+03 0.  0.
         25    1    4    4    0    0 -0.32203580475E+02  0.12815534728E+02 -0.80539128804E+03  0.81578425057E+03  0.12509000000E+03 0.  0.
<mgrwt>
<rscale>  2 0.43077796E+03</rscale>
<asrwt>0</asrwt>
<pdfrwt beam="1">  1       21 0.18152157E-02 0.43077796E+03</pdfrwt>
<pdfrwt beam="2">  1       21 0.55271455E+00 0.43077796E+03</pdfrwt>
<totfact> 0.89733459E+02</totfact>
</mgrwt>
</event>
<event>
 7    0  0.4775379E-002  0.4657006E+03  0.7546771E-02  0.1023141E+00
         21   -1    0    0  502  501  0.00000000000E+00  0.00000000000E+00  0.48999465331E+03  0.48999465331E+03  0.00000000000E+00 0.  1.
         21   -1    0    0  501  502 -0.00000000000E+00 -0.00000000000E+00 -0.11065277278E+03  0.11065277278E+03  0.00000000000E+00 0.  1.
      99926    2    1    2    0    0  0.00000000000E+00  0.88817841970E-15  0.37934188053E+03  0.60064742610E+03  0.46570062074E+03 0.  0.
      99925    2    3    3    0    0 -0.29377932505E+02  0.62132299435E+01  0.39016850629E+03  0.47154904861E+03  0.26310715459E+03 0.  0.
         25    1    4    4    0    0 -0.10352459057E+02 -0.22626001827E+02  0.24920245411E+03  0.27994370970E+03  0.12509000000E+03 0.  0.
         25    1    4    4    0    0 -0.19025473449E+02  0.28839231770E+02  0.14096605218E+03  0.19160533890E+03  0.12509000000E+03 0.  0.
         25    1    3    3    0    0  0.29377932505E+02 -0.62132299435E+01 -0.10826625767E+02  0.12909837749E+03  0.12509000000E+03 0.  0.
<mgrwt>
<rscale>  2 0.46570062E+03</rscale>
<asrwt>0</asrwt>
<pdfrwt beam="1">  1       21 0.72058037E-01 0.46570062E+03</pdfrwt>
<pdfrwt beam="2">  1       21 0.16272467E-01 0.46570062E+03</pdfrwt>
<totfact> 0.53931725E+04</totfact>
</mgrwt>
</event>
<event>
 7    0  0.4775379E-002  0.4545342E+03  0.7546771E-02  0.1026378E+00
         21   -1    0    0  502  501  0.00000000000E+00  0.00000000000E+00  0.83214925939E+02  0.83214925939E+02  0.00000000000E+00 0.  1.
         21   -1    0    0  501  502 -0.00000000000E+00 -0.00000000000E+00 -0.62068606556E+03  0.62068606556E+03  0.00000000000E+00 0.  1.
      99926    2    1    2    0    0  0.00000000000E+00  0.00000000000E+00 -0.53747113962E+03  0.70390099150E+03  0.45453424503E+03 0.  0.
      99925    2    3    3    0    0  0.24647247717E+02 -0.10945888744E+03 -0.34007937651E+03  0.44467184363E+03  0.26361018822E+03 0.  0.
         25    1    4    4    0    0  0.11379184698E+02 -0.59924130144E+02 -0.10828842351E+03  0.17633569685E+03  0.12509000000E+03 0.  0.
         25    1    4    4    0    0  0.13268063019E+02 -0.49534757294E+02 -0.23179095300E+03  0.26833614678E+03  0.12509000000E+03 0.  0.
         25    1    3    3    0    0 -0.24647247717E+02  0.10945888744E+03 -0.19739176311E+03  0.25922914787E+03  0.12509000000E+03 0.  0.
<mgrwt>
<rscale>  2 0.45453425E+03</rscale>
<asrwt>0</asrwt>
<pdfrwt beam="1">  1       21 0.12237489E-01 0.45453425E+03</pdfrwt>
<pdfrwt beam="2">  1       21 0.91277367E-01 0.45453425E+03</pdfrwt>
<totfact> 0.52885223E+04</totfact>
</mgrwt>
</event>
<event>
 7    0  0.4775379E-002  0.4583221E+03  0.7546771E-02  0.1025269E+00
         21   -1    0    0  502  501  0.00000000000E+00  0.00000000000E+00  0.12914793517E+03  0.12914793517E+03  0.00000000000E+00 0.  1.
         21   -1    0    0  501  502 -0.00000000000E+00 -0.00000000000E+00 -0.40662509748E+03  0.40662509748E+03  0.00000000000E+00 0.  1.
      99926    2    1    2    0    0  0.00000000000E+00  0.00000000000E+00 -0.27747716231E+03  0.53577303265E+03  0.45832212134E+03 0.  0.
      99925    2    3    3    0    0  0.92554887493E+02  0.29305744756E+02 -0.99007338040E+02  0.29718506113E+03  0.26285218984E+03 0.  0.
         25    1    4    4    0    0  0.63172610012E+02  0.24889208497E+02 -0.13919125291E+02  0.14300874625E+03  0.12509000000E+03 0.  0.
         25    1    3    3    0    0 -0.92554887493E+02 -0.29305744756E+02 -0.17846982427E+03  0.23858797151E+03  0.12509000000E+03 0.  0.
         25    1    4    4    0    0  0.29382277481E+02  0.44165362588E+01 -0.85088212748E+02  0.15417631488E+03  0.12509000000E+03 0.  0.
<mgrwt>
<rscale>  2 0.45832212E+03</rscale>
<asrwt>0</asrwt>
<pdfrwt beam="1">  1       21 0.18992343E-01 0.45832212E+03</pdfrwt>
<pdfrwt beam="2">  1       21 0.59797809E-01 0.45832212E+03</pdfrwt>
<totfact> 0.61190370E+04</totfact>
</mgrwt>
</event>
<event>
 7    0  0.4775379E-002  0.4526394E+03  0.7546771E-02  0.1026938E+00
         21   -1    0    0  502  501  0.00000000000E+00  0.00000000000E+00  0.80416036511E+03  0.80416036511E+03  0.00000000000E+00 0. -1.
         21   -1    0    0  501  502 -0.00000000000E+00 -0.00000000000E+00 -0.63694510355E+02  0.63694510355E+02  0.00000000000E+00 0. -1.
      99926    2    1    2    0    0  0.14210854715E-13 -0.17763568394E-14  0.74046585475E+03  0.86785487546E+03  0.45263937390E+03 0.  0.
      99925    2    3    3    0    0 -0.10839392283E+03  0.86437746507E+01  0.50942538029E+03  0.58351148045E+03  0.26295906979E+03 0.  0.
         25    1    4    4    0    0 -0.65670561813E+02  0.94268792685E+01  0.34229116767E+03  0.37042170604E+03  0.12509000000E+03 0.  0.
         25    1    4    4    0    0 -0.42723361018E+02 -0.78310461780E+00  0.16713421262E+03  0.21308977441E+03  0.12509000000E+03 0.  0.
         25    1    3    3    0    0  0.10839392283E+03 -0.86437746507E+01  0.23104047446E+03  0.28434339501E+03  0.12509000000E+03 0.  0.
<mgrwt>
<rscale>  2 0.45263937E+03</rscale>
<asrwt>0</asrwt>
<pdfrwt beam="1">  1       21 0.11825887E+00 0.45263937E+03</pdfrwt>
<pdfrwt beam="2">  1       21 0.93668402E-02 0.45263937E+03</pdfrwt>
<totfact> 0.45487079E+04</totfact>
</mgrwt>
</event>
<event>
 7    0  0.4775379E-002  0.4546529E+03  0.7546771E-02  0.1026344E+00
         21   -1    0    0  502  501  0.00000000000E+00  0.00000000000E+00  0.21813238888E+02  0.21813238888E+02  0.00000000000E+00 0. -1.
         21   -1    0    0  501  502 -0.00000000000E+00 -0.00000000000E+00 -0.23690805042E+04  0.23690805042E+04  0.00000000000E+00 0. -1.
      99926    2    1    2    0    0 -0.14210854715E-13  0.00000000000E+00 -0.23472672653E+04  0.23908937431E+04  0.45465291810E+03 0.  0.
      99925    2    3    3    0    0 -0.66218582601E+02 -0.91258252545E+02 -0.15090977279E+04  0.15359734832E+04  0.26291751404E+03 0.  0.
         25    1    4    4    0    0  0.72042417065E+01 -0.51296551851E+02 -0.74579736041E+03  0.75798710294E+03  0.12509000000E+03 0.  0.
         25    1    3    3    0    0  0.66218582601E+02  0.91258252545E+02 -0.83816953737E+03  0.85492025992E+03  0.12509000000E+03 0.  0.
         25    1    4    4    0    0 -0.73422824308E+02 -0.39961700694E+02 -0.76330036751E+03  0.77798638021E+03  0.12509000000E+03 0.  0.
<mgrwt>
<rscale>  2 0.45465292E+03</rscale>
<asrwt>0</asrwt>
<pdfrwt beam="1">  1       21 0.32078294E-02 0.45465292E+03</pdfrwt>
<pdfrwt beam="2">  1       21 0.34839418E+00 0.45465292E+03</pdfrwt>
<totfact> 0.83359015E+03</totfact>
</mgrwt>
</event>
<event>
 7    0  0.4775379E-002  0.4563448E+03  0.7546771E-02  0.1025847E+00
         21   -1    0    0  502  501  0.00000000000E+00  0.00000000000E+00  0.18844843124E+03  0.18844843124E+03  0.00000000000E+00 0. -1.
         21   -1    0    0  501  502 -0.00000000000E+00 -0.00000000000E+00 -0.27626996043E+03  0.27626996043E+03  0.00000000000E+00 0. -1.
      99926    2    1    2    0    0 -0.71054273576E-14  0.00000000000E+00 -0.87821529185E+02  0.46471839167E+03  0.45634478475E+03 0.  0.
      99925    2    3    3    0    0  0.49503682773E+02  0.10217698129E+03 -0.66179669480E+02  0.29440506774E+03  0.26344609533E+03 0.  0.
         25    1    3    3    0    0 -0.49503682773E+02 -0.10217698129E+03 -0.21641859705E+02  0.17031332392E+03  0.12509000000E+03 0.  0.
         25    1    4    4    0    0  0.30850842755E+01  0.12682380019E+02 -0.37176660837E+02  0.13114866648E+03  0.12509000000E+03 0.  0.
         25    1    4    4    0    0  0.46418598498E+02  0.89494601274E+02 -0.29003008642E+02  0.16325640126E+03  0.12509000000E+03 0.  0.
<mgrwt>
<rscale>  2 0.45634478E+03</rscale>
<asrwt>0</asrwt>
<pdfrwt beam="1">  1       21 0.27713005E-01 0.45634478E+03</pdfrwt>
<pdfrwt beam="2">  1       21 0.40627934E-01 0.45634478E+03</pdfrwt>
<totfact> 0.67110806E+04</totfact>
</mgrwt>
</event>
<event>
 7    0  0.4775379E-002  0.4776771E+03  0.7546771E-02  0.1019776E+00
         21   -1    0    0  502  501  0.00000000000E+00  0.00000000000E+00  0.19577315074E+03  0.19577315074E+03  0.00000000000E+00 0. -1.
         21   -1    0    0  501  502 -0.00000000000E+00 -0.00000000000E+00 -0.29137731989E+03  0.29137731989E+03  0.00000000000E+00 0. -1.
      99926    2    1    2    0    0  0.00000000000E+00  0.00000000000E+00 -0.95604169151E+02  0.48715047064E+03  0.47767711258E+03 0.  0.
      99925    2    3    3    0    0  0.11727085496E+03 -0.22172004600E+02  0.16102937983E+01  0.28880175973E+03  0.26298253206E+03 0.  0.
         25    1    4    4    0    0  0.10064876831E+03 -0.25042177146E+02 -0.24563598854E+01  0.16251408248E+03  0.12509000000E+03 0.  0.
         25    1    3    3    0    0 -0.11727085496E+03  0.22172004600E+02 -0.97214462949E+02  0.19834871090E+03  0.12509000000E+03 0.  0.
         25    1    4    4    0    0  0.16622086642E+02  0.28701725464E+01  0.40666536837E+01  0.12628767726E+03  0.12509000000E+03 0.  0.
<mgrwt>
<rscale>  2 0.47767711E+03</rscale>
<asrwt>0</asrwt>
<pdfrwt beam="1">  1       21 0.28790169E-01 0.47767711E+03</pdfrwt>
<pdfrwt beam="2">  1       21 0.42849606E-01 0.47767711E+03</pdfrwt>
<totfact> 0.55497453E+04</totfact>
</mgrwt>
</event>
<event>
 7    0  0.4775379E-002  0.4567964E+03  0.7546771E-02  0.1025714E+00
         21   -1    0    0  502  501  0.00000000000E+00  0.00000000000E+00  0.88995015895E+03  0.88995015895E+03  0.00000000000E+00 0. -1.
         21   -1    0    0  501  502 -0.00000000000E+00 -0.00000000000E+00 -0.58616463010E+02  0.58616463010E+02  0.00000000000E+00 0. -1.
      99926    2    1    2    0    0  0.00000000000E+00  0.00000000000E+00  0.83133369594E+03  0.94856662196E+03  0.45679636852E+03 0.  0.
      99925    2    3    3    0    0  0.78886573608E+02  0.81740389061E+02  0.55390333437E+03  0.62372866802E+03  0.26329444503E+03 0.  0.
         25    1    4    4    0    0  0.35940722635E+02  0.22455805758E+02  0.34548145989E+03  0.36986611900E+03  0.12509000000E+03 0.  0.
         25    1    4    4    0    0  0.42945850973E+02  0.59284583302E+02  0.20842187448E+03  0.25386254902E+03  0.12509000000E+03 0.  0.
         25    1    3    3    0    0 -0.78886573608E+02 -0.81740389061E+02  0.27743036157E+03  0.32483795394E+03  0.12509000000E+03 0.  0.
<mgrwt>
<rscale>  2 0.45679637E+03</rscale>
<asrwt>0</asrwt>
<pdfrwt beam="1">  1       21 0.13087501E+00 0.45679637E+03</pdfrwt>
<pdfrwt beam="2">  1       21 0.86200687E-02 0.45679637E+03</pdfrwt>
<totfact> 0.40625210E+04</totfact>
</mgrwt>
</event>
<event>
 7    0  0.4775379E-002  0.4565787E+03  0.7546771E-02  0.1025778E+00
         21   -1    0    0  502  501  0.00000000000E+00  0.00000000000E+00  0.17951392413E+03  0.17951392413E+03  0.00000000000E+00 0. -1.
         21   -1    0    0  501  502 -0.00000000000E+00 -0.00000000000E+00 -0.29031751983E+03  0.29031751983E+03  0.00000000000E+00 0. -1.
      99926    2    1    2    0    0  0.00000000000E+00  0.00000000000E+00 -0.11080359570E+03  0.46983144396E+03  0.45657874339E+03 0.  0.
      99925    2    3    3    0    0 -0.27202785175E+02 -0.36219607214E+02 -0.17797196881E+03  0.32079805873E+03  0.26303140751E+03 0.  0.
         25    1    3    3    0    0  0.27202785175E+02  0.36219607214E+02  0.67168373106E+02  0.14903338523E+03  0.12509000000E+03 0.  0.
         25    1    4    4    0    0 -0.53725016818E+02 -0.26024002383E+02 -0.90349584906E+02  0.16545144824E+03  0.12509000000E+03 0.  0.
         25    1    4    4    0    0  0.26522231644E+02 -0.10195604831E+02 -0.87622383901E+02  0.15534661049E+03  0.12509000000E+03 0.  0.
<mgrwt>
<rscale>  2 0.45657874E+03</rscale>
<asrwt>0</asrwt>
<pdfrwt beam="1">  1       21 0.26399106E-01 0.45657874E+03</pdfrwt>
<pdfrwt beam="2">  1       21 0.42693753E-01 0.45657874E+03</pdfrwt>
<totfact> 0.66610215E+04</totfact>
</mgrwt>
</event>
<event>
 7    0  0.4775379E-002  0.4590678E+03  0.7546771E-02  0.1025052E+00
         21   -1    0    0  502  501  0.00000000000E+00  0.00000000000E+00  0.11185822256E+03  0.11185822256E+03  0.00000000000E+00 0. -1.
         21   -1    0    0  501  502 -0.00000000000E+00 -0.00000000000E+00 -0.47100521358E+03  0.47100521358E+03  0.00000000000E+00 0. -1.
      99926    2    1    2    0    0 -0.17763568394E-14  0.00000000000E+00 -0.35914699102E+03  0.58286343614E+03  0.45906777717E+03 0.  0.
      99925    2    3    3    0    0  0.78342642291E+01  0.10744674139E+03 -0.16744411956E+03  0.32987395621E+03  0.26300782475E+03 0.  0.
         25    1    4    4    0    0 -0.17479607418E+02  0.85598320822E+02 -0.70261415313E+02  0.16797852180E+03  0.12509000000E+03 0.  0.
         25    1    4    4    0    0  0.25313871647E+02  0.21848420572E+02 -0.97182704250E+02  0.16189543442E+03  0.12509000000E+03 0.  0.
         25    1    3    3    0    0 -0.78342642291E+01 -0.10744674139E+03 -0.19170287146E+03  0.25298947993E+03  0.12509000000E+03 0.  0.
<mgrwt>
<rscale>  2 0.45906778E+03</rscale>
<asrwt>0</asrwt>
<pdfrwt beam="1">  1       21 0.16449739E-01 0.45906778E+03</pdfrwt>
<pdfrwt beam="2">  1       21 0.69265473E-01 0.45906778E+03</pdfrwt>
<totfact> 0.57862434E+04</totfact>
</mgrwt>
</event>
<event>
 7    0  0.4775379E-002  0.4605055E+03  0.7546771E-02  0.1024635E+00
         21   -1    0    0  502  501  0.00000000000E+00  0.00000000000E+00  0.46927401332E+02  0.46927401332E+02  0.00000000000E+00 0. -1.
         21   -1    0    0  501  502 -0.00000000000E+00 -0.00000000000E+00 -0.11297520965E+04  0.11297520965E+04  0.00000000000E+00 0. -1.
      99926    2    1    2    0    0  0.00000000000E+00  0.00000000000E+00 -0.10828246952E+04  0.11766794978E+04  0.46050550501E+03 0.  0.
      99925    2    3    3    0    0  0.64331719645E+02  0.93846031601E+02 -0.59543378378E+03  0.66078895091E+03  0.26297338074E+03 0.  0.
         25    1    3    3    0    0 -0.64331719645E+02 -0.93846031601E+02 -0.48739091138E+03  0.51589054691E+03  0.12509000000E+03 0.  0.
         25    1    4    4    0    0  0.62554236822E+02  0.44293291882E+02 -0.24709967409E+03  0.28736855305E+03  0.12509000000E+03 0.  0.
         25    1    4    4    0    0  0.17774828231E+01  0.49552739719E+02 -0.34833410969E+03  0.37342039786E+03  0.12509000000E+03 0.  0.
<mgrwt>
<rscale>  2 0.46050551E+03</rscale>
<asrwt>0</asrwt>
<pdfrwt beam="1">  1       21 0.69010893E-02 0.46050551E+03</pdfrwt>
<pdfrwt beam="2">  1       21 0.16613999E+00 0.46050551E+03</pdfrwt>
<totfact> 0.31529577E+04</totfact>
</mgrwt>
</event>
<event>
 7    0  0.4775379E-002  0.4604223E+03  0.7546771E-02  0.1024659E+00
         21   -1    0    0  502  501  0.00000000000E+00  0.00000000000E+00  0.37645819335E+03  0.37645819335E+03  0.00000000000E+00 0. -1.
         21   -1    0    0  501  502 -0.00000000000E+00 -0.00000000000E+00 -0.14077839274E+03  0.14077839274E+03  0.00000000000E+00 0. -1.
      99926    2    1    2    0    0 -0.14210854715E-13 -0.14210854715E-13  0.23567980062E+03  0.51723658609E+03  0.46042232523E+03 0.  0.
      99925    2    3    3    0    0  0.93977737306E+02  0.68859655363E+02  0.12643596356E+03  0.31436916317E+03  0.26318900172E+03 0.  0.
         25    1    4    4    0    0  0.58318990589E+02  0.73044135151E+02  0.85011267430E+02  0.17779475255E+03  0.12509000000E+03 0.  0.
         25    1    3    3    0    0 -0.93977737306E+02 -0.68859655363E+02  0.10924383705E+03  0.20286742291E+03  0.12509000000E+03 0.  0.
         25    1    4    4    0    0  0.35658746717E+02 -0.41844797877E+01  0.41424696132E+02  0.13657441063E+03  0.12509000000E+03 0.  0.
<mgrwt>
<rscale>  2 0.46042233E+03</rscale>
<asrwt>0</asrwt>
<pdfrwt beam="1">  1       21 0.55361499E-01 0.46042233E+03</pdfrwt>
<pdfrwt beam="2">  1       21 0.20702705E-01 0.46042233E+03</pdfrwt>
<totfact> 0.61391558E+04</totfact>
</mgrwt>
</event>
<event>
 7    0  0.4775379E-002  0.4508498E+03  0.7546771E-02  0.1027469E+00
         21   -1    0    0  502  501  0.00000000000E+00  0.00000000000E+00  0.52582704103E+02  0.52582704103E+02  0.00000000000E+00 0.  1.
         21   -1    0    0  501  502 -0.00000000000E+00 -0.00000000000E+00 -0.96640876252E+03  0.96640876252E+03  0.00000000000E+00 0.  1.
      99926    2    1    2    0    0 -0.17763568394E-14  0.26645352591E-14 -0.91382605841E+03  0.10189914666E+04  0.45084980205E+03 0.  0.
      99925    2    3    3    0    0 -0.13858766452E+02 -0.61757804448E+01 -0.33579065039E+03  0.42738125145E+03  0.26394917603E+03 0.  0.
         25    1    3    3    0    0  0.13858766452E+02  0.61757804448E+01 -0.57803540802E+03  0.59161021517E+03  0.12509000000E+03 0.  0.
         25    1    4    4    0    0 -0.28113608207E+02 -0.31274135764E+02 -0.13293837719E+03  0.18731942442E+03  0.12509000000E+03 0.  0.
         25    1    4    4    0    0  0.14254841755E+02  0.25098355319E+02 -0.20285227320E+03  0.24006182703E+03  0.12509000000E+03 0.  0.
<mgrwt>
<rscale>  2 0.45084980E+03</rscale>
<asrwt>0</asrwt>
<pdfrwt beam="1">  1       21 0.77327508E-02 0.45084980E+03</pdfrwt>
<pdfrwt beam="2">  1       21 0.14211893E+00 0.45084980E+03</pdfrwt>
<totfact> 0.39707295E+04</totfact>
</mgrwt>
</event>
<event>
 7    0  0.4775379E-002  0.4488405E+03  0.7546771E-02  0.1028068E+00
         21   -1    0    0  502  501  0.00000000000E+00  0.00000000000E+00  0.56412703736E+03  0.56412703736E+03  0.00000000000E+00 0. -1.
         21   -1    0    0  501  502 -0.00000000000E+00 -0.00000000000E+00 -0.89278560636E+02  0.89278560636E+02  0.00000000000E+00 0. -1.
      99926    2    1    2    0    0  0.35527136788E-14  0.00000000000E+00  0.47484847673E+03  0.65340559800E+03  0.44884050580E+03 0.  0.
      99925    2    3    3    0    0  0.19657893336E+02  0.96294541928E+02  0.36378374499E+03  0.45939025244E+03  0.26275791015E+03 0.  0.
         25    1    3    3    0    0 -0.19657893336E+02 -0.96294541928E+02  0.11106473174E+03  0.19401534556E+03  0.12509000000E+03 0.  0.
         25    1    4    4    0    0 -0.23959933867E+02  0.55702087023E+02  0.14885688732E+03  0.20367297792E+03  0.12509000000E+03 0.  0.
         25    1    4    4    0    0  0.43617827203E+02  0.40592454905E+02  0.21492685767E+03  0.25571727453E+03  0.12509000000E+03 0.  0.
<mgrwt>
<rscale>  2 0.44884051E+03</rscale>
<asrwt>0</asrwt>
<pdfrwt beam="1">  1       21 0.82959857E-01 0.44884051E+03</pdfrwt>
<pdfrwt beam="2">  1       21 0.13129200E-01 0.44884051E+03</pdfrwt>
<totfact> 0.58286297E+04</totfact>
</mgrwt>
</event>
<event>
 7    0  0.4775379E-002  0.4535091E+03  0.7546771E-02  0.1026681E+00
         21   -1    0    0  502  501  0.00000000000E+00  0.00000000000E+00  0.45661998325E+03  0.45661998325E+03  0.00000000000E+00 0.  1.
         21   -1    0    0  501  502 -0.00000000000E+00 -0.00000000000E+00 -0.11260485876E+03  0.11260485876E+03  0.00000000000E+00 0.  1.
      99926    2    1    2    0    0 -0.14210854715E-13  0.00000000000E+00  0.34401512449E+03  0.56922484200E+03  0.45350911223E+03 0.  0.
      99925    2    3    3    0    0 -0.91495699248E+02 -0.23483390531E+02  0.14176842331E+03  0.31334563446E+03  0.26299100399E+03 0.  0.
         25    1    3    3    0    0  0.91495699248E+02  0.23483390531E+02  0.20224670119E+03  0.25587920754E+03  0.12509000000E+03 0.  0.
         25    1    4    4    0    0 -0.23070702698E+02  0.12313320937E+02  0.94457147567E+02  0.15891361182E+03  0.12509000000E+03 0.  0.
         25    1    4    4    0    0 -0.68424996551E+02 -0.35796711468E+02  0.47311275740E+02  0.15443202264E+03  0.12509000000E+03 0.  0.
<mgrwt>
<rscale>  2 0.45350911E+03</rscale>
<asrwt>0</asrwt>
<pdfrwt beam="1">  1       21 0.67149997E-01 0.45350911E+03</pdfrwt>
<pdfrwt beam="2">  1       21 0.16559538E-01 0.45350911E+03</pdfrwt>
<totfact> 0.61333634E+04</totfact>
</mgrwt>
</event>
<event>
 7    0  0.4775379E-002  0.4576485E+03  0.7546771E-02  0.1025465E+00
         21   -1    0    0  502  501  0.00000000000E+00  0.00000000000E+00  0.98968041792E+02  0.98968041792E+02  0.00000000000E+00 0.  1.
         21   -1    0    0  501  502 -0.00000000000E+00 -0.00000000000E+00 -0.52906514214E+03  0.52906514214E+03  0.00000000000E+00 0.  1.
      99926    2    1    2    0    0  0.35527136788E-14  0.00000000000E+00 -0.43009710035E+03  0.62803318394E+03  0.45764851622E+03 0.  0.
      99925    2    3    3    0    0  0.29540553860E+02 -0.74745764954E+02 -0.15576718318E+03  0.31600115793E+03  0.26293296247E+03 0.  0.
         25    1    4    4    0    0  0.21386902776E+02 -0.74781545446E+02 -0.10432112182E+03  0.18049953936E+03  0.12509000000E+03 0.  0.
         25    1    4    4    0    0  0.81536510838E+01  0.35780491692E-01 -0.51446061363E+02  0.13550161857E+03  0.12509000000E+03 0.  0.
         25    1    3    3    0    0 -0.29540553860E+02  0.74745764954E+02 -0.27432991717E+03  0.31203202601E+03  0.12509000000E+03 0.  0.
<mgrwt>
<rscale>  2 0.45764852E+03</rscale>
<asrwt>0</asrwt>
<pdfrwt beam="1">  1       21 0.14554124E-01 0.45764852E+03</pdfrwt>
<pdfrwt beam="2">  1       21 0.77803696E-01 0.45764852E+03</pdfrwt>
<totfact> 0.55808985E+04</totfact>
</mgrwt>
</event>
<event>
 7    0  0.4775379E-002  0.4611942E+03  0.7546771E-02  0.1024435E+00
         21   -1    0    0  502  501  0.00000000000E+00  0.00000000000E+00  0.21511315558E+03  0.21511315558E+03  0.00000000000E+00 0.  1.
         21   -1    0    0  501  502 -0.00000000000E+00 -0.00000000000E+00 -0.24719562911E+03  0.24719562911E+03  0.00000000000E+00 0.  1.
      99926    2    1    2    0    0  0.00000000000E+00  0.00000000000E+00 -0.32082473537E+02  0.46230878469E+03  0.46119424031E+03 0.  0.
      99925    2    3    3    0    0  0.39864992813E+02 -0.10288982297E+03 -0.64482619005E+02  0.29238877160E+03  0.26297842550E+03 0.  0.
         25    1    4    4    0    0  0.19187716316E+02 -0.25288310334E+02  0.31092363803E+01  0.12909237990E+03  0.12509000000E+03 0.  0.
         25    1    3    3    0    0 -0.39864992813E+02  0.10288982297E+03  0.32400145468E+02  0.16992001309E+03  0.12509000000E+03 0.  0.
         25    1    4    4    0    0  0.20677276496E+02 -0.77601512639E+02 -0.67591855385E+02  0.16329639170E+03  0.12509000000E+03 0.  0.
<mgrwt>
<rscale>  2 0.46119424E+03</rscale>
<asrwt>0</asrwt>
<pdfrwt beam="1">  1       21 0.31634288E-01 0.46119424E+03</pdfrwt>
<pdfrwt beam="2">  1       21 0.36352298E-01 0.46119424E+03</pdfrwt>
<totfact> 0.64753727E+04</totfact>
</mgrwt>
</event>
<event>
 7    0  0.4775379E-002  0.4456050E+03  0.7546771E-02  0.1029041E+00
         21   -1    0    0  502  501  0.00000000000E+00  0.00000000000E+00  0.17664896598E+03  0.17664896598E+03  0.00000000000E+00 0.  1.
         21   -1    0    0  501  502 -0.00000000000E+00 -0.00000000000E+00 -0.28101466769E+03  0.28101466769E+03  0.00000000000E+00 0.  1.
      99926    2    1    2    0    0 -0.71054273576E-14  0.00000000000E+00 -0.10436570171E+03  0.45766363367E+03  0.44560498414E+03 0.  0.
      99925    2    3    3    0    0  0.62408641620E+02 -0.70632490699E+02 -0.20900301562E+02  0.28018752707E+03  0.26302935279E+03 0.  0.
         25    1    4    4    0    0  0.49670809225E+02 -0.25729996363E+02  0.24428408449E+02  0.13918863905E+03  0.12509000000E+03 0.  0.
         25    1    4    4    0    0  0.12737832395E+02 -0.44902494336E+02 -0.45328710011E+02  0.14099888802E+03  0.12509000000E+03 0.  0.
         25    1    3    3    0    0 -0.62408641620E+02  0.70632490699E+02 -0.83465400151E+02  0.17747610660E+03  0.12509000000E+03 0.  0.
<mgrwt>
<rscale>  2 0.44560498E+03</rscale>
<asrwt>0</asrwt>
<pdfrwt beam="1">  1       21 0.25977790E-01 0.44560498E+03</pdfrwt>
<pdfrwt beam="2">  1       21 0.41325686E-01 0.44560498E+03</pdfrwt>
<totfact> 0.73705942E+04</totfact>
</mgrwt>
</event>
<event>
 7    0  0.4775379E-002  0.4488566E+03  0.7546771E-02  0.1028064E+00
         21   -1    0    0  502  501  0.00000000000E+00  0.00000000000E+00  0.29223087269E+03  0.29223087269E+03  0.00000000000E+00 0.  1.
         21   -1    0    0  501  502 -0.00000000000E+00 -0.00000000000E+00 -0.17235710383E+03  0.17235710383E+03  0.00000000000E+00 0.  1.
      99926    2    1    2    0    0  0.71054273576E-14 -0.66613381478E-15  0.11987376885E+03  0.46458797652E+03  0.44885662239E+03 0.  0.
      99925    2    3    3    0    0 -0.35930673490E+02  0.12350679374E+01  0.18048413604E+03  0.32101338475E+03  0.26302572334E+03 0.  0.
         25    1    4    4    0    0  0.18710003133E+02  0.16193409489E+02  0.98023128867E+02  0.16083635354E+03  0.12509000000E+03 0.  0.
         25    1    3    3    0    0  0.35930673490E+02 -0.12350679374E+01 -0.60610367185E+02  0.14357459177E+03  0.12509000000E+03 0.  0.
         25    1    4    4    0    0 -0.54640676623E+02 -0.14958341552E+02  0.82461007171E+02  0.16017703121E+03  0.12509000000E+03 0.  0.
<mgrwt>
<rscale>  2 0.44885662E+03</rscale>
<asrwt>0</asrwt>
<pdfrwt beam="1">  1       21 0.42975128E-01 0.44885662E+03</pdfrwt>
<pdfrwt beam="2">  1       21 0.25346633E-01 0.44885662E+03</pdfrwt>
<totfact> 0.71249880E+04</totfact>
</mgrwt>
</event>
<event>
 7    0  0.4775379E-002  0.4661370E+03  0.7546771E-02  0.1023016E+00
         21   -1    0    0  502  501  0.00000000000E+00  0.00000000000E+00  0.31976469907E+03  0.31976469907E+03  0.00000000000E+00 0.  1.
         21   -1    0    0  501  502 -0.00000000000E+00 -0.00000000000E+00 -0.16987782714E+03  0.16987782714E+03  0.00000000000E+00 0.  1.
      99926    2    1    2    0    0 -0.35527136788E-14  0.00000000000E+00  0.14988687194E+03  0.48964252621E+03  0.46613702824E+03 0.  0.
      99925    2    3    3    0    0  0.31297700497E+02 -0.74707936028E+02 -0.42350075812E+01  0.27525529803E+03  0.26303368994E+03 0.  0.
         25    1    3    3    0    0 -0.31297700497E+02  0.74707936028E+02  0.15412187952E+03  0.21438722818E+03  0.12509000000E+03 0.  0.
         25    1    4    4    0    0  0.36141361970E+02 -0.17701887312E+02 -0.31264624605E+02  0.13507234991E+03  0.12509000000E+03 0.  0.
         25    1    4    4    0    0 -0.48436614728E+01 -0.57006048716E+02  0.27029617023E+02  0.14018294812E+03  0.12509000000E+03 0.  0.
<mgrwt>
<rscale>  2 0.46613703E+03</rscale>
<asrwt>0</asrwt>
<pdfrwt beam="1">  1       21 0.47024220E-01 0.46613703E+03</pdfrwt>
<pdfrwt beam="2">  1       21 0.24982034E-01 0.46613703E+03</pdfrwt>
<totfact> 0.60478499E+04</totfact>
</mgrwt>
</event>
<event>
 7    0  0.4775379E-002  0.4566670E+03  0.7546771E-02  0.1025752E+00
         21   -1    0    0  502  501  0.00000000000E+00  0.00000000000E+00  0.14337189975E+03  0.14337189975E+03  0.00000000000E+00 0. -1.
         21   -1    0    0  501  502 -0.00000000000E+00 -0.00000000000E+00 -0.36364304083E+03  0.36364304083E+03  0.00000000000E+00 0. -1.
      99926    2    1    2    0    0  0.00000000000E+00  0.00000000000E+00 -0.22027114108E+03  0.50701494057E+03  0.45666702790E+03 0.  0.
      99925    2    3    3    0    0  0.20388738466E+02  0.82885430038E+02 -0.53333383794E+02  0.28162324136E+03  0.26302377283E+03 0.  0.
         25    1    4    4    0    0  0.17543696179E+02  0.81716523044E+02 -0.17444098301E+02  0.15145024292E+03  0.12509000000E+03 0.  0.
         25    1    4    4    0    0  0.28450422865E+01  0.11689069942E+01 -0.35889285493E+02  0.13017299844E+03  0.12509000000E+03 0.  0.
         25    1    3    3    0    0 -0.20388738466E+02 -0.82885430038E+02 -0.16693775729E+03  0.22539169922E+03  0.12509000000E+03 0.  0.
<mgrwt>
<rscale>  2 0.45666703E+03</rscale>
<asrwt>0</asrwt>
<pdfrwt beam="1">  1       21 0.21084103E-01 0.45666703E+03</pdfrwt>
<pdfrwt beam="2">  1       21 0.53476916E-01 0.45666703E+03</pdfrwt>
<totfact> 0.63930514E+04</totfact>
</mgrwt>
</event>
<event>
 7    0  0.4775379E-002  0.4558358E+03  0.7546771E-02  0.1025996E+00
         21   -1    0    0  502  501  0.00000000000E+00  0.00000000000E+00  0.26922484634E+03  0.26922484634E+03  0.00000000000E+00 0.  1.
         21   -1    0    0  501  502 -0.00000000000E+00 -0.00000000000E+00 -0.19294867947E+03  0.19294867947E+03  0.00000000000E+00 0.  1.
      99926    2    1    2    0    0  0.00000000000E+00  0.00000000000E+00  0.76276166865E+02  0.46217352581E+03  0.45583584142E+03 0.  0.
      99925    2    3    3    0    0  0.52450691129E+02 -0.66667889575E+02  0.12522617933E+03  0.30330472988E+03  0.26290013442E+03 0.  0.
         25    1    4    4    0    0  0.57574683555E+02 -0.55947032790E+02  0.49822469130E+02  0.15676320102E+03  0.12509000000E+03 0.  0.
         25    1    3    3    0    0 -0.52450691129E+02  0.66667889575E+02 -0.48950012461E+02  0.15886879593E+03  0.12509000000E+03 0.  0.
         25    1    4    4    0    0 -0.51239924258E+01 -0.10720856785E+02  0.75403710195E+02  0.14654152886E+03  0.12509000000E+03 0.  0.
<mgrwt>
<rscale>  2 0.45583584E+03</rscale>
<asrwt>0</asrwt>
<pdfrwt beam="1">  1       21 0.39591889E-01 0.45583584E+03</pdfrwt>
<pdfrwt beam="2">  1       21 0.28374806E-01 0.45583584E+03</pdfrwt>
<totfact> 0.67570328E+04</totfact>
</mgrwt>
</event>
<event>
 7    0  0.4775379E-002  0.4535379E+03  0.7546771E-02  0.1026672E+00
         21   -1    0    0  502  501  0.00000000000E+00  0.00000000000E+00  0.27861151561E+04  0.27861151561E+04  0.00000000000E+00 0. -1.
         21   -1    0    0  501  502 -0.00000000000E+00 -0.00000000000E+00 -0.18457297944E+02  0.18457297944E+02  0.00000000000E+00 0. -1.
      99926    2    1    2    0    0  0.00000000000E+00  0.14210854715E-13  0.27676578582E+04  0.28045724541E+04  0.45353790378E+03 0.  0.
      99925    2    3    3    0    0  0.80685284180E+02 -0.77312499948E+02  0.17584079171E+04  0.17814789640E+04  0.26302387449E+03 0.  0.
         25    1    3    3    0    0 -0.80685284180E+02  0.77312499948E+02  0.10092499411E+04  0.10230934901E+04  0.12509000000E+03 0.  0.
         25    1    4    4    0    0  0.28976548546E+02 -0.21369423084E+02  0.60747768075E+03  0.62126719962E+03  0.12509000000E+03 0.  0.
         25    1    4    4    0    0  0.51708735634E+02 -0.55943076865E+02  0.11509302363E+04  0.11602117644E+04  0.12509000000E+03 0.  0.
<mgrwt>
<rscale>  2 0.45353790E+03</rscale>
<asrwt>0</asrwt>
<pdfrwt beam="1">  1       21 0.40972253E+00 0.45353790E+03</pdfrwt>
<pdfrwt beam="2">  1       21 0.27143104E-02 0.45353790E+03</pdfrwt>
<totfact> 0.45421985E+03</totfact>
</mgrwt>
</event>
<event>
 7    0  0.4775379E-002  0.4632188E+03  0.7546771E-02  0.1023852E+00
         21   -1    0    0  502  501  0.00000000000E+00  0.00000000000E+00  0.11060645538E+03  0.11060645538E+03  0.00000000000E+00 0.  1.
         21   -1    0    0  501  502 -0.00000000000E+00 -0.00000000000E+00 -0.48498893144E+03  0.48498893144E+03  0.00000000000E+00 0.  1.
      99926    2    1    2    0    0  0.00000000000E+00  0.14210854715E-13 -0.37438247606E+03  0.59559538682E+03  0.46321876735E+03 0.  0.
      99925    2    3    3    0    0 -0.12442539318E+02  0.75513205770E+02 -0.35390568361E+03  0.44752827988E+03  0.26301191488E+03 0.  0.
         25    1    3    3    0    0  0.12442539318E+02 -0.75513205770E+02 -0.20476792449E+02  0.14806710695E+03  0.12509000000E+03 0.  0.
         25    1    4    4    0    0 -0.28984580575E+02  0.61454168038E+02 -0.14592294903E+03  0.20385714566E+03  0.12509000000E+03 0.  0.
         25    1    4    4    0    0  0.16542041257E+02  0.14059037732E+02 -0.20798273457E+03  0.24367113422E+03  0.12509000000E+03 0.  0.
<mgrwt>
<rscale>  2 0.46321877E+03</rscale>
<asrwt>0</asrwt>
<pdfrwt beam="1">  1       21 0.16265656E-01 0.46321877E+03</pdfrwt>
<pdfrwt beam="2">  1       21 0.71321900E-01 0.46321877E+03</pdfrwt>
<totfact> 0.55271901E+04</totfact>
</mgrwt>
</event>
<event>
 7    0  0.4775379E-002  0.4434842E+03  0.7546771E-02  0.1029683E+00
         21   -1    0    0  502  501  0.00000000000E+00  0.00000000000E+00  0.53496461493E+03  0.53496461493E+03  0.00000000000E+00 0. -1.
         21   -1    0    0  501  502 -0.00000000000E+00 -0.00000000000E+00 -0.91911805327E+02  0.91911805327E+02  0.00000000000E+00 0. -1.
      99926    2    1    2    0    0  0.17763568394E-14  0.00000000000E+00  0.44305280960E+03  0.62687642025E+03  0.44348422089E+03 0.  0.
      99925    2    3    3    0    0 -0.10576861444E+02 -0.26563950361E+02  0.14315433797E+03  0.30067998427E+03  0.26286455639E+03 0.  0.
         25    1    4    4    0    0 -0.31270957433E+02  0.13627318575E+02  0.53411636576E+02  0.14022798441E+03  0.12509000000E+03 0.  0.
         25    1    3    3    0    0  0.10576861444E+02  0.26563950361E+02  0.29989847163E+03  0.32619643598E+03  0.12509000000E+03 0.  0.
         25    1    4    4    0    0  0.20694095989E+02 -0.40191268935E+02  0.89742701390E+02  0.16045199986E+03  0.12509000000E+03 0.  0.
<mgrwt>
<rscale>  2 0.44348422E+03</rscale>
<asrwt>0</asrwt>
<pdfrwt beam="1">  1       21 0.78671266E-01 0.44348422E+03</pdfrwt>
<pdfrwt beam="2">  1       21 0.13516442E-01 0.44348422E+03</pdfrwt>
<totfact> 0.62548898E+04</totfact>
</mgrwt>
</event>
<event>
 7    0  0.4775379E-002  0.4592968E+03  0.7546771E-02  0.1024985E+00
         21   -1    0    0  502  501  0.00000000000E+00  0.00000000000E+00  0.81362738154E+03  0.81362738154E+03  0.00000000000E+00 0. -1.
         21   -1    0    0  501  502 -0.00000000000E+00 -0.00000000000E+00 -0.64818857915E+02  0.64818857915E+02  0.00000000000E+00 0. -1.
      99926    2    1    2    0    0  0.00000000000E+00  0.14210854715E-13  0.74880852362E+03  0.87844623945E+03  0.45929684362E+03 0.  0.
      99925    2    3    3    0    0  0.70531261556E+02  0.89189260641E+02  0.41500724580E+03  0.50428025457E+03  0.26294139653E+03 0.  0.
         25    1    3    3    0    0 -0.70531261556E+02 -0.89189260641E+02  0.33380127782E+03  0.37416598488E+03  0.12509000000E+03 0.  0.
         25    1    4    4    0    0  0.66003448731E+01  0.11568807385E+02  0.19123736920E+03  0.22890312653E+03  0.12509000000E+03 0.  0.
         25    1    4    4    0    0  0.63930916683E+02  0.77620453256E+02  0.22376987660E+03  0.27537712804E+03  0.12509000000E+03 0.  0.
<mgrwt>
<rscale>  2 0.45929684E+03</rscale>
<asrwt>0</asrwt>
<pdfrwt beam="1">  1       21 0.11965108E+00 0.45929684E+03</pdfrwt>
<pdfrwt beam="2">  1       21 0.95321855E-02 0.45929684E+03</pdfrwt>
<totfact> 0.42722735E+04</totfact>
</mgrwt>
</event>
<event>
 7    0  0.4775379E-002  0.4546855E+03  0.7546771E-02  0.1026334E+00
         21   -1    0    0  502  501  0.00000000000E+00  0.00000000000E+00  0.49813816828E+03  0.49813816828E+03  0.00000000000E+00 0. -1.
         21   -1    0    0  501  502 -0.00000000000E+00 -0.00000000000E+00 -0.10375579070E+03  0.10375579070E+03  0.00000000000E+00 0. -1.
      99926    2    1    2    0    0 -0.88817841970E-15  0.00000000000E+00  0.39438237758E+03  0.60189395897E+03  0.45468547162E+03 0.  0.
      99925    2    3    3    0    0  0.52384441432E+01  0.89891894021E+02  0.33827552055E+03  0.43787115137E+03  0.26304528791E+03 0.  0.
         25    1    4    4    0    0 -0.57054406203E+00  0.76875319872E+01  0.12295342301E+03  0.17556900637E+03  0.12509000000E+03 0.  0.
         25    1    4    4    0    0  0.58089882052E+01  0.82204362034E+02  0.21532209754E+03  0.26230214500E+03  0.12509000000E+03 0.  0.
         25    1    3    3    0    0 -0.52384441432E+01 -0.89891894021E+02  0.56106857031E+02  0.16402280760E+03  0.12509000000E+03 0.  0.
<mgrwt>
<rscale>  2 0.45468547E+03</rscale>
<asrwt>0</asrwt>
<pdfrwt beam="1">  1       21 0.73255612E-01 0.45468547E+03</pdfrwt>
<pdfrwt beam="2">  1       21 0.15258205E-01 0.45468547E+03</pdfrwt>
<totfact> 0.58707595E+04</totfact>
</mgrwt>
</event>
<event>
 7    0  0.4775379E-002  0.4492659E+03  0.7546771E-02  0.1027941E+00
         21   -1    0    0  502  501  0.00000000000E+00  0.00000000000E+00  0.15794243411E+03  0.15794243411E+03  0.00000000000E+00 0.  1.
         21   -1    0    0  501  502 -0.00000000000E+00 -0.00000000000E+00 -0.31948318638E+03  0.31948318638E+03  0.00000000000E+00 0.  1.
      99926    2    1    2    0    0  0.00000000000E+00 -0.35527136788E-14 -0.16154075227E+03  0.47742562049E+03  0.44926585499E+03 0.  0.
      99925    2    3    3    0    0 -0.80143974033E+02  0.16135145619E+02 -0.27687428949E+02  0.27680752619E+03  0.26300648915E+03 0.  0.
         25    1    4    4    0    0 -0.60431878589E+02  0.42516776778E+02 -0.42261370514E+01  0.14534461322E+03  0.12509000000E+03 0.  0.
         25    1    4    4    0    0 -0.19712095444E+02 -0.26381631159E+02 -0.23461291898E+02  0.13146291297E+03  0.12509000000E+03 0.  0.
         25    1    3    3    0    0  0.80143974033E+02 -0.16135145619E+02 -0.13385332332E+03  0.20061809430E+03  0.12509000000E+03 0.  0.
<mgrwt>
<rscale>  2 0.44926585E+03</rscale>
<asrwt>0</asrwt>
<pdfrwt beam="1">  1       21 0.23226829E-01 0.44926585E+03</pdfrwt>
<pdfrwt beam="2">  1       21 0.46982821E-01 0.44926585E+03</pdfrwt>
<totfact> 0.70021149E+04</totfact>
</mgrwt>
</event>
<event>
 7    0  0.4775379E-002  0.4566398E+03  0.7546771E-02  0.1025760E+00
         21   -1    0    0  502  501  0.00000000000E+00  0.00000000000E+00  0.15309161462E+04  0.15309161462E+04  0.00000000000E+00 0.  1.
         21   -1    0    0  501  502 -0.00000000000E+00 -0.00000000000E+00 -0.34051483494E+02  0.34051483494E+02  0.00000000000E+00 0.  1.
      99926    2    1    2    0    0 -0.17763568394E-14  0.00000000000E+00  0.14968646627E+04  0.15649676297E+04  0.45663975247E+03 0.  0.
      99925    2    3    3    0    0 -0.97073790160E+01 -0.87164055903E+02  0.11939280678E+04  0.12256891386E+04  0.26297875903E+03 0.  0.
         25    1    4    4    0    0 -0.13009081311E+02 -0.80210136034E+02  0.56239013299E+03  0.58183594930E+03  0.12509000000E+03 0.  0.
         25    1    3    3    0    0  0.97073790160E+01  0.87164055903E+02  0.30293659496E+03  0.33927849109E+03  0.12509000000E+03 0.  0.
         25    1    4    4    0    0  0.33017022949E+01 -0.69539198690E+01  0.63153793478E+03  0.64385318932E+03  0.12509000000E+03 0.  0.
<mgrwt>
<rscale>  2 0.45663975E+03</rscale>
<asrwt>0</asrwt>
<pdfrwt beam="1">  1       21 0.22513468E+00 0.45663975E+03</pdfrwt>
<pdfrwt beam="2">  1       21 0.50075721E-02 0.45663975E+03</pdfrwt>
<totfact> 0.21950018E+04</totfact>
</mgrwt>
</event>
<event>
 7    0  0.4775379E-002  0.4556569E+03  0.7546771E-02  0.1026048E+00
         21   -1    0    0  502  501  0.00000000000E+00  0.00000000000E+00  0.36510995025E+03  0.36510995025E+03  0.00000000000E+00 0.  1.
         21   -1    0    0  501  502 -0.00000000000E+00 -0.00000000000E+00 -0.14216487962E+03  0.14216487962E+03  0.00000000000E+00 0.  1.
      99926    2    1    2    0    0  0.35527136788E-14  0.00000000000E+00  0.22294507063E+03  0.50727482987E+03  0.45565694168E+03 0.  0.
      99925    2    3    3    0    0 -0.29738021687E+02  0.42215168874E+02  0.27479672530E+02  0.26953400381E+03  0.26311019819E+03 0.  0.
         25    1    3    3    0    0  0.29738021687E+02 -0.42215168874E+02  0.19546539810E+03  0.23774082605E+03  0.12509000000E+03 0.  0.
         25    1    4    4    0    0  0.10910737333E+02 -0.10016374871E+02  0.36143267328E+01  0.12601564749E+03  0.12509000000E+03 0.  0.
         25    1    4    4    0    0 -0.40648759020E+02  0.52231543745E+02  0.23865345797E+02  0.14351835632E+03  0.12509000000E+03 0.  0.
<mgrwt>
<rscale>  2 0.45565694E+03</rscale>
<asrwt>0</asrwt>
<pdfrwt beam="1">  1       21 0.53692640E-01 0.45565694E+03</pdfrwt>
<pdfrwt beam="2">  1       21 0.20906600E-01 0.45565694E+03</pdfrwt>
<totfact> 0.64425966E+04</totfact>
</mgrwt>
</event>
<event>
 7    0  0.4775379E-002  0.4511566E+03  0.7546771E-02  0.1027378E+00
         21   -1    0    0  502  501  0.00000000000E+00  0.00000000000E+00  0.59057723988E+02  0.59057723988E+02  0.00000000000E+00 0. -1.
         21   -1    0    0  501  502 -0.00000000000E+00 -0.00000000000E+00 -0.86162416084E+03  0.86162416084E+03  0.00000000000E+00 0. -1.
      99926    2    1    2    0    0  0.00000000000E+00  0.00000000000E+00 -0.80256643685E+03  0.92068188483E+03  0.45115656649E+03 0.  0.
      99925    2    3    3    0    0 -0.71008203904E+02  0.58639482498E+02 -0.62795811648E+03  0.68698052075E+03  0.26292600842E+03 0.  0.
         25    1    4    4    0    0 -0.65545505230E+02  0.26266097949E+02 -0.39832401138E+03  0.42343316745E+03  0.12509000000E+03 0.  0.
         25    1    3    3    0    0  0.71008203904E+02 -0.58639482498E+02 -0.17460832037E+03  0.23370136408E+03  0.12509000000E+03 0.  0.
         25    1    4    4    0    0 -0.54626986733E+01  0.32373384549E+02 -0.22963410510E+03  0.26354735330E+03  0.12509000000E+03 0.  0.
<mgrwt>
<rscale>  2 0.45115657E+03</rscale>
<asrwt>0</asrwt>
<pdfrwt beam="1">  1       21 0.86849594E-02 0.45115657E+03</pdfrwt>
<pdfrwt beam="2">  1       21 0.12670944E+00 0.45115657E+03</pdfrwt>
<totfact> 0.43649006E+04</totfact>
</mgrwt>
</event>
<event>
 7    0  0.4775379E-002  0.4444460E+03  0.7546771E-02  0.1029391E+00
         21   -1    0    0  502  501  0.00000000000E+00  0.00000000000E+00  0.15759432121E+03  0.15759432121E+03  0.00000000000E+00 0.  1.
         21   -1    0    0  501  502 -0.00000000000E+00 -0.00000000000E+00 -0.31335561305E+03  0.31335561305E+03  0.00000000000E+00 0.  1.
      99926    2    1    2    0    0  0.00000000000E+00  0.14210854715E-13 -0.15576129184E+03  0.47094993426E+03  0.44444601532E+03 0.  0.
      99925    2    3    3    0    0 -0.35878428417E+02 -0.96493305352E+02 -0.10133869939E+03  0.30004778017E+03  0.26298463602E+03 0.  0.
         25    1    4    4    0    0 -0.80343771100E+01 -0.73419403061E+01 -0.56011633766E+02  0.13748915055E+03  0.12509000000E+03 0.  0.
         25    1    3    3    0    0  0.35878428417E+02  0.96493305352E+02 -0.54422592452E+02  0.17090215409E+03  0.12509000000E+03 0.  0.
         25    1    4    4    0    0 -0.27844051307E+02 -0.89151365046E+02 -0.45327065626E+02  0.16255862961E+03  0.12509000000E+03 0.  0.
<mgrwt>
<rscale>  2 0.44444602E+03</rscale>
<asrwt>0</asrwt>
<pdfrwt beam="1">  1       21 0.23175636E-01 0.44444602E+03</pdfrwt>
<pdfrwt beam="2">  1       21 0.46081707E-01 0.44444602E+03</pdfrwt>
<totfact> 0.73316345E+04</totfact>
</mgrwt>
</event>
<event>
 7    0  0.4775379E-002  0.4446735E+03  0.7546771E-02  0.1029322E+00
         21   -1    0    0  502  501  0.00000000000E+00  0.00000000000E+00  0.16834997268E+04  0.16834997268E+04  0.00000000000E+00 0. -1.
         21   -1    0    0  501  502 -0.00000000000E+00 -0.00000000000E+00 -0.29363609210E+02  0.29363609210E+02  0.00000000000E+00 0. -1.
      99926    2    1    2    0    0  0.00000000000E+00 -0.17763568394E-14  0.16541361176E+04  0.17128633360E+04  0.44467348957E+03 0.  0.
      99925    2    3    3    0    0 -0.33406100609E+02  0.12842530992E+02  0.14235871602E+04  0.14481347429E+04  0.26308350901E+03 0.  0.
         25    1    4    4    0    0 -0.36035227630E-01  0.43522146890E+02  0.71696610758E+03  0.72909676044E+03  0.12509000000E+03 0.  0.
         25    1    3    3    0    0  0.33406100609E+02 -0.12842530992E+02  0.23054895735E+03  0.26472859308E+03  0.12509000000E+03 0.  0.
         25    1    4    4    0    0 -0.33370065381E+02 -0.30679615898E+02  0.70662105263E+03  0.71903798245E+03  0.12509000000E+03 0.  0.
<mgrwt>
<rscale>  2 0.44467349E+03</rscale>
<asrwt>0</asrwt>
<pdfrwt beam="1">  1       21 0.24757342E+00 0.44467349E+03</pdfrwt>
<pdfrwt beam="2">  1       21 0.43181790E-02 0.44467349E+03</pdfrwt>
<totfact> 0.20597950E+04</totfact>
</mgrwt>
</event>
<event>
 7    0  0.4775379E-002  0.4488314E+03  0.7546771E-02  0.1028071E+00
         21   -1    0    0  502  501  0.00000000000E+00  0.00000000000E+00  0.15007926109E+03  0.15007926109E+03  0.00000000000E+00 0. -1.
         21   -1    0    0  501  502 -0.00000000000E+00 -0.00000000000E+00 -0.33557204387E+03  0.33557204387E+03  0.00000000000E+00 0. -1.
      99926    2    1    2    0    0  0.00000000000E+00  0.00000000000E+00 -0.18549278278E+03  0.48565130496E+03  0.44883139100E+03 0.  0.
      99925    2    3    3    0    0  0.61136266029E+02 -0.70899654258E+01 -0.21239793907E+03  0.34366783350E+03  0.26307182408E+03 0.  0.
         25    1    4    4    0    0 -0.10586354362E+02  0.33998075992E-01 -0.91153997256E+02  0.15514068251E+03  0.12509000000E+03 0.  0.
         25    1    3    3    0    0 -0.61136266029E+02  0.70899654258E+01  0.26905156294E+02  0.14198347146E+03  0.12509000000E+03 0.  0.
         25    1    4    4    0    0  0.71722620391E+02 -0.71239635018E+01 -0.12124394182E+03  0.18852715099E+03  0.12509000000E+03 0.  0.
<mgrwt>
<rscale>  2 0.44883139E+03</rscale>
<asrwt>0</asrwt>
<pdfrwt beam="1">  1       21 0.22070480E-01 0.44883139E+03</pdfrwt>
<pdfrwt beam="2">  1       21 0.49348830E-01 0.44883139E+03</pdfrwt>
<totfact> 0.69639265E+04</totfact>
</mgrwt>
</event>
<event>
 7    0  0.4775379E-002  0.4568066E+03  0.7546771E-02  0.1025711E+00
         21   -1    0    0  502  501  0.00000000000E+00  0.00000000000E+00  0.77547590044E+03  0.77547590044E+03  0.00000000000E+00 0. -1.
         21   -1    0    0  501  502 -0.00000000000E+00 -0.00000000000E+00 -0.67272314494E+02  0.67272314494E+02  0.00000000000E+00 0. -1.
      99926    2    1    2    0    0  0.00000000000E+00  0.00000000000E+00  0.70820358595E+03  0.84274821494E+03  0.45680656150E+03 0.  0.
      99925    2    3    3    0    0 -0.70048619310E+02  0.44418978897E+02  0.29847050097E+03  0.40638991746E+03  0.26303663302E+03 0.  0.
         25    1    3    3    0    0  0.70048619310E+02 -0.44418978897E+02  0.40973308498E+03  0.43635829748E+03  0.12509000000E+03 0.  0.
         25    1    4    4    0    0 -0.20030763456E+02 -0.13352604063E+02  0.11557135848E+03  0.17199933291E+03  0.12509000000E+03 0.  0.
         25    1    4    4    0    0 -0.50017855854E+02  0.57771582960E+02  0.18289914249E+03  0.23439058455E+03  0.12509000000E+03 0.  0.
<mgrwt>
<rscale>  2 0.45680656E+03</rscale>
<asrwt>0</asrwt>
<pdfrwt beam="1">  1       21 0.11404057E+00 0.45680656E+03</pdfrwt>
<pdfrwt beam="2">  1       21 0.98929879E-02 0.45680656E+03</pdfrwt>
<totfact> 0.45122617E+04</totfact>
</mgrwt>
</event>
<event>
 7    0  0.4775379E-002  0.4539380E+03  0.7546771E-02  0.1026554E+00
         21   -1    0    0  502  501  0.00000000000E+00  0.00000000000E+00  0.23127927980E+04  0.23127927980E+04  0.00000000000E+00 0.  1.
         21   -1    0    0  501  502 -0.00000000000E+00 -0.00000000000E+00 -0.22273903230E+02  0.22273903230E+02  0.00000000000E+00 0.  1.
      99926    2    1    2    0    0  0.00000000000E+00  0.71054273576E-14  0.22905188947E+04  0.23350667012E+04  0.45393798243E+03 0.  0.
      99925    2    3    3    0    0  0.97690759490E+02  0.54808999124E+02  0.14772658881E+04  0.15046598902E+04  0.26294366338E+03 0.  0.
         25    1    4    4    0    0  0.13165122012E+02  0.30872275253E+01  0.69129189302E+03  0.70264844756E+03  0.12509000000E+03 0.  0.
         25    1    3    3    0    0 -0.97690759490E+02 -0.54808999124E+02  0.81325300667E+03  0.83040681104E+03  0.12509000000E+03 0.  0.
         25    1    4    4    0    0  0.84525637478E+02  0.51721771598E+02  0.78597399506E+03  0.80201144260E+03  0.12509000000E+03 0.  0.
<mgrwt>
<rscale>  2 0.45393798E+03</rscale>
<asrwt>0</asrwt>
<pdfrwt beam="1">  1       21 0.34011642E+00 0.45393798E+03</pdfrwt>
<pdfrwt beam="2">  1       21 0.32755756E-02 0.45393798E+03</pdfrwt>
<totfact> 0.90445952E+03</totfact>
</mgrwt>
</event>
<event>
 7    0  0.4775379E-002  0.4518136E+03  0.7546771E-02  0.1027183E+00
         21   -1    0    0  502  501  0.00000000000E+00  0.00000000000E+00  0.46872824535E+02  0.46872824535E+02  0.00000000000E+00 0.  1.
         21   -1    0    0  501  502 -0.00000000000E+00 -0.00000000000E+00 -0.10887735634E+04  0.10887735634E+04  0.00000000000E+00 0.  1.
      99926    2    1    2    0    0  0.00000000000E+00  0.00000000000E+00 -0.10419007388E+04  0.11356463879E+04  0.45181364386E+03 0.  0.
      99925    2    3    3    0    0 -0.10018720308E+03 -0.44074410940E+02 -0.69019184537E+03  0.74663908309E+03  0.26291654116E+03 0.  0.
         25    1    4    4    0    0 -0.50151827756E+02  0.65400175273E+01 -0.25860157388E+03  0.29168520664E+03  0.12509000000E+03 0.  0.
         25    1    4    4    0    0 -0.50035375323E+02 -0.50614428468E+02 -0.43159027149E+03  0.45495387645E+03  0.12509000000E+03 0.  0.
         25    1    3    3    0    0  0.10018720308E+03  0.44074410940E+02 -0.35170889347E+03  0.38900730482E+03  0.12509000000E+03 0.  0.
<mgrwt>
<rscale>  2 0.45181364E+03</rscale>
<asrwt>0</asrwt>
<pdfrwt beam="1">  1       21 0.68930624E-02 0.45181364E+03</pdfrwt>
<pdfrwt beam="2">  1       21 0.16011376E+00 0.45181364E+03</pdfrwt>
<totfact> 0.35129677E+04</totfact>
</mgrwt>
</event>
<event>
 7    0  0.4775379E-002  0.4525387E+03  0.7546771E-02  0.1026968E+00
         21   -1    0    0  502  501  0.00000000000E+00  0.00000000000E+00  0.10273900210E+04  0.10273900210E+04  0.00000000000E+00 0.  1.
         21   -1    0    0  501  502 -0.00000000000E+00 -0.00000000000E+00 -0.49832895217E+02  0.49832895217E+02  0.00000000000E+00 0.  1.
      99926    2    1    2    0    0  0.00000000000E+00  0.00000000000E+00  0.97755712575E+03  0.10772229162E+04  0.45253870226E+03 0.  0.
      99925    2    3    3    0    0  0.17126823934E+02 -0.85673517363E+02  0.77894613992E+03  0.82676910514E+03  0.26297677585E+03 0.  0.
         25    1    4    4    0    0  0.39083986935E+02 -0.63193698661E+02  0.35564701715E+03  0.38425682882E+03  0.12509000000E+03 0.  0.
         25    1    3    3    0    0 -0.17126823934E+02  0.85673517363E+02  0.19861098583E+03  0.25045381105E+03  0.12509000000E+03 0.  0.
         25    1    4    4    0    0 -0.21957163000E+02 -0.22479818702E+02  0.42329912277E+03  0.44251227632E+03  0.12509000000E+03 0.  0.
<mgrwt>
<rscale>  2 0.45253870E+03</rscale>
<asrwt>0</asrwt>
<pdfrwt beam="1">  1       21 0.15108675E+00 0.45253870E+03</pdfrwt>
<pdfrwt beam="2">  1       21 0.73283676E-02 0.45253870E+03</pdfrwt>
<totfact> 0.36999587E+04</totfact>
</mgrwt>
</event>
<event>
 7    0  0.4775379E-002  0.4584595E+03  0.7546771E-02  0.1025229E+00
         21   -1    0    0  502  501  0.00000000000E+00  0.00000000000E+00  0.27328110651E+02  0.27328110651E+02  0.00000000000E+00 0. -1.
         21   -1    0    0  501  502 -0.00000000000E+00 -0.00000000000E+00 -0.19227921154E+04  0.19227921154E+04  0.00000000000E+00 0. -1.
      99926    2    1    2    0    0 -0.35527136788E-14  0.71054273576E-14 -0.18954640047E+04  0.19501202260E+04  0.45845948867E+03 0.  0.
      99925    2    3    3    0    0  0.22785289717E+02 -0.50657192205E+02 -0.16240756247E+04  0.16461720701E+04  0.26301241274E+03 0.  0.
         25    1    4    4    0    0 -0.27944371472E+02 -0.15242629546E+02 -0.75000496275E+03  0.76103099668E+03  0.12509000000E+03 0.  0.
         25    1    4    4    0    0  0.50729661189E+02 -0.35414562659E+02 -0.87407066190E+03  0.88514107343E+03  0.12509000000E+03 0.  0.
         25    1    3    3    0    0 -0.22785289717E+02  0.50657192205E+02 -0.27138838006E+03  0.30394815591E+03  0.12509000000E+03 0.  0.
<mgrwt>
<rscale>  2 0.45845949E+03</rscale>
<asrwt>0</asrwt>
<pdfrwt beam="1">  1       21 0.40188390E-02 0.45845949E+03</pdfrwt>
<pdfrwt beam="2">  1       21 0.28276360E+00 0.45845949E+03</pdfrwt>
<totfact> 0.14157564E+04</totfact>
</mgrwt>
</event>
<event>
 7    0  0.4775379E-002  0.4517623E+03  0.7546771E-02  0.1027198E+00
         21   -1    0    0  502  501  0.00000000000E+00  0.00000000000E+00  0.10453825576E+03  0.10453825576E+03  0.00000000000E+00 0. -1.
         21   -1    0    0  501  502 -0.00000000000E+00 -0.00000000000E+00 -0.48807299003E+03  0.48807299003E+03  0.00000000000E+00 0. -1.
      99926    2    1    2    0    0  0.00000000000E+00  0.00000000000E+00 -0.38353473427E+03  0.59261124579E+03  0.45176232273E+03 0.  0.
      99925    2    3    3    0    0  0.13912837010E+02  0.10894975738E+03 -0.25317916216E+03  0.38117875077E+03  0.26293332847E+03 0.  0.
         25    1    4    4    0    0 -0.33499014152E+02  0.51669071552E+02 -0.12504113219E+03  0.18728232630E+03  0.12509000000E+03 0.  0.
         25    1    3    3    0    0 -0.13912837010E+02 -0.10894975738E+03 -0.13035557211E+03  0.21143249501E+03  0.12509000000E+03 0.  0.
         25    1    4    4    0    0  0.47411851162E+02  0.57280685827E+02 -0.12813802997E+03  0.19389642448E+03  0.12509000000E+03 0.  0.
<mgrwt>
<rscale>  2 0.45176232E+03</rscale>
<asrwt>0</asrwt>
<pdfrwt beam="1">  1       21 0.15373273E-01 0.45176232E+03</pdfrwt>
<pdfrwt beam="2">  1       21 0.71775439E-01 0.45176232E+03</pdfrwt>
<totfact> 0.60672972E+04</totfact>
</mgrwt>
</event>
<event>
 7    0  0.4775379E-002  0.4532343E+03  0.7546771E-02  0.1026762E+00
         21   -1    0    0  502  501  0.00000000000E+00  0.00000000000E+00  0.58552156107E+03  0.58552156107E+03  0.00000000000E+00 0.  1.
         21   -1    0    0  501  502 -0.00000000000E+00 -0.00000000000E+00 -0.87708692753E+02  0.87708692753E+02  0.00000000000E+00 0.  1.
      99926    2    1    2    0    0  0.00000000000E+00  0.00000000000E+00  0.49781286832E+03  0.67323025382E+03  0.45323429129E+03 0.  0.
      99925    2    3    3    0    0 -0.58999820027E+02  0.87990095850E+02  0.26207952722E+03  0.38610492939E+03  0.26299829310E+03 0.  0.
         25    1    4    4    0    0 -0.71749655167E+01  0.74690936299E+02  0.15609929656E+03  0.21364623699E+03  0.12509000000E+03 0.  0.
         25    1    3    3    0    0  0.58999820027E+02 -0.87990095850E+02  0.23573334109E+03  0.28712532444E+03  0.12509000000E+03 0.  0.
         25    1    4    4    0    0 -0.51824854511E+02  0.13299159551E+02  0.10598023067E+03  0.17245869239E+03  0.12509000000E+03 0.  0.
<mgrwt>
<rscale>  2 0.45323429E+03</rscale>
<asrwt>0</asrwt>
<pdfrwt beam="1">  1       21 0.86106111E-01 0.45323429E+03</pdfrwt>
<pdfrwt beam="2">  1       21 0.12898337E-01 0.45323429E+03</pdfrwt>
<totfact> 0.55144279E+04</totfact>
</mgrwt>
</event>
<event>
 7    0  0.4775379E-002  0.4351699E+03  0.7546771E-02  0.1032239E+00
         21   -1    0    0  502  501  0.00000000000E+00  0.00000000000E+00  0.10185316139E+04  0.10185316139E+04  0.00000000000E+00 0.  1.
         21   -1    0    0  501  502 -0.00000000000E+00 -0.00000000000E+00 -0.46481837834E+02  0.46481837834E+02  0.00000000000E+00 0.  1.
      99926    2    1    2    0    0  0.71054273576E-14  0.00000000000E+00  0.97204977603E+03  0.10650134517E+04  0.43516994981E+03 0.  0.
      99925    2    3    3    0    0 -0.49057922344E+02  0.50790316821E+02  0.77293902303E+03  0.81949576173E+03  0.26296812381E+03 0.  0.
         25    1    4    4    0    0  0.63673023761E+01  0.64649545035E+01  0.29967263300E+03  0.32485925144E+03  0.12509000000E+03 0.  0.
         25    1    4    4    0    0 -0.55425224720E+02  0.44325362317E+02  0.47326639003E+03  0.49463651029E+03  0.12509000000E+03 0.  0.
         25    1    3    3    0    0  0.49057922344E+02 -0.50790316821E+02  0.19911075300E+03  0.24551768997E+03  0.12509000000E+03 0.  0.
<mgrwt>
<rscale>  2 0.43516995E+03</rscale>
<asrwt>0</asrwt>
<pdfrwt beam="1">  1       21 0.14978405E+00 0.43516995E+03</pdfrwt>
<pdfrwt beam="2">  1       21 0.68355651E-02 0.43516995E+03</pdfrwt>
<totfact> 0.43011813E+04</totfact>
</mgrwt>
</event>
<event>
 7    0  0.4775379E-002  0.4155183E+03  0.7546771E-02  0.1038535E+00
         21   -1    0    0  502  501  0.00000000000E+00  0.00000000000E+00  0.82112880224E+03  0.82112880224E+03  0.00000000000E+00 0.  1.
         21   -1    0    0  501  502 -0.00000000000E+00 -0.00000000000E+00 -0.52566486800E+02  0.52566486800E+02  0.00000000000E+00 0.  1.
      99926    2    1    2    0    0  0.35527136788E-14 -0.71054273576E-14  0.76856231544E+03  0.87369528904E+03  0.41551826118E+03 0.  0.
      99925    2    3    3    0    0 -0.19223425274E+02 -0.63681581730E+02  0.45768019668E+03  0.53205207778E+03  0.26302731248E+03 0.  0.
         25    1    4    4    0    0 -0.34552506665E+02 -0.35591942522E+02  0.29591406915E+03  0.32507430921E+03  0.12509000000E+03 0.  0.
         25    1    4    4    0    0  0.15329081391E+02 -0.28089639207E+02  0.16176612752E+03  0.20697776857E+03  0.12509000000E+03 0.  0.
         25    1    3    3    0    0  0.19223425274E+02  0.63681581730E+02  0.31088211877E+03  0.34164321126E+03  0.12509000000E+03 0.  0.
<mgrwt>
<rscale>  2 0.41551826E+03</rscale>
<asrwt>0</asrwt>
<pdfrwt beam="1">  1       21 0.12075423E+00 0.41551826E+03</pdfrwt>
<pdfrwt beam="2">  1       21 0.77303662E-02 0.41551826E+03</pdfrwt>
<totfact> 0.61238609E+04</totfact>
</mgrwt>
</event>
<event>
 7    0  0.4775379E-002  0.4335981E+03  0.7546771E-02  0.1032729E+00
         21   -1    0    0  502  501  0.00000000000E+00  0.00000000000E+00  0.86470080433E+02  0.86470080433E+02  0.00000000000E+00 0.  1.
         21   -1    0    0  501  502 -0.00000000000E+00 -0.00000000000E+00 -0.54356166736E+03  0.54356166736E+03  0.00000000000E+00 0.  1.
      99926    2    1    2    0    0  0.00000000000E+00 -0.11102230246E-14 -0.45709158692E+03  0.63003174779E+03  0.43359806778E+03 0.  0.
      99925    2    3    3    0    0 -0.84698877156E+02  0.45071673311E+00 -0.24279775140E+03  0.36784200928E+03  0.26302641078E+03 0.  0.
         25    1    3    3    0    0  0.84698877156E+02 -0.45071673311E+00 -0.21429383552E+03  0.26218973851E+03  0.12509000000E+03 0.  0.
         25    1    4    4    0    0 -0.81070419515E+02 -0.92392730593E+01 -0.11299655004E+03  0.18727921803E+03  0.12509000000E+03 0.  0.
         25    1    4    4    0    0 -0.36284576404E+01  0.96899897924E+01 -0.12980120137E+03  0.18056279125E+03  0.12509000000E+03 0.  0.
<mgrwt>
<rscale>  2 0.43359807E+03</rscale>
<asrwt>0</asrwt>
<pdfrwt beam="1">  1       21 0.12716188E-01 0.43359807E+03</pdfrwt>
<pdfrwt beam="2">  1       21 0.79935541E-01 0.43359807E+03</pdfrwt>
<totfact> 0.67577858E+04</totfact>
</mgrwt>
</event>
<event>
 7    0  0.4775379E-002  0.4454767E+03  0.7546771E-02  0.1029080E+00
         21   -1    0    0  502  501  0.00000000000E+00  0.00000000000E+00  0.12808967142E+03  0.12808967142E+03  0.00000000000E+00 0. -1.
         21   -1    0    0  501  502 -0.00000000000E+00 -0.00000000000E+00 -0.38732530903E+03  0.38732530903E+03  0.00000000000E+00 0. -1.
      99926    2    1    2    0    0  0.88817841970E-15  0.00000000000E+00 -0.25923563761E+03  0.51541498045E+03  0.44547669554E+03 0.  0.
      99925    2    3    3    0    0  0.36276197813E+01  0.55250525268E+02 -0.26646160289E+03  0.37842774440E+03  0.26294484545E+03 0.  0.
         25    1    3    3    0    0 -0.36276197813E+01 -0.55250525268E+02  0.72259652842E+01  0.13698723605E+03  0.12509000000E+03 0.  0.
         25    1    4    4    0    0  0.34182771965E+02  0.20379711505E+02 -0.16486287112E+03  0.21073933879E+03  0.12509000000E+03 0.  0.
         25    1    4    4    0    0 -0.30555152184E+02  0.34870813763E+02 -0.10159873177E+03  0.16768840561E+03  0.12509000000E+03 0.  0.
<mgrwt>
<rscale>  2 0.44547670E+03</rscale>
<asrwt>0</asrwt>
<pdfrwt beam="1">  1       21 0.18836717E-01 0.44547670E+03</pdfrwt>
<pdfrwt beam="2">  1       21 0.56959603E-01 0.44547670E+03</pdfrwt>
<totfact> 0.69289586E+04</totfact>
</mgrwt>
</event>
<event>
 7    0  0.4775379E-002  0.4566715E+03  0.7546771E-02  0.1025751E+00
         21   -1    0    0  502  501  0.00000000000E+00  0.00000000000E+00  0.38397401376E+03  0.38397401376E+03  0.00000000000E+00 0. -1.
         21   -1    0    0  501  502 -0.00000000000E+00 -0.00000000000E+00 -0.13578315620E+03  0.13578315620E+03  0.00000000000E+00 0. -1.
      99926    2    1    2    0    0  0.00000000000E+00  0.00000000000E+00  0.24819085757E+03  0.51975716996E+03  0.45667145076E+03 0.  0.
      99925    2    3    3    0    0  0.56173460467E+02  0.99978286323E+02  0.15878024737E+03  0.32794246585E+03  0.26302847480E+03 0.  0.
         25    1    4    4    0    0  0.44712574302E+02  0.27426984968E+02  0.42855920506E+02  0.14225186054E+03  0.12509000000E+03 0.  0.
         25    1    3    3    0    0 -0.56173460467E+02 -0.99978286323E+02  0.89410610193E+02  0.19181470411E+03  0.12509000000E+03 0.  0.
         25    1    4    4    0    0  0.11460886165E+02  0.72551301355E+02  0.11592432687E+03  0.18569060531E+03  0.12509000000E+03 0.  0.
<mgrwt>
<rscale>  2 0.45667145E+03</rscale>
<asrwt>0</asrwt>
<pdfrwt beam="1">  1       21 0.56466767E-01 0.45667145E+03</pdfrwt>
<pdfrwt beam="2">  1       21 0.19968111E-01 0.45667145E+03</pdfrwt>
<totfact> 0.63063346E+04</totfact>
</mgrwt>
</event>
<event>
 7    0  0.4775379E-002  0.4549559E+03  0.7546771E-02  0.1026254E+00
         21   -1    0    0  502  501  0.00000000000E+00  0.00000000000E+00  0.51397058121E+02  0.51397058121E+02  0.00000000000E+00 0. -1.
         21   -1    0    0  501  502 -0.00000000000E+00 -0.00000000000E+00 -0.10067935850E+04  0.10067935850E+04  0.00000000000E+00 0. -1.
      99926    2    1    2    0    0 -0.14210854715E-13  0.00000000000E+00 -0.95539652691E+03  0.10581906431E+04  0.45495594690E+03 0.  0.
      99925    2    3    3    0    0  0.75650909751E+02  0.82840751839E+02 -0.56828838325E+03  0.63618842361E+03  0.26305583720E+03 0.  0.
         25    1    4    4    0    0  0.19534567759E+02  0.73829629088E+02 -0.33092897736E+03  0.36193080778E+03  0.12509000000E+03 0.  0.
         25    1    3    3    0    0 -0.75650909751E+02 -0.82840751839E+02 -0.38710814366E+03  0.42200221954E+03  0.12509000000E+03 0.  0.
         25    1    4    4    0    0  0.56116341993E+02  0.90111227511E+01 -0.23735940589E+03  0.27425761582E+03  0.12509000000E+03 0.  0.
<mgrwt>
<rscale>  2 0.45495595E+03</rscale>
<asrwt>0</asrwt>
<pdfrwt beam="1">  1       21 0.75583909E-02 0.45495595E+03</pdfrwt>
<pdfrwt beam="2">  1       21 0.14805788E+00 0.45495595E+03</pdfrwt>
<totfact> 0.36990993E+04</totfact>
</mgrwt>
</event>
<event>
 7    0  0.4775379E-002  0.4511536E+03  0.7546771E-02  0.1027379E+00
         21   -1    0    0  502  501  0.00000000000E+00  0.00000000000E+00  0.76289776422E+03  0.76289776422E+03  0.00000000000E+00 0.  1.
         21   -1    0    0  501  502 -0.00000000000E+00 -0.00000000000E+00 -0.66699482928E+02  0.66699482928E+02  0.00000000000E+00 0.  1.
      99926    2    1    2    0    0  0.00000000000E+00  0.00000000000E+00  0.69619828129E+03  0.82959724714E+03  0.45115357208E+03 0.  0.
      99925    2    3    3    0    0 -0.47757176296E+02  0.67242108053E+02  0.30689504924E+03  0.41245606773E+03  0.26293190672E+03 0.  0.
         25    1    4    4    0    0 -0.26899352113E+02  0.22308262561E+02  0.20899713164E+03  0.24606613513E+03  0.12509000000E+03 0.  0.
         25    1    4    4    0    0 -0.20857824183E+02  0.44933845492E+02  0.97897917604E+02  0.16638993260E+03  0.12509000000E+03 0.  0.
         25    1    3    3    0    0  0.47757176296E+02 -0.67242108053E+02  0.38930323204E+03  0.41714117941E+03  0.12509000000E+03 0.  0.
<mgrwt>
<rscale>  2 0.45115357E+03</rscale>
<asrwt>0</asrwt>
<pdfrwt beam="1">  1       21 0.11219084E+00 0.45115357E+03</pdfrwt>
<pdfrwt beam="2">  1       21 0.98087479E-02 0.45115357E+03</pdfrwt>
<totfact> 0.47792411E+04</totfact>
</mgrwt>
</event>
<event>
 7    0  0.4775379E-002  0.4554010E+03  0.7546771E-02  0.1026124E+00
         21   -1    0    0  502  501  0.00000000000E+00  0.00000000000E+00  0.26584235039E+03  0.26584235039E+03  0.00000000000E+00 0.  1.
         21   -1    0    0  501  502 -0.00000000000E+00 -0.00000000000E+00 -0.19503102773E+03  0.19503102773E+03  0.00000000000E+00 0.  1.
      99926    2    1    2    0    0  0.00000000000E+00  0.00000000000E+00  0.70811322668E+02  0.46087337812E+03  0.45540095217E+03 0.  0.
      99925    2    3    3    0    0 -0.10508069436E+03  0.29300535470E+02  0.76208830119E+02  0.29480979122E+03  0.26306758354E+03 0.  0.
         25    1    4    4    0    0 -0.31743654723E+02  0.44859546043E+02  0.18095598368E+02  0.13782233951E+03  0.12509000000E+03 0.  0.
         25    1    4    4    0    0 -0.73337039637E+02 -0.15559010572E+02  0.58113231751E+02  0.15698745172E+03  0.12509000000E+03 0.  0.
         25    1    3    3    0    0  0.10508069436E+03 -0.29300535470E+02 -0.53975074507E+01  0.16606358690E+03  0.12509000000E+03 0.  0.
<mgrwt>
<rscale>  2 0.45540095E+03</rscale>
<asrwt>0</asrwt>
<pdfrwt beam="1">  1       21 0.39094463E-01 0.45540095E+03</pdfrwt>
<pdfrwt beam="2">  1       21 0.28681034E-01 0.45540095E+03</pdfrwt>
<totfact> 0.67899585E+04</totfact>
</mgrwt>
</event>
<event>
 7    0  0.4775379E-002  0.4565762E+03  0.7546771E-02  0.1025779E+00
         21   -1    0    0  502  501  0.00000000000E+00  0.00000000000E+00  0.13895592388E+03  0.13895592388E+03  0.00000000000E+00 0. -1.
         21   -1    0    0  501  502 -0.00000000000E+00 -0.00000000000E+00 -0.37505027345E+03  0.37505027345E+03  0.00000000000E+00 0. -1.
      99926    2    1    2    0    0  0.00000000000E+00  0.00000000000E+00 -0.23609434957E+03  0.51400619733E+03  0.45657620283E+03 0.  0.
      99925    2    3    3    0    0 -0.91721433924E+02  0.44974411049E+02 -0.20671274478E+03  0.34985289736E+03  0.26311855093E+03 0.  0.
         25    1    4    4    0    0 -0.67173890626E+02  0.51404196693E+02 -0.84006453699E+02  0.17279848200E+03  0.12509000000E+03 0.  0.
         25    1    3    3    0    0  0.91721433924E+02 -0.44974411049E+02 -0.29381604784E+02  0.16415329997E+03  0.12509000000E+03 0.  0.
         25    1    4    4    0    0 -0.24547543298E+02 -0.64297856445E+01 -0.12270629108E+03  0.17705441536E+03  0.12509000000E+03 0.  0.
<mgrwt>
<rscale>  2 0.45657620E+03</rscale>
<asrwt>0</asrwt>
<pdfrwt beam="1">  1       21 0.20434695E-01 0.45657620E+03</pdfrwt>
<pdfrwt beam="2">  1       21 0.55154451E-01 0.45657620E+03</pdfrwt>
<totfact> 0.63499487E+04</totfact>
</mgrwt>
</event>
<event>
 7    0  0.4775379E-002  0.4624178E+03  0.7546771E-02  0.1024082E+00
         21   -1    0    0  502  501  0.00000000000E+00  0.00000000000E+00  0.26155118906E+03  0.26155118906E+03  0.00000000000E+00 0.  1.
         21   -1    0    0  501  502 -0.00000000000E+00 -0.00000000000E+00 -0.20438662845E+03  0.20438662845E+03  0.00000000000E+00 0.  1.
      99926    2    1    2    0    0  0.14210854715E-13  0.17763568394E-14  0.57164560607E+02  0.46593781751E+03  0.46241784438E+03 0.  0.
      99925    2    3    3    0    0 -0.11169728784E+03  0.12677499519E+02 -0.64380212312E+01  0.28613292431E+03  0.26304676229E+03 0.  0.
         25    1    3    3    0    0  0.11169728784E+03 -0.12677499519E+02  0.63602581838E+02  0.17980489321E+03  0.12509000000E+03 0.  0.
         25    1    4    4    0    0 -0.75539384619E+02 -0.10350835566E+02 -0.35522490108E+02  0.15074048504E+03  0.12509000000E+03 0.  0.
         25    1    4    4    0    0 -0.36157903219E+02  0.23028335086E+02  0.29084468877E+02  0.13539243927E+03  0.12509000000E+03 0.  0.
<mgrwt>
<rscale>  2 0.46241784E+03</rscale>
<asrwt>0</asrwt>
<pdfrwt beam="1">  1       21 0.38463410E-01 0.46241784E+03</pdfrwt>
<pdfrwt beam="2">  1       21 0.30056857E-01 0.46241784E+03</pdfrwt>
<totfact> 0.63886177E+04</totfact>
</mgrwt>
</event>
<event>
 7    0  0.4775379E-002  0.4615523E+03  0.7546771E-02  0.1024332E+00
         21   -1    0    0  502  501  0.00000000000E+00  0.00000000000E+00  0.36384332742E+03  0.36384332742E+03  0.00000000000E+00 0. -1.
         21   -1    0    0  501  502 -0.00000000000E+00 -0.00000000000E+00 -0.14637514894E+03  0.14637514894E+03  0.00000000000E+00 0. -1.
      99926    2    1    2    0    0  0.00000000000E+00  0.00000000000E+00  0.21746817848E+03  0.51021847636E+03  0.46155225595E+03 0.  0.
      99925    2    3    3    0    0 -0.95803920634E+02 -0.70952645214E+02  0.13249635135E+03  0.31765578896E+03  0.26293962818E+03 0.  0.
         25    1    4    4    0    0 -0.45616000800E+02  0.15051474752E+01  0.40825955676E+02  0.13927437580E+03  0.12509000000E+03 0.  0.
         25    1    3    3    0    0  0.95803920634E+02  0.70952645214E+02  0.84971827126E+02  0.19256268740E+03  0.12509000000E+03 0.  0.
         25    1    4    4    0    0 -0.50187919834E+02 -0.72457792689E+02  0.91670395675E+02  0.17838141316E+03  0.12509000000E+03 0.  0.
<mgrwt>
<rscale>  2 0.46155226E+03</rscale>
<asrwt>0</asrwt>
<pdfrwt beam="1">  1       21 0.53506372E-01 0.46155226E+03</pdfrwt>
<pdfrwt beam="2">  1       21 0.21525757E-01 0.46155226E+03</pdfrwt>
<totfact> 0.61307679E+04</totfact>
</mgrwt>
</event>
<event>
 7    0  0.4775379E-002  0.4407414E+03  0.7546771E-02  0.1030520E+00
         21   -1    0    0  502  501  0.00000000000E+00  0.00000000000E+00  0.14716856542E+03  0.14716856542E+03  0.00000000000E+00 0.  1.
         21   -1    0    0  501  502 -0.00000000000E+00 -0.00000000000E+00 -0.32998385294E+03  0.32998385294E+03  0.00000000000E+00 0.  1.
      99926    2    1    2    0    0  0.71054273576E-14 -0.17763568394E-14 -0.18281528752E+03  0.47715241836E+03  0.44074142192E+03 0.  0.
      99925    2    3    3    0    0  0.34215120679E+02 -0.12947439449E+02 -0.21642861744E+03  0.34255793586E+03  0.26299483322E+03 0.  0.
         25    1    3    3    0    0 -0.34215120679E+02  0.12947439449E+02  0.33613329924E+02  0.13459448250E+03  0.12509000000E+03 0.  0.
         25    1    4    4    0    0 -0.22425687094E+02  0.27808884120E+01 -0.11030898710E+03  0.16830396762E+03  0.12509000000E+03 0.  0.
         25    1    4    4    0    0  0.56640807772E+02 -0.15728327862E+02 -0.10611963034E+03  0.17425396824E+03  0.12509000000E+03 0.  0.
<mgrwt>
<rscale>  2 0.44074142E+03</rscale>
<asrwt>0</asrwt>
<pdfrwt beam="1">  1       21 0.21642436E-01 0.44074142E+03</pdfrwt>
<pdfrwt beam="2">  1       21 0.48527037E-01 0.44074142E+03</pdfrwt>
<totfact> 0.75049724E+04</totfact>
</mgrwt>
</event>
<event>
 7    0  0.4775379E-002  0.4349362E+03  0.7546771E-02  0.1032312E+00
         21   -1    0    0  502  501  0.00000000000E+00  0.00000000000E+00  0.98244720888E+02  0.98244720888E+02  0.00000000000E+00 0.  1.
         21   -1    0    0  501  502 -0.00000000000E+00 -0.00000000000E+00 -0.48137323300E+03  0.48137323300E+03  0.00000000000E+00 0.  1.
      99926    2    1    2    0    0  0.35527136788E-14  0.00000000000E+00 -0.38312851211E+03  0.57961795389E+03  0.43493622024E+03 0.  0.
      99925    2    3    3    0    0  0.14492661228E+02 -0.50442086875E+02 -0.34831293078E+03  0.43956769805E+03  0.26295136824E+03 0.  0.
         25    1    4    4    0    0  0.41738858141E+02 -0.16282316158E+02 -0.14291410979E+03  0.19513891712E+03  0.12509000000E+03 0.  0.
         25    1    4    4    0    0 -0.27246196913E+02 -0.34159770717E+02 -0.20539882099E+03  0.24442878092E+03  0.12509000000E+03 0.  0.
         25    1    3    3    0    0 -0.14492661228E+02  0.50442086875E+02 -0.34815581335E+02  0.14005025584E+03  0.12509000000E+03 0.  0.
<mgrwt>
<rscale>  2 0.43493622E+03</rscale>
<asrwt>0</asrwt>
<pdfrwt beam="1">  1       21 0.14447753E-01 0.43493622E+03</pdfrwt>
<pdfrwt beam="2">  1       21 0.70790182E-01 0.43493622E+03</pdfrwt>
<totfact> 0.70482161E+04</totfact>
</mgrwt>
</event>
<event>
 7    0  0.4775379E-002  0.4592396E+03  0.7546771E-02  0.1025002E+00
         21   -1    0    0  502  501  0.00000000000E+00  0.00000000000E+00  0.48212622092E+02  0.48212622092E+02  0.00000000000E+00 0.  1.
         21   -1    0    0  501  502 -0.00000000000E+00 -0.00000000000E+00 -0.10935985725E+04  0.10935985725E+04  0.00000000000E+00 0.  1.
      99926    2    1    2    0    0  0.14210854715E-13  0.00000000000E+00 -0.10453859504E+04  0.11418111946E+04  0.45923960934E+03 0.  0.
      99925    2    3    3    0    0  0.78626850698E+02 -0.66844076818E+02 -0.79232904319E+03  0.84125235069E+03  0.26319174115E+03 0.  0.
         25    1    4    4    0    0  0.82675016186E+01 -0.50385045386E+02 -0.32080278418E+03  0.34809329040E+03  0.12509000000E+03 0.  0.
         25    1    3    3    0    0 -0.78626850698E+02  0.66844076818E+02 -0.25305690724E+03  0.30055884392E+03  0.12509000000E+03 0.  0.
         25    1    4    4    0    0  0.70359349080E+02 -0.16459031432E+02 -0.47152625901E+03  0.49315906029E+03  0.12509000000E+03 0.  0.
<mgrwt>
<rscale>  2 0.45923961E+03</rscale>
<asrwt>0</asrwt>
<pdfrwt beam="1">  1       21 0.70900925E-02 0.45923961E+03</pdfrwt>
<pdfrwt beam="2">  1       21 0.16082330E+00 0.45923961E+03</pdfrwt>
<totfact> 0.32954438E+04</totfact>
</mgrwt>
</event>
<event>
 7    0  0.4775379E-002  0.4576409E+03  0.7546771E-02  0.1025468E+00
         21   -1    0    0  502  501  0.00000000000E+00  0.00000000000E+00  0.74444623313E+02  0.74444623313E+02  0.00000000000E+00 0. -1.
         21   -1    0    0  501  502 -0.00000000000E+00 -0.00000000000E+00 -0.70332547765E+03  0.70332547765E+03  0.00000000000E+00 0. -1.
      99926    2    1    2    0    0  0.00000000000E+00  0.00000000000E+00 -0.62888085434E+03  0.77777010097E+03  0.45764090836E+03 0.  0.
      99925    2    3    3    0    0  0.52438461794E+02  0.45712030768E+02 -0.23784800532E+03  0.36136455448E+03  0.26300814734E+03 0.  0.
         25    1    3    3    0    0 -0.52438461794E+02 -0.45712030768E+02 -0.39103284902E+03  0.41640554648E+03  0.12509000000E+03 0.  0.
         25    1    4    4    0    0  0.24736016472E+01  0.54117468618E+02 -0.10589503507E+03  0.17261542708E+03  0.12509000000E+03 0.  0.
         25    1    4    4    0    0  0.49964860147E+02 -0.84054378507E+01 -0.13195297025E+03  0.18874912740E+03  0.12509000000E+03 0.  0.
<mgrwt>
<rscale>  2 0.45764091E+03</rscale>
<asrwt>0</asrwt>
<pdfrwt beam="1">  1       21 0.10947739E-01 0.45764091E+03</pdfrwt>
<pdfrwt beam="2">  1       21 0.10343022E+00 0.45764091E+03</pdfrwt>
<totfact> 0.47859042E+04</totfact>
</mgrwt>
</event>
<event>
 7    0  0.4775379E-002  0.4435135E+03  0.7546771E-02  0.1029674E+00
         21   -1    0    0  502  501  0.00000000000E+00  0.00000000000E+00  0.92380572734E+03  0.92380572734E+03  0.00000000000E+00 0.  1.
         21   -1    0    0  501  502 -0.00000000000E+00 -0.00000000000E+00 -0.53232035540E+02  0.53232035540E+02  0.00000000000E+00 0.  1.
      99926    2    1    2    0    0  0.00000000000E+00  0.00000000000E+00  0.87057369180E+03  0.97703776288E+03  0.44351351416E+03 0.  0.
      99925    2    3    3    0    0 -0.45300381064E+02 -0.61629064301E+02  0.70191119872E+03  0.75355440609E+03  0.26327674784E+03 0.  0.
         25    1    3    3    0    0  0.45300381064E+02  0.61629064301E+02  0.16866249308E+03  0.22348335679E+03  0.12509000000E+03 0.  0.
         25    1    4    4    0    0 -0.49649299106E+02 -0.15121652342E+02  0.28027250770E+03  0.31127785650E+03  0.12509000000E+03 0.  0.
         25    1    4    4    0    0  0.43489180419E+01 -0.46507411959E+02  0.42163869101E+03  0.44227654959E+03  0.12509000000E+03 0.  0.
<mgrwt>
<rscale>  2 0.44351351E+03</rscale>
<asrwt>0</asrwt>
<pdfrwt beam="1">  1       21 0.13585377E+00 0.44351351E+03</pdfrwt>
<pdfrwt beam="2">  1       21 0.78282411E-02 0.44351351E+03</pdfrwt>
<totfact> 0.43873850E+04</totfact>
</mgrwt>
</event>
<event>
 7    0  0.4775379E-002  0.4526768E+03  0.7546771E-02  0.1026927E+00
         21   -1    0    0  502  501  0.00000000000E+00  0.00000000000E+00  0.30469843566E+03  0.30469843566E+03  0.00000000000E+00 0. -1.
         21   -1    0    0  501  502 -0.00000000000E+00 -0.00000000000E+00 -0.16813042815E+03  0.16813042815E+03  0.00000000000E+00 0. -1.
      99926    2    1    2    0    0  0.35527136788E-14  0.00000000000E+00  0.13656800752E+03  0.47282886381E+03  0.45267683150E+03 0.  0.
      99925    2    3    3    0    0 -0.16067264356E+02  0.65274612911E+02 -0.57819361033E+01  0.27175687018E+03  0.26324785589E+03 0.  0.
         25    1    4    4    0    0 -0.37866272092E+02  0.41589346874E+01 -0.13233955797E+01  0.13076853894E+03  0.12509000000E+03 0.  0.
         25    1    4    4    0    0  0.21799007736E+02  0.61115678224E+02 -0.44585405236E+01  0.14098833124E+03  0.12509000000E+03 0.  0.
         25    1    3    3    0    0  0.16067264356E+02 -0.65274612911E+02  0.14234994362E+03  0.20107199363E+03  0.12509000000E+03 0.  0.
<mgrwt>
<rscale>  2 0.45267683E+03</rscale>
<asrwt>0</asrwt>
<pdfrwt beam="1">  1       21 0.44808594E-01 0.45267683E+03</pdfrwt>
<pdfrwt beam="2">  1       21 0.24725063E-01 0.45267683E+03</pdfrwt>
<totfact> 0.68479719E+04</totfact>
</mgrwt>
</event>
<event>
 7    0  0.4775379E-002  0.4534036E+03  0.7546771E-02  0.1026712E+00
         21   -1    0    0  502  501  0.00000000000E+00  0.00000000000E+00  0.40716210478E+03  0.40716210478E+03  0.00000000000E+00 0.  1.
         21   -1    0    0  501  502 -0.00000000000E+00 -0.00000000000E+00 -0.12622417005E+03  0.12622417005E+03  0.00000000000E+00 0.  1.
      99926    2    1    2    0    0  0.00000000000E+00  0.00000000000E+00  0.28093793473E+03  0.53338627482E+03  0.45340356748E+03 0.  0.
      99925    2    3    3    0    0  0.41248081243E+02 -0.49057405871E+02  0.28459373778E+03  0.39278433219E+03  0.26301692484E+03 0.  0.
         25    1    3    3    0    0 -0.41248081243E+02  0.49057405871E+02 -0.36558030522E+01  0.14060194264E+03  0.12509000000E+03 0.  0.
         25    1    4    4    0    0  0.19694287399E+02 -0.61699390820E+02  0.12376864810E+03  0.18751230929E+03  0.12509000000E+03 0.  0.
         25    1    4    4    0    0  0.21553793844E+02  0.12641984949E+02  0.16082508968E+03  0.20527202289E+03  0.12509000000E+03 0.  0.
<mgrwt>
<rscale>  2 0.45340357E+03</rscale>
<asrwt>0</asrwt>
<pdfrwt beam="1">  1       21 0.59876780E-01 0.45340357E+03</pdfrwt>
<pdfrwt beam="2">  1       21 0.18562378E-01 0.45340357E+03</pdfrwt>
<totfact> 0.63780010E+04</totfact>
</mgrwt>
</event>
<event>
 7    0  0.4775379E-002  0.4517505E+03  0.7546771E-02  0.1027201E+00
         21   -1    0    0  502  501  0.00000000000E+00  0.00000000000E+00  0.93359258279E+03  0.93359258279E+03  0.00000000000E+00 0. -1.
         21   -1    0    0  501  502 -0.00000000000E+00 -0.00000000000E+00 -0.54648703607E+02  0.54648703607E+02  0.00000000000E+00 0. -1.
      99926    2    1    2    0    0  0.00000000000E+00 -0.35527136788E-14  0.87894387919E+03  0.98824128640E+03  0.45175048134E+03 0.  0.
      99925    2    3    3    0    0  0.10829837820E+03  0.17675951182E+02  0.53767209105E+03  0.60856389775E+03  0.26309268744E+03 0.  0.
         25    1    4    4    0    0  0.38111097184E+02 -0.11344073299E+02  0.18592592884E+03  0.22758976876E+03  0.12509000000E+03 0.  0.
         25    1    4    4    0    0  0.70187281015E+02  0.29020024481E+02  0.35174616221E+03  0.38097412900E+03  0.12509000000E+03 0.  0.
         25    1    3    3    0    0 -0.10829837820E+03 -0.17675951182E+02  0.34127178814E+03  0.37967738865E+03  0.12509000000E+03 0.  0.
<mgrwt>
<rscale>  2 0.45175048E+03</rscale>
<asrwt>0</asrwt>
<pdfrwt beam="1">  1       21 0.13729302E+00 0.45175048E+03</pdfrwt>
<pdfrwt beam="2">  1       21 0.80365746E-02 0.45175048E+03</pdfrwt>
<totfact> 0.40649211E+04</totfact>
</mgrwt>
</event>
<event>
 7    0  0.4775379E-002  0.4503509E+03  0.7546771E-02  0.1027617E+00
         21   -1    0    0  502  501  0.00000000000E+00  0.00000000000E+00  0.15667007796E+03  0.15667007796E+03  0.00000000000E+00 0. -1.
         21   -1    0    0  501  502 -0.00000000000E+00 -0.00000000000E+00 -0.32363537727E+03  0.32363537727E+03  0.00000000000E+00 0. -1.
      99926    2    1    2    0    0  0.00000000000E+00  0.00000000000E+00 -0.16696529931E+03  0.48030545524E+03  0.45035088449E+03 0.  0.
      99925    2    3    3    0    0  0.99644245468E+02  0.40868659580E+02 -0.84461696857E+02  0.29576934628E+03  0.26219554721E+03 0.  0.
         25    1    4    4    0    0  0.61880322198E+02  0.34828114427E+02 -0.80654037417E+02  0.16490831902E+03  0.12509000000E+03 0.  0.
         25    1    4    4    0    0  0.37763923270E+02  0.60405451528E+01 -0.38076594403E+01  0.13086102727E+03  0.12509000000E+03 0.  0.
         25    1    3    3    0    0 -0.99644245468E+02 -0.40868659580E+02 -0.82503602452E+02  0.18453610896E+03  0.12509000000E+03 0.  0.
<mgrwt>
<rscale>  2 0.45035088E+03</rscale>
<asrwt>0</asrwt>
<pdfrwt beam="1">  1       21 0.23039718E-01 0.45035088E+03</pdfrwt>
<pdfrwt beam="2">  1       21 0.47593437E-01 0.45035088E+03</pdfrwt>
<totfact> 0.69196522E+04</totfact>
</mgrwt>
</event>
<event>
 7    0  0.4775379E-002  0.4656820E+03  0.7546771E-02  0.1023146E+00
         21   -1    0    0  502  501  0.00000000000E+00  0.00000000000E+00  0.12986343650E+03  0.12986343650E+03  0.00000000000E+00 0.  1.
         21   -1    0    0  501  502 -0.00000000000E+00 -0.00000000000E+00 -0.41747645514E+03  0.41747645514E+03  0.00000000000E+00 0.  1.
      99926    2    1    2    0    0  0.00000000000E+00  0.00000000000E+00 -0.28761301864E+03  0.54733989164E+03  0.46568198214E+03 0.  0.
      99925    2    3    3    0    0  0.47031571377E+02 -0.10849537950E+03 -0.13988351182E+03  0.32050353793E+03  0.26300552251E+03 0.  0.
         25    1    4    4    0    0  0.49258730156E+02 -0.51066210608E+02 -0.36574636840E+02  0.14838932752E+03  0.12509000000E+03 0.  0.
         25    1    3    3    0    0 -0.47031571377E+02  0.10849537950E+03 -0.14772950682E+03  0.22683635371E+03  0.12509000000E+03 0.  0.
         25    1    4    4    0    0 -0.22271587789E+01 -0.57429168887E+02 -0.10330887498E+03  0.17211421041E+03  0.12509000000E+03 0.  0.
<mgrwt>
<rscale>  2 0.46568198E+03</rscale>
<asrwt>0</asrwt>
<pdfrwt beam="1">  1       21 0.19097565E-01 0.46568198E+03</pdfrwt>
<pdfrwt beam="2">  1       21 0.61393595E-01 0.46568198E+03</pdfrwt>
<totfact> 0.57062583E+04</totfact>
</mgrwt>
</event>
<event>
 7    0  0.4775379E-002  0.4451871E+03  0.7546771E-02  0.1029167E+00
         21   -1    0    0  502  501  0.00000000000E+00  0.00000000000E+00  0.13341277602E+02  0.13341277602E+02  0.00000000000E+00 0.  1.
         21   -1    0    0  501  502 -0.00000000000E+00 -0.00000000000E+00 -0.37138785182E+04  0.37138785182E+04  0.00000000000E+00 0.  1.
      99926    2    1    2    0    0  0.00000000000E+00  0.35527136788E-14 -0.37005372406E+04  0.37272197958E+04  0.44518708108E+03 0.  0.
      99925    2    3    3    0    0  0.82020713122E+02 -0.27861227654E+02 -0.18740396154E+04  0.18943955467E+04  0.26307102012E+03 0.  0.
         25    1    4    4    0    0  0.76383341096E+02  0.29084172448E+01 -0.90058398727E+03  0.91243734027E+03  0.12509000000E+03 0.  0.
         25    1    3    3    0    0 -0.82020713122E+02  0.27861227654E+02 -0.18264976251E+04  0.18328242491E+04  0.12509000000E+03 0.  0.
         25    1    4    4    0    0  0.56373720257E+01 -0.30769644899E+02 -0.97345562815E+03  0.98195820638E+03  0.12509000000E+03 0.  0.
<mgrwt>
<rscale>  2 0.44518708E+03</rscale>
<asrwt>0</asrwt>
<pdfrwt beam="1">  1       21 0.19619512E-02 0.44518708E+03</pdfrwt>
<pdfrwt beam="2">  1       21 0.54615900E+00 0.44518708E+03</pdfrwt>
<totfact> 0.87607666E+02</totfact>
</mgrwt>
</event>
<event>
 7    0  0.4775379E-002  0.4573317E+03  0.7546771E-02  0.1025558E+00
         21   -1    0    0  502  501  0.00000000000E+00  0.00000000000E+00  0.46438243856E+03  0.46438243856E+03  0.00000000000E+00 0. -1.
         21   -1    0    0  501  502 -0.00000000000E+00 -0.00000000000E+00 -0.11259702784E+03  0.11259702784E+03  0.00000000000E+00 0. -1.
      99926    2    1    2    0    0  0.71054273576E-14  0.35527136788E-14  0.35178541072E+03  0.57697946640E+03  0.45733174988E+03 0.  0.
      99925    2    3    3    0    0  0.51069575105E+02 -0.14398896845E+02  0.91620727317E+02  0.28346864833E+03  0.26295377385E+03 0.  0.
         25    1    3    3    0    0 -0.51069575105E+02  0.14398896845E+02  0.26016468341E+03  0.29351081807E+03  0.12509000000E+03 0.  0.
         25    1    4    4    0    0  0.32430381592E+02 -0.47232054252E+02  0.47730415659E+02  0.14563068797E+03  0.12509000000E+03 0.  0.
         25    1    4    4    0    0  0.18639193513E+02  0.32833157408E+02  0.43890311657E+02  0.13783796036E+03  0.12509000000E+03 0.  0.
<mgrwt>
<rscale>  2 0.45733175E+03</rscale>
<asrwt>0</asrwt>
<pdfrwt beam="1">  1       21 0.68291534E-01 0.45733175E+03</pdfrwt>
<pdfrwt beam="2">  1       21 0.16558387E-01 0.45733175E+03</pdfrwt>
<totfact> 0.59022424E+04</totfact>
</mgrwt>
</event>
<event>
 7    0  0.4775379E-002  0.4493443E+03  0.7546771E-02  0.1027918E+00
         21   -1    0    0  502  501  0.00000000000E+00  0.00000000000E+00  0.21059756809E+03  0.21059756809E+03  0.00000000000E+00 0. -1.
         21   -1    0    0  501  502 -0.00000000000E+00 -0.00000000000E+00 -0.23968736674E+03  0.23968736674E+03  0.00000000000E+00 0. -1.
      99926    2    1    2    0    0  0.35527136788E-14  0.00000000000E+00 -0.29089798657E+02  0.45028493483E+03  0.44934430691E+03 0.  0.
      99925    2    3    3    0    0 -0.28443202749E+02  0.82007067572E+02 -0.82352557183E+02  0.28898210020E+03  0.26304854238E+03 0.  0.
         25    1    3    3    0    0  0.28443202749E+02 -0.82007067572E+02  0.53262758526E+02  0.16130283463E+03  0.12509000000E+03 0.  0.
         25    1    4    4    0    0 -0.26045963352E+02  0.63872106386E+02 -0.97110026907E+01  0.14317768630E+03  0.12509000000E+03 0.  0.
         25    1    4    4    0    0 -0.23972393964E+01  0.18134961186E+02 -0.72641554492E+02  0.14580441390E+03  0.12509000000E+03 0.  0.
<mgrwt>
<rscale>  2 0.44934431E+03</rscale>
<asrwt>0</asrwt>
<pdfrwt beam="1">  1       21 0.30970231E-01 0.44934431E+03</pdfrwt>
<pdfrwt beam="2">  1       21 0.35248142E-01 0.44934431E+03</pdfrwt>
<totfact> 0.72091289E+04</totfact>
</mgrwt>
</event>
<event>
 7    0  0.4775379E-002  0.4556911E+03  0.7546771E-02  0.1026038E+00
         21   -1    0    0  502  501  0.00000000000E+00  0.00000000000E+00  0.19017600265E+02  0.19017600265E+02  0.00000000000E+00 0.  1.
         21   -1    0    0  501  502 -0.00000000000E+00 -0.00000000000E+00 -0.27297654359E+04  0.27297654359E+04  0.00000000000E+00 0.  1.
      99926    2    1    2    0    0 -0.14210854715E-13  0.00000000000E+00 -0.27107478356E+04  0.27487830361E+04  0.45569107025E+03 0.  0.
      99925    2    3    3    0    0 -0.97344579550E+02 -0.17677389180E+02 -0.13658917460E+04  0.13945032027E+04  0.26304080186E+03 0.  0.
         25    1    4    4    0    0 -0.90043011876E+01 -0.15072618986E+02 -0.69097562383E+03  0.70242656706E+03  0.12509000000E+03 0.  0.
         25    1    3    3    0    0  0.97344579550E+02  0.17677389180E+02 -0.13448560896E+04  0.13542798334E+04  0.12509000000E+03 0.  0.
         25    1    4    4    0    0 -0.88340278363E+02 -0.26047701946E+01 -0.67491612214E+03  0.69207663567E+03  0.12509000000E+03 0.  0.
<mgrwt>
<rscale>  2 0.45569107E+03</rscale>
<asrwt>0</asrwt>
<pdfrwt beam="1">  1       21 0.27967043E-02 0.45569107E+03</pdfrwt>
<pdfrwt beam="2">  1       21 0.40143632E+00 0.45569107E+03</pdfrwt>
<totfact> 0.48804451E+03</totfact>
</mgrwt>
</event>
<event>
 7    0  0.4775379E-002  0.4604395E+03  0.7546771E-02  0.1024654E+00
         21   -1    0    0  502  501  0.00000000000E+00  0.00000000000E+00  0.60015286766E+03  0.60015286766E+03  0.00000000000E+00 0. -1.
         21   -1    0    0  501  502 -0.00000000000E+00 -0.00000000000E+00 -0.88312708972E+02  0.88312708972E+02  0.00000000000E+00 0. -1.
      99926    2    1    2    0    0  0.00000000000E+00  0.35527136788E-14  0.51184015869E+03  0.68846557664E+03  0.46043946634E+03 0.  0.
      99925    2    3    3    0    0  0.89516459901E+02  0.17513126783E+02  0.20809001731E+03  0.34753807307E+03  0.26298545724E+03 0.  0.
         25    1    4    4    0    0  0.19254526117E+02 -0.43173321014E+01  0.59781976056E+02  0.14003845505E+03  0.12509000000E+03 0.  0.
         25    1    3    3    0    0 -0.89516459901E+02 -0.17513126783E+02  0.30375014138E+03  0.34092750357E+03  0.12509000000E+03 0.  0.
         25    1    4    4    0    0  0.70261933784E+02  0.21830458885E+02  0.14830804126E+03  0.20749961801E+03  0.12509000000E+03 0.  0.
<mgrwt>
<rscale>  2 0.46043947E+03</rscale>
<asrwt>0</asrwt>
<pdfrwt beam="1">  1       21 0.88257772E-01 0.46043947E+03</pdfrwt>
<pdfrwt beam="2">  1       21 0.12987163E-01 0.46043947E+03</pdfrwt>
<totfact> 0.51301086E+04</totfact>
</mgrwt>
</event>
<event>
 7    0  0.4775379E-002  0.4500438E+03  0.7546771E-02  0.1027709E+00
         21   -1    0    0  502  501  0.00000000000E+00  0.00000000000E+00  0.41567473476E+03  0.41567473476E+03  0.00000000000E+00 0.  1.
         21   -1    0    0  501  502 -0.00000000000E+00 -0.00000000000E+00 -0.12181367062E+03  0.12181367062E+03  0.00000000000E+00 0.  1.
      99926    2    1    2    0    0  0.88817841970E-15  0.00000000000E+00  0.29386106414E+03  0.53748840538E+03  0.45004384331E+03 0.  0.
      99925    2    3    3    0    0  0.40947405627E+01 -0.82639988035E+02  0.10187437895E+03  0.29386465877E+03  0.26292948497E+03 0.  0.
         25    1    4    4    0    0 -0.35652300512E+02 -0.25848221100E+02  0.50467960370E+02  0.14189341137E+03  0.12509000000E+03 0.  0.
         25    1    4    4    0    0  0.39747041074E+02 -0.56791766935E+02  0.51406418580E+02  0.15197124740E+03  0.12509000000E+03 0.  0.
         25    1    3    3    0    0 -0.40947405627E+01  0.82639988035E+02  0.19198668519E+03  0.24362374661E+03  0.12509000000E+03 0.  0.
<mgrwt>
<rscale>  2 0.45004384E+03</rscale>
<asrwt>0</asrwt>
<pdfrwt beam="1">  1       21 0.61128637E-01 0.45004384E+03</pdfrwt>
<pdfrwt beam="2">  1       21 0.17913775E-01 0.45004384E+03</pdfrwt>
<totfact> 0.65221847E+04</totfact>
</mgrwt>
</event>
<event>
 6    0  0.4775379E-002  0.4578907E+03  0.7546771E-02  0.1025395E+00
         21   -1    0    0  502  501  0.00000000000E+00  0.00000000000E+00  0.47909407838E+03  0.47909407838E+03  0.00000000000E+00 0. -1.
         21   -1    0    0  501  502 -0.00000000000E+00 -0.00000000000E+00 -0.10940644364E+03  0.10940644364E+03  0.00000000000E+00 0. -1.
      99926    2    1    2    0    0 -0.14210854715E-13 -0.71054273576E-14  0.36968763475E+03  0.58850052202E+03  0.45789072620E+03 0.  0.
         25    1    3    3    0    0  0.10385606051E+03 -0.53906561243E+02  0.16550897320E+03  0.23818632824E+03  0.12509000000E+03 0.  0.
         25    1    3    3    0    0 -0.39793423039E+02  0.52939133777E+02  0.12595488221E+03  0.18946822651E+03  0.12509000000E+03 0.  0.
         25    1    3    3    0    0 -0.64062637474E+02  0.96742746568E+00  0.78223779339E+02  0.16084596728E+03  0.12509000000E+03 0.  0.
<mgrwt>
<rscale>  2 0.45789073E+03</rscale>
<asrwt>0</asrwt>
<pdfrwt beam="1">  1       21 0.70455011E-01 0.45789073E+03</pdfrwt>
<pdfrwt beam="2">  1       21 0.16089183E-01 0.45789073E+03</pdfrwt>
<totfact> 0.58053894E+04</totfact>
</mgrwt>
</event>
<event>
 7    0  0.4775379E-002  0.4187060E+03  0.7546771E-02  0.1037488E+00
         21   -1    0    0  502  501  0.00000000000E+00  0.00000000000E+00  0.41649756302E+02  0.41649756302E+02  0.00000000000E+00 0. -1.
         21   -1    0    0  501  502 -0.00000000000E+00 -0.00000000000E+00 -0.10523155540E+04  0.10523155540E+04  0.00000000000E+00 0. -1.
      99926    2    1    2    0    0  0.71054273576E-14  0.14210854715E-13 -0.10106657977E+04  0.10939653103E+04  0.41870603711E+03 0.  0.
      99925    2    3    3    0    0 -0.30944363114E+02 -0.66884871607E+02 -0.63651101861E+03  0.69262948276E+03  0.26297943629E+03 0.  0.
         25    1    4    4    0    0  0.22436375183E+02 -0.19541804127E+02 -0.32168554381E+03  0.34643090254E+03  0.12509000000E+03 0.  0.
         25    1    3    3    0    0  0.30944363114E+02  0.66884871607E+02 -0.37415477911E+03  0.40133582757E+03  0.12509000000E+03 0.  0.
         25    1    4    4    0    0 -0.53380738296E+02 -0.47343067480E+02 -0.31482547481E+03  0.34619858022E+03  0.12509000000E+03 0.  0.
<mgrwt>
<rscale>  2 0.41870604E+03</rscale>
<asrwt>0</asrwt>
<pdfrwt beam="1">  1       21 0.61249638E-02 0.41870604E+03</pdfrwt>
<pdfrwt beam="2">  1       21 0.15475230E+00 0.41870604E+03</pdfrwt>
<totfact> 0.47894998E+04</totfact>
</mgrwt>
</event>
<event>
 7    0  0.4775379E-002  0.4535301E+03  0.7546771E-02  0.1026675E+00
         21   -1    0    0  502  501  0.00000000000E+00  0.00000000000E+00  0.48365912309E+03  0.48365912309E+03  0.00000000000E+00 0.  1.
         21   -1    0    0  501  502 -0.00000000000E+00 -0.00000000000E+00 -0.10631950157E+03  0.10631950157E+03  0.00000000000E+00 0.  1.
      99926    2    1    2    0    0  0.35527136788E-14  0.00000000000E+00  0.37733962151E+03  0.58997862466E+03  0.45353013968E+03 0.  0.
      99925    2    3    3    0    0 -0.19071936849E+02  0.87075191159E+02  0.14996925706E+03  0.31558726470E+03  0.26298044773E+03 0.  0.
         25    1    3    3    0    0  0.19071936849E+02 -0.87075191159E+02  0.22737036445E+03  0.27439135996E+03  0.12509000000E+03 0.  0.
         25    1    4    4    0    0 -0.12582802842E+01  0.37561601760E+02  0.11832246970E+03  0.17623896315E+03  0.12509000000E+03 0.  0.
         25    1    4    4    0    0 -0.17813656565E+02  0.49513589399E+02  0.31646787364E+02  0.13934830155E+03  0.12509000000E+03 0.  0.
<mgrwt>
<rscale>  2 0.45353014E+03</rscale>
<asrwt>0</asrwt>
<pdfrwt beam="1">  1       21 0.71126341E-01 0.45353014E+03</pdfrwt>
<pdfrwt beam="2">  1       21 0.15635221E-01 0.45353014E+03</pdfrwt>
<totfact> 0.59993297E+04</totfact>
</mgrwt>
</event>
<event>
 6    0  0.4775379E-002  0.4581709E+03  0.7546771E-02  0.1025313E+00
         21   -1    0    0  502  501  0.00000000000E+00  0.00000000000E+00  0.32110589097E+02  0.32110589097E+02  0.00000000000E+00 0.  1.
         21   -1    0    0  501  502 -0.00000000000E+00 -0.00000000000E+00 -0.16343562865E+04  0.16343562865E+04  0.00000000000E+00 0.  1.
      99926    2    1    2    0    0  0.00000000000E+00  0.00000000000E+00 -0.16022456974E+04  0.16664668756E+04  0.45817089891E+03 0.  0.
         25    1    3    3    0    0  0.14420979904E+02  0.30650719366E+02 -0.27172309402E+03  0.30104547693E+03  0.12509000000E+03 0.  0.
         25    1    3    3    0    0 -0.65727286300E+02 -0.78368846213E+02 -0.77768793299E+03  0.79429703603E+03  0.12509000000E+03 0.  0.
         25    1    3    3    0    0  0.51306306396E+02  0.47718126847E+02 -0.55283467035E+03  0.57112436260E+03  0.12509000000E+03 0.  0.
<mgrwt>
<rscale>  2 0.45817090E+03</rscale>
<asrwt>0</asrwt>
<pdfrwt beam="1">  1       21 0.47221444E-02 0.45817090E+03</pdfrwt>
<pdfrwt beam="2">  1       21 0.24034657E+00 0.45817090E+03</pdfrwt>
<totfact> 0.19484513E+04</totfact>
</mgrwt>
</event>
<event>
 7    0  0.4775379E-002  0.4554453E+03  0.7546771E-02  0.1026111E+00
         21   -1    0    0  502  501  0.00000000000E+00  0.00000000000E+00  0.43928510379E+03  0.43928510379E+03  0.00000000000E+00 0. -1.
         21   -1    0    0  501  502 -0.00000000000E+00 -0.00000000000E+00 -0.11805000001E+03  0.11805000001E+03  0.00000000000E+00 0. -1.
      99926    2    1    2    0    0  0.00000000000E+00  0.00000000000E+00  0.32123510379E+03  0.55733510380E+03  0.45544530520E+03 0.  0.
      99925    2    3    3    0    0  0.44386522279E+02 -0.92047984505E+02  0.13975426551E+03  0.31438285012E+03  0.26241632363E+03 0.  0.
         25    1    4    4    0    0  0.20373543093E+02 -0.81927891836E+02  0.98073638251E+02  0.17998113051E+03  0.12509000000E+03 0.  0.
         25    1    3    3    0    0 -0.44386522279E+02  0.92047984505E+02  0.18148083827E+03  0.24295225369E+03  0.12509000000E+03 0.  0.
         25    1    4    4    0    0  0.24012979186E+02 -0.10120092669E+02  0.41680627263E+02  0.13440171961E+03  0.12509000000E+03 0.  0.
<mgrwt>
<rscale>  2 0.45544531E+03</rscale>
<asrwt>0</asrwt>
<pdfrwt beam="1">  1       21 0.64600750E-01 0.45544531E+03</pdfrwt>
<pdfrwt beam="2">  1       21 0.17360294E-01 0.45544531E+03</pdfrwt>
<totfact> 0.61168635E+04</totfact>
</mgrwt>
</event>
<event>
 7    0  0.4775379E-002  0.4532211E+03  0.7546771E-02  0.1026766E+00
         21   -1    0    0  502  501  0.00000000000E+00  0.00000000000E+00  0.98484986901E+03  0.98484986901E+03  0.00000000000E+00 0.  1.
         21   -1    0    0  501  502 -0.00000000000E+00 -0.00000000000E+00 -0.52142310399E+02  0.52142310399E+02  0.00000000000E+00 0.  1.
      99926    2    1    2    0    0  0.00000000000E+00  0.00000000000E+00  0.93270755861E+03  0.10369921794E+04  0.45322112734E+03 0.  0.
      99925    2    3    3    0    0 -0.77851368598E+02  0.79908951209E+02  0.59749229320E+03  0.66220816382E+03  0.26282377313E+03 0.  0.
         25    1    3    3    0    0  0.77851368598E+02 -0.79908951209E+02  0.33521526541E+03  0.37478401558E+03  0.12509000000E+03 0.  0.
         25    1    4    4    0    0 -0.68724083772E+02  0.70976263297E+02  0.35092167236E+03  0.38542724070E+03  0.12509000000E+03 0.  0.
         25    1    4    4    0    0 -0.91272848269E+01  0.89326879127E+01  0.24657062084E+03  0.27678092312E+03  0.12509000000E+03 0.  0.
<mgrwt>
<rscale>  2 0.45322113E+03</rscale>
<asrwt>0</asrwt>
<pdfrwt beam="1">  1       21 0.14483085E+00 0.45322113E+03</pdfrwt>
<pdfrwt beam="2">  1       21 0.76679874E-02 0.45322113E+03</pdfrwt>
<totfact> 0.38287260E+04</totfact>
</mgrwt>
</event>
<event>
 7    0  0.4775379E-002  0.4356828E+03  0.7546771E-02  0.1032080E+00
         21   -1    0    0  502  501  0.00000000000E+00  0.00000000000E+00  0.71877498539E+03  0.71877498539E+03  0.00000000000E+00 0.  1.
         21   -1    0    0  501  502 -0.00000000000E+00 -0.00000000000E+00 -0.66021883994E+02  0.66021883994E+02  0.00000000000E+00 0.  1.
      99926    2    1    2    0    0  0.00000000000E+00 -0.35527136788E-14  0.65275310139E+03  0.78479686938E+03  0.43568281446E+03 0.  0.
      99925    2    3    3    0    0  0.76631038907E+02  0.13897026528E+02  0.51286338174E+03  0.58161693623E+03  0.26302845609E+03 0.  0.
         25    1    4    4    0    0  0.15876413639E+02 -0.27268154202E+02  0.25457920665E+03  0.28540093431E+03  0.12509000000E+03 0.  0.
         25    1    4    4    0    0  0.60754625268E+02  0.41165180730E+02  0.25828417508E+03  0.29621600192E+03  0.12509000000E+03 0.  0.
         25    1    3    3    0    0 -0.76631038907E+02 -0.13897026528E+02  0.13988971966E+03  0.20317993315E+03  0.12509000000E+03 0.  0.
<mgrwt>
<rscale>  2 0.43568281E+03</rscale>
<asrwt>0</asrwt>
<pdfrwt beam="1">  1       21 0.10570220E+00 0.43568281E+03</pdfrwt>
<pdfrwt beam="2">  1       21 0.97091010E-02 0.43568281E+03</pdfrwt>
<totfact> 0.56617694E+04</totfact>
</mgrwt>
</event>
<event>
 7    0  0.4775379E-002  0.4525966E+03  0.7546771E-02  0.1026951E+00
         21   -1    0    0  502  501  0.00000000000E+00  0.00000000000E+00  0.11166069905E+04  0.11166069905E+04  0.00000000000E+00 0. -1.
         21   -1    0    0  501  502 -0.00000000000E+00 -0.00000000000E+00 -0.45862974820E+02  0.45862974820E+02  0.00000000000E+00 0. -1.
      99926    2    1    2    0    0  0.00000000000E+00  0.00000000000E+00  0.10707440156E+04  0.11624699653E+04  0.45259658986E+03 0.  0.
      99925    2    3    3    0    0 -0.44676262388E+02 -0.89475318493E+02  0.55137558504E+03  0.61896938952E+03  0.26288071126E+03 0.  0.
         25    1    4    4    0    0 -0.38867355006E+02 -0.78002133219E+02  0.34688190013E+03  0.37890574660E+03  0.12509000000E+03 0.  0.
         25    1    4    4    0    0 -0.58089073820E+01 -0.11473185274E+02  0.20449368490E+03  0.24006364292E+03  0.12509000000E+03 0.  0.
         25    1    3    3    0    0  0.44676262388E+02  0.89475318493E+02  0.51936843061E+03  0.54350057577E+03  0.12509000000E+03 0.  0.
<mgrwt>
<rscale>  2 0.45259659E+03</rscale>
<asrwt>0</asrwt>
<pdfrwt beam="1">  1       21 0.16420689E+00 0.45259659E+03</pdfrwt>
<pdfrwt beam="2">  1       21 0.67445558E-02 0.45259659E+03</pdfrwt>
<totfact> 0.34001101E+04</totfact>
</mgrwt>
</event>
<event>
 7    0  0.4775379E-002  0.4546336E+03  0.7546771E-02  0.1026349E+00
         21   -1    0    0  502  501  0.00000000000E+00  0.00000000000E+00  0.34928197270E+03  0.34928197270E+03  0.00000000000E+00 0. -1.
         21   -1    0    0  501  502 -0.00000000000E+00 -0.00000000000E+00 -0.14794043288E+03  0.14794043288E+03  0.00000000000E+00 0. -1.
      99926    2    1    2    0    0  0.14210854715E-13  0.00000000000E+00  0.20134153982E+03  0.49722240558E+03  0.45463359418E+03 0.  0.
      99925    2    3    3    0    0  0.86806101710E+02 -0.64399828001E+02  0.16224709519E+03  0.32734444691E+03  0.26295936927E+03 0.  0.
         25    1    4    4    0    0  0.41289095041E+01 -0.25854416920E+02  0.91185588073E+02  0.15699623671E+03  0.12509000000E+03 0.  0.
         25    1    3    3    0    0 -0.86806101710E+02  0.64399828001E+02  0.39094444631E+02  0.16987795867E+03  0.12509000000E+03 0.  0.
         25    1    4    4    0    0  0.82677192206E+02 -0.38545411081E+02  0.71061507117E+02  0.17034821021E+03  0.12509000000E+03 0.  0.
<mgrwt>
<rscale>  2 0.45463359E+03</rscale>
<asrwt>0</asrwt>
<pdfrwt beam="1">  1       21 0.51364996E-01 0.45463359E+03</pdfrwt>
<pdfrwt beam="2">  1       21 0.21755946E-01 0.45463359E+03</pdfrwt>
<totfact> 0.65657002E+04</totfact>
</mgrwt>
</event>
<event>
 7    0  0.4775379E-002  0.4580116E+03  0.7546771E-02  0.1025359E+00
         21   -1    0    0  502  501  0.00000000000E+00  0.00000000000E+00  0.48162555678E+02  0.48162555678E+02  0.00000000000E+00 0.  1.
         21   -1    0    0  501  502 -0.00000000000E+00 -0.00000000000E+00 -0.10888885255E+04  0.10888885255E+04  0.00000000000E+00 0.  1.
      99926    2    1    2    0    0  0.00000000000E+00  0.00000000000E+00 -0.10407259698E+04  0.11370510812E+04  0.45801159040E+03 0.  0.
      99925    2    3    3    0    0 -0.99079104009E+02 -0.12369440985E+02 -0.79913739186E+03  0.84725421952E+03  0.26315293940E+03 0.  0.
         25    1    4    4    0    0 -0.85839261429E+02 -0.25064003909E+02 -0.47813333039E+03  0.50225050804E+03  0.12509000000E+03 0.  0.
         25    1    3    3    0    0  0.99079104009E+02  0.12369440985E+02 -0.24158857796E+03  0.28979686165E+03  0.12509000000E+03 0.  0.
         25    1    4    4    0    0 -0.13239842580E+02  0.12694562924E+02 -0.32100406147E+03  0.34500371148E+03  0.12509000000E+03 0.  0.
<mgrwt>
<rscale>  2 0.45801159E+03</rscale>
<asrwt>0</asrwt>
<pdfrwt beam="1">  1       21 0.70827295E-02 0.45801159E+03</pdfrwt>
<pdfrwt beam="2">  1       21 0.16013065E+00 0.45801159E+03</pdfrwt>
<totfact> 0.33426081E+04</totfact>
</mgrwt>
</event>
<event>
 7    0  0.4775379E-002  0.4273766E+03  0.7546771E-02  0.1034692E+00
         21   -1    0    0  502  501  0.00000000000E+00  0.00000000000E+00  0.15769092314E+03  0.15769092314E+03  0.00000000000E+00 0. -1.
         21   -1    0    0  501  502 -0.00000000000E+00 -0.00000000000E+00 -0.28957087752E+03  0.28957087752E+03  0.00000000000E+00 0. -1.
      99926    2    1    2    0    0  0.00000000000E+00  0.00000000000E+00 -0.13187995438E+03  0.44726180066E+03  0.42737664415E+03 0.  0.
      99925    2    3    3    0    0 -0.55656627320E+02 -0.37901176619E+02 -0.31227864757E+02  0.27315691676E+03  0.26287898790E+03 0.  0.
         25    1    3    3    0    0  0.55656627320E+02  0.37901176619E+02 -0.10065208963E+03  0.17410488391E+03  0.12509000000E+03 0.  0.
         25    1    4    4    0    0 -0.41318325868E+02  0.12341625591E+02  0.63983187011E+01  0.13246873728E+03  0.12509000000E+03 0.  0.
         25    1    4    4    0    0 -0.14338301452E+02 -0.50242802210E+02 -0.37626183458E+02  0.14068817948E+03  0.12509000000E+03 0.  0.
<mgrwt>
<rscale>  2 0.42737664E+03</rscale>
<asrwt>0</asrwt>
<pdfrwt beam="1">  1       21 0.23189842E-01 0.42737664E+03</pdfrwt>
<pdfrwt beam="2">  1       21 0.42583952E-01 0.42737664E+03</pdfrwt>
<totfact> 0.86652883E+04</totfact>
</mgrwt>
</event>
<event>
 7    0  0.4775379E-002  0.4536631E+03  0.7546771E-02  0.1026635E+00
         21   -1    0    0  502  501  0.00000000000E+00  0.00000000000E+00  0.24391064420E+03  0.24391064420E+03  0.00000000000E+00 0. -1.
         21   -1    0    0  501  502 -0.00000000000E+00 -0.00000000000E+00 -0.21094837632E+03  0.21094837632E+03  0.00000000000E+00 0. -1.
      99926    2    1    2    0    0  0.00000000000E+00  0.00000000000E+00  0.32962267881E+02  0.45485902052E+03  0.45366311007E+03 0.  0.
      99925    2    3    3    0    0 -0.10244746081E+03  0.29885707052E+02  0.54461060807E+02  0.28903277438E+03  0.26303098640E+03 0.  0.
         25    1    3    3    0    0  0.10244746081E+03 -0.29885707052E+02 -0.21498792927E+02  0.16582624614E+03  0.12509000000E+03 0.  0.
         25    1    4    4    0    0 -0.52647442946E+02 -0.80787182943E+01  0.60947648682E+02  0.14899376805E+03  0.12509000000E+03 0.  0.
         25    1    4    4    0    0 -0.49800017861E+02  0.37964425346E+02 -0.64865878751E+01  0.14003900633E+03  0.12509000000E+03 0.  0.
<mgrwt>
<rscale>  2 0.45366311E+03</rscale>
<asrwt>0</asrwt>
<pdfrwt beam="1">  1       21 0.35869213E-01 0.45366311E+03</pdfrwt>
<pdfrwt beam="2">  1       21 0.31021820E-01 0.45366311E+03</pdfrwt>
<totfact> 0.69292334E+04</totfact>
</mgrwt>
</event>
<event>
 7    0  0.4775379E-002  0.4609164E+03  0.7546771E-02  0.1024516E+00
         21   -1    0    0  502  501  0.00000000000E+00  0.00000000000E+00  0.75617980001E+03  0.75617980001E+03  0.00000000000E+00 0. -1.
         21   -1    0    0  501  502 -0.00000000000E+00 -0.00000000000E+00 -0.70235907758E+02  0.70235907758E+02  0.00000000000E+00 0. -1.
      99926    2    1    2    0    0  0.00000000000E+00  0.71054273576E-14  0.68594389225E+03  0.82641570777E+03  0.46091636848E+03 0.  0.
      99925    2    3    3    0    0  0.71632721298E+02  0.60492614931E+02  0.30000006046E+03  0.41001355525E+03  0.26328781968E+03 0.  0.
         25    1    4    4    0    0  0.45661711304E+00  0.15266288077E+02  0.10898288729E+03  0.16660746043E+03  0.12509000000E+03 0.  0.
         25    1    4    4    0    0  0.71176104185E+02  0.45226326854E+02  0.19101717317E+03  0.24340609482E+03  0.12509000000E+03 0.  0.
         25    1    3    3    0    0 -0.71632721298E+02 -0.60492614931E+02  0.38594383180E+03  0.41640215252E+03  0.12509000000E+03 0.  0.
<mgrwt>
<rscale>  2 0.46091637E+03</rscale>
<asrwt>0</asrwt>
<pdfrwt beam="1">  1       21 0.11120291E+00 0.46091637E+03</pdfrwt>
<pdfrwt beam="2">  1       21 0.10328810E-01 0.46091637E+03</pdfrwt>
<totfact> 0.44415491E+04</totfact>
</mgrwt>
</event>
<event>
 7    0  0.4775379E-002  0.4548201E+03  0.7546771E-02  0.1026294E+00
         21   -1    0    0  502  501  0.00000000000E+00  0.00000000000E+00  0.22974324145E+03  0.22974324145E+03  0.00000000000E+00 0. -1.
         21   -1    0    0  501  502 -0.00000000000E+00 -0.00000000000E+00 -0.22510050956E+03  0.22510050956E+03  0.00000000000E+00 0. -1.
      99926    2    1    2    0    0  0.00000000000E+00  0.00000000000E+00  0.46427318964E+01  0.45484375101E+03  0.45482005549E+03 0.  0.
      99925    2    3    3    0    0 -0.40879815291E+02  0.18103019354E+02 -0.10085920021E+03  0.28520577064E+03  0.26300356410E+03 0.  0.
         25    1    4    4    0    0 -0.59977018087E+02  0.34855613436E+01 -0.42818812476E+02  0.14522517219E+03  0.12509000000E+03 0.  0.
         25    1    4    4    0    0  0.19097202796E+02  0.14617458011E+02 -0.58040387731E+02  0.13998059845E+03  0.12509000000E+03 0.  0.
         25    1    3    3    0    0  0.40879815291E+02 -0.18103019354E+02  0.10550193210E+03  0.16963798037E+03  0.12509000000E+03 0.  0.
<mgrwt>
<rscale>  2 0.45482006E+03</rscale>
<asrwt>0</asrwt>
<pdfrwt beam="1">  1       21 0.33785771E-01 0.45482006E+03</pdfrwt>
<pdfrwt beam="2">  1       21 0.33103016E-01 0.45482006E+03</pdfrwt>
<totfact> 0.68655760E+04</totfact>
</mgrwt>
</event>
<event>
 7    0  0.4775379E-002  0.4582049E+03  0.7546771E-02  0.1025303E+00
         21   -1    0    0  502  501  0.00000000000E+00  0.00000000000E+00  0.59808220817E+02  0.59808220817E+02  0.00000000000E+00 0.  1.
         21   -1    0    0  501  502 -0.00000000000E+00 -0.00000000000E+00 -0.87760388499E+03  0.87760388499E+03  0.00000000000E+00 0.  1.
      99926    2    1    2    0    0  0.00000000000E+00 -0.71054273576E-14 -0.81779566418E+03  0.93741210581E+03  0.45820487533E+03 0.  0.
      99925    2    3    3    0    0  0.46176106651E+02 -0.39267390358E+02 -0.31039593679E+03  0.41131691269E+03  0.26298631964E+03 0.  0.
         25    1    4    4    0    0 -0.37259572714E+00  0.46053569430E+01 -0.11039888591E+03  0.16690347585E+03  0.12509000000E+03 0.  0.
         25    1    3    3    0    0 -0.46176106651E+02  0.39267390358E+02 -0.50739972738E+03  0.52609519312E+03  0.12509000000E+03 0.  0.
         25    1    4    4    0    0  0.46548702378E+02 -0.43872747301E+02 -0.19999705088E+03  0.24441343684E+03  0.12509000000E+03 0.  0.
<mgrwt>
<rscale>  2 0.45820488E+03</rscale>
<asrwt>0</asrwt>
<pdfrwt beam="1">  1       21 0.87953273E-02 0.45820488E+03</pdfrwt>
<pdfrwt beam="2">  1       21 0.12905938E+00 0.45820488E+03</pdfrwt>
<totfact> 0.40626859E+04</totfact>
</mgrwt>
</event>
<event>
 7    0  0.4775379E-002  0.4512640E+03  0.7546771E-02  0.1027346E+00
         21   -1    0    0  502  501  0.00000000000E+00  0.00000000000E+00  0.72333177637E+02  0.72333177637E+02  0.00000000000E+00 0. -1.
         21   -1    0    0  501  502 -0.00000000000E+00 -0.00000000000E+00 -0.70382352528E+03  0.70382352528E+03  0.00000000000E+00 0. -1.
      99926    2    1    2    0    0  0.14210854715E-13  0.00000000000E+00 -0.63149034764E+03  0.77615670291E+03  0.45126396745E+03 0.  0.
      99925    2    3    3    0    0  0.67638918834E+02 -0.86910634025E+02 -0.40913720626E+03  0.49827739596E+03  0.26221866474E+03 0.  0.
         25    1    4    4    0    0  0.66156947770E+02 -0.24542222658E+02 -0.22822330700E+03  0.26965245853E+03  0.12509000000E+03 0.  0.
         25    1    3    3    0    0 -0.67638918834E+02  0.86910634025E+02 -0.22235314138E+03  0.27787930695E+03  0.12509000000E+03 0.  0.
         25    1    4    4    0    0  0.14819710644E+01 -0.62368411367E+02 -0.18091389926E+03  0.22862493744E+03  0.12509000000E+03 0.  0.
<mgrwt>
<rscale>  2 0.45126397E+03</rscale>
<asrwt>0</asrwt>
<pdfrwt beam="1">  1       21 0.10637232E-01 0.45126397E+03</pdfrwt>
<pdfrwt beam="2">  1       21 0.10350346E+00 0.45126397E+03</pdfrwt>
<totfact> 0.50401647E+04</totfact>
</mgrwt>
</event>
<event>
 7    0  0.4775379E-002  0.4506311E+03  0.7546771E-02  0.1027534E+00
         21   -1    0    0  502  501  0.00000000000E+00  0.00000000000E+00  0.11141965719E+03  0.11141965719E+03  0.00000000000E+00 0.  1.
         21   -1    0    0  501  502 -0.00000000000E+00 -0.00000000000E+00 -0.45563869627E+03  0.45563869627E+03  0.00000000000E+00 0.  1.
      99926    2    1    2    0    0  0.00000000000E+00  0.00000000000E+00 -0.34421903908E+03  0.56705835346E+03  0.45063114558E+03 0.  0.
      99925    2    3    3    0    0  0.52838450120E+02 -0.95085030403E+02 -0.20843921897E+03  0.35277645393E+03  0.26300428442E+03 0.  0.
         25    1    4    4    0    0  0.30059459795E+02 -0.24313054504E+02 -0.57132276231E+02  0.14285062418E+03  0.12509000000E+03 0.  0.
         25    1    3    3    0    0 -0.52838450120E+02  0.95085030403E+02 -0.13577982011E+03  0.21428189953E+03  0.12509000000E+03 0.  0.
         25    1    4    4    0    0  0.22778990325E+02 -0.70771975898E+02 -0.15130694274E+03  0.20992582974E+03  0.12509000000E+03 0.  0.
<mgrwt>
<rscale>  2 0.45063115E+03</rscale>
<asrwt>0</asrwt>
<pdfrwt beam="1">  1       21 0.16385244E-01 0.45063115E+03</pdfrwt>
<pdfrwt beam="2">  1       21 0.67005691E-01 0.45063115E+03</pdfrwt>
<totfact> 0.62898315E+04</totfact>
</mgrwt>
</event>
<event>
 7    0  0.4775379E-002  0.4532091E+03  0.7546771E-02  0.1026769E+00
         21   -1    0    0  502  501  0.00000000000E+00  0.00000000000E+00  0.42247366281E+02  0.42247366281E+02  0.00000000000E+00 0.  1.
         21   -1    0    0  501  502 -0.00000000000E+00 -0.00000000000E+00 -0.12154515965E+04  0.12154515965E+04  0.00000000000E+00 0.  1.
      99926    2    1    2    0    0  0.00000000000E+00  0.00000000000E+00 -0.11732042302E+04  0.12576989627E+04  0.45320912962E+03 0.  0.
      99925    2    3    3    0    0 -0.72082134528E+02 -0.45899170893E+02 -0.54032663128E+03  0.60694237900E+03  0.26291370245E+03 0.  0.
         25    1    4    4    0    0 -0.19093894990E+02 -0.45820721750E+02 -0.33195058496E+03  0.35819382229E+03  0.12509000000E+03 0.  0.
         25    1    4    4    0    0 -0.52988239538E+02 -0.78449142976E-01 -0.20837604632E+03  0.24874855671E+03  0.12509000000E+03 0.  0.
         25    1    3    3    0    0  0.72082134528E+02  0.45899170893E+02 -0.63287759889E+03  0.65075658374E+03  0.12509000000E+03 0.  0.
<mgrwt>
<rscale>  2 0.45320913E+03</rscale>
<asrwt>0</asrwt>
<pdfrwt beam="1">  1       21 0.62128493E-02 0.45320913E+03</pdfrwt>
<pdfrwt beam="2">  1       21 0.17874285E+00 0.45320913E+03</pdfrwt>
<totfact> 0.30795415E+04</totfact>
</mgrwt>
</event>
<event>
 7    0  0.4775379E-002  0.4680169E+03  0.7546771E-02  0.1022481E+00
         21   -1    0    0  502  501  0.00000000000E+00  0.00000000000E+00  0.77431305406E+03  0.77431305406E+03  0.00000000000E+00 0.  1.
         21   -1    0    0  501  502 -0.00000000000E+00 -0.00000000000E+00 -0.70720687596E+02  0.70720687596E+02  0.00000000000E+00 0.  1.
      99926    2    1    2    0    0  0.00000000000E+00  0.71054273576E-14  0.70359236646E+03  0.84503374165E+03  0.46801688686E+03 0.  0.
      99925    2    3    3    0    0  0.87933075404E+02 -0.53649062556E+02  0.31010681799E+03  0.41948840609E+03  0.26304721367E+03 0.  0.
         25    1    4    4    0    0  0.38320565156E+02 -0.57084286044E+02  0.19925905097E+03  0.24510968753E+03  0.12509000000E+03 0.  0.
         25    1    3    3    0    0 -0.87933075404E+02  0.53649062556E+02  0.39348554847E+03  0.42554533556E+03  0.12509000000E+03 0.  0.
         25    1    4    4    0    0  0.49612510248E+02  0.34352234881E+01  0.11084776701E+03  0.17437871856E+03  0.12509000000E+03 0.  0.
<mgrwt>
<rscale>  2 0.46801689E+03</rscale>
<asrwt>0</asrwt>
<pdfrwt beam="1">  1       21 0.11386956E+00 0.46801689E+03</pdfrwt>
<pdfrwt beam="2">  1       21 0.10400102E-01 0.46801689E+03</pdfrwt>
<totfact> 0.41282342E+04</totfact>
</mgrwt>
</event>
<event>
 7    0  0.4775379E-002  0.4564092E+03  0.7546771E-02  0.1025828E+00
         21   -1    0    0  502  501  0.00000000000E+00  0.00000000000E+00  0.17314704560E+03  0.17314704560E+03  0.00000000000E+00 0.  1.
         21   -1    0    0  501  502 -0.00000000000E+00 -0.00000000000E+00 -0.30076942759E+03  0.30076942759E+03  0.00000000000E+00 0.  1.
      99926    2    1    2    0    0 -0.35527136788E-14  0.00000000000E+00 -0.12762238199E+03  0.47391647319E+03  0.45640919270E+03 0.  0.
      99925    2    3    3    0    0  0.30750592174E+02 -0.99364638414E+02 -0.30862552478E+02  0.28463123079E+03  0.26314161607E+03 0.  0.
         25    1    3    3    0    0 -0.30750592174E+02  0.99364638414E+02 -0.96759829511E+02  0.18928524241E+03  0.12509000000E+03 0.  0.
         25    1    4    4    0    0  0.92622415994E+01 -0.86697804791E+02 -0.37095200909E+02  0.15692629004E+03  0.12509000000E+03 0.  0.
         25    1    4    4    0    0  0.21488350574E+02 -0.12666833623E+02  0.62326484311E+01  0.12770494075E+03  0.12509000000E+03 0.  0.
<mgrwt>
<rscale>  2 0.45640919E+03</rscale>
<asrwt>0</asrwt>
<pdfrwt beam="1">  1       21 0.25462801E-01 0.45640919E+03</pdfrwt>
<pdfrwt beam="2">  1       21 0.44230798E-01 0.45640919E+03</pdfrwt>
<totfact> 0.66400117E+04</totfact>
</mgrwt>
</event>
<event>
 7    0  0.4775379E-002  0.3981279E+03  0.7546771E-02  0.1044430E+00
         21   -1    0    0  502  501  0.00000000000E+00  0.00000000000E+00  0.18731597248E+04  0.18731597248E+04  0.00000000000E+00 0.  1.
         21   -1    0    0  501  502 -0.00000000000E+00 -0.00000000000E+00 -0.21154867880E+02  0.21154867880E+02  0.00000000000E+00 0.  1.
      99926    2    1    2    0    0 -0.35527136788E-14  0.35527136788E-14  0.18520048570E+04  0.18943145927E+04  0.39812785131E+03 0.  0.
      99925    2    3    3    0    0  0.27625074579E+02 -0.62726487830E+01  0.13841376344E+04  0.14091860150E+04  0.26299380803E+03 0.  0.
         25    1    3    3    0    0 -0.27625074579E+02  0.62726487830E+01  0.46786722255E+03  0.48512857770E+03  0.12509000000E+03 0.  0.
         25    1    4    4    0    0  0.62560915919E+00 -0.32247996290E+02  0.55550059532E+03  0.57032336806E+03  0.12509000000E+03 0.  0.
         25    1    4    4    0    0  0.26999465420E+02  0.25975347507E+02  0.82863703910E+03  0.83886264697E+03  0.12509000000E+03 0.  0.
<mgrwt>
<rscale>  2 0.39812785E+03</rscale>
<asrwt>0</asrwt>
<pdfrwt beam="1">  1       21 0.27546455E+00 0.39812785E+03</pdfrwt>
<pdfrwt beam="2">  1       21 0.31110113E-02 0.39812785E+03</pdfrwt>
<totfact> 0.24783431E+04</totfact>
</mgrwt>
</event>
<event>
 7    0  0.4775379E-002  0.4683796E+03  0.7546771E-02  0.1022379E+00
         21   -1    0    0  502  501  0.00000000000E+00  0.00000000000E+00  0.57339859600E+03  0.57339859600E+03  0.00000000000E+00 0.  1.
         21   -1    0    0  501  502 -0.00000000000E+00 -0.00000000000E+00 -0.95648771969E+02  0.95648771969E+02  0.00000000000E+00 0.  1.
      99926    2    1    2    0    0  0.71054273576E-14  0.00000000000E+00  0.47774982403E+03  0.66904736797E+03  0.46837963900E+03 0.  0.
      99925    2    3    3    0    0  0.36591151195E+02  0.11307310302E+03  0.24028964024E+03  0.37551834733E+03  0.26296478662E+03 0.  0.
         25    1    4    4    0    0 -0.61641690382E+01  0.80694596975E+02  0.96383689806E+02  0.17744559369E+03  0.12509000000E+03 0.  0.
         25    1    4    4    0    0  0.42755320233E+02  0.32378506047E+02  0.14390595044E+03  0.19807275364E+03  0.12509000000E+03 0.  0.
         25    1    3    3    0    0 -0.36591151195E+02 -0.11307310302E+03  0.23746018379E+03  0.29352902064E+03  0.12509000000E+03 0.  0.
<mgrwt>
<rscale>  2 0.46837964E+03</rscale>
<asrwt>0</asrwt>
<pdfrwt beam="1">  1       21 0.84323321E-01 0.46837964E+03</pdfrwt>
<pdfrwt beam="2">  1       21 0.14065996E-01 0.46837964E+03</pdfrwt>
<totfact> 0.49215209E+04</totfact>
</mgrwt>
</event>
<event>
 7    0  0.4775379E-002  0.4539998E+03  0.7546771E-02  0.1026536E+00
         21   -1    0    0  502  501  0.00000000000E+00  0.00000000000E+00  0.30604333726E+03  0.30604333726E+03  0.00000000000E+00 0. -1.
         21   -1    0    0  501  502 -0.00000000000E+00 -0.00000000000E+00 -0.16837145965E+03  0.16837145965E+03  0.00000000000E+00 0. -1.
      99926    2    1    2    0    0 -0.71054273576E-14  0.00000000000E+00  0.13767187761E+03  0.47441479692E+03  0.45399983882E+03 0.  0.
      99925    2    3    3    0    0  0.38869684690E+02  0.57474628194E+02 -0.57880055227E+01  0.27182547972E+03  0.26275731225E+03 0.  0.
         25    1    4    4    0    0 -0.26816444653E+01  0.28392284709E+02  0.30858342101E+02  0.13195854813E+03  0.12509000000E+03 0.  0.
         25    1    4    4    0    0  0.41551329155E+02  0.29082343485E+02 -0.36646347623E+02  0.13986693159E+03  0.12509000000E+03 0.  0.
         25    1    3    3    0    0 -0.38869684690E+02 -0.57474628194E+02  0.14345988313E+03  0.20258931720E+03  0.12509000000E+03 0.  0.
<mgrwt>
<rscale>  2 0.45399984E+03</rscale>
<asrwt>0</asrwt>
<pdfrwt beam="1">  1       21 0.45006373E-01 0.45399984E+03</pdfrwt>
<pdfrwt beam="2">  1       21 0.24760509E-01 0.45399984E+03</pdfrwt>
<totfact> 0.67644277E+04</totfact>
</mgrwt>
</event>
<event>
 7    0  0.4775379E-002  0.4620003E+03  0.7546771E-02  0.1024203E+00
         21   -1    0    0  502  501  0.00000000000E+00  0.00000000000E+00  0.29682764338E+03  0.29682764338E+03  0.00000000000E+00 0. -1.
         21   -1    0    0  501  502 -0.00000000000E+00 -0.00000000000E+00 -0.17977122108E+03  0.17977122108E+03  0.00000000000E+00 0. -1.
      99926    2    1    2    0    0  0.00000000000E+00  0.00000000000E+00  0.11705642230E+03  0.47659886446E+03  0.46200029394E+03 0.  0.
      99925    2    3    3    0    0  0.86115946157E+01  0.97212169799E+02  0.15875242683E+01  0.28037210779E+03  0.26283385071E+03 0.  0.
         25    1    4    4    0    0  0.18480393378E+02  0.76353011514E+02  0.28295891023E+02  0.15039771559E+03  0.12509000000E+03 0.  0.
         25    1    3    3    0    0 -0.86115946157E+01 -0.97212169799E+02  0.11546889804E+03  0.19622675667E+03  0.12509000000E+03 0.  0.
         25    1    4    4    0    0 -0.98687987620E+01  0.20859158285E+02 -0.26708366755E+02  0.12997439220E+03  0.12509000000E+03 0.  0.
<mgrwt>
<rscale>  2 0.46200029E+03</rscale>
<asrwt>0</asrwt>
<pdfrwt beam="1">  1       21 0.43651124E-01 0.46200029E+03</pdfrwt>
<pdfrwt beam="2">  1       21 0.26436944E-01 0.46200029E+03</pdfrwt>
<totfact> 0.63355704E+04</totfact>
</mgrwt>
</event>
<event>
 7    0  0.4775379E-002  0.4587834E+03  0.7546771E-02  0.1025135E+00
         21   -1    0    0  502  501  0.00000000000E+00  0.00000000000E+00  0.26296315656E+03  0.26296315656E+03  0.00000000000E+00 0.  1.
         21   -1    0    0  501  502 -0.00000000000E+00 -0.00000000000E+00 -0.20010621495E+03  0.20010621495E+03  0.00000000000E+00 0.  1.
      99926    2    1    2    0    0  0.00000000000E+00  0.14210854715E-13  0.62856941614E+02  0.46306937151E+03  0.45878344316E+03 0.  0.
      99925    2    3    3    0    0  0.19637242840E+02 -0.11011108782E+03  0.55366515139E+01  0.28574707532E+03  0.26288907086E+03 0.  0.
         25    1    3    3    0    0 -0.19637242840E+02  0.11011108782E+03  0.57320290100E+02  0.17732229619E+03  0.12509000000E+03 0.  0.
         25    1    4    4    0    0 -0.22702605957E+02 -0.27981174400E+02  0.27278877187E+01  0.13020485363E+03  0.12509000000E+03 0.  0.
         25    1    4    4    0    0  0.42339848797E+02 -0.82129913422E+02  0.28087637952E+01  0.15554222169E+03  0.12509000000E+03 0.  0.
<mgrwt>
<rscale>  2 0.45878344E+03</rscale>
<asrwt>0</asrwt>
<pdfrwt beam="1">  1       21 0.38671052E-01 0.45878344E+03</pdfrwt>
<pdfrwt beam="2">  1       21 0.29427385E-01 0.45878344E+03</pdfrwt>
<totfact> 0.65945177E+04</totfact>
</mgrwt>
</event>
<event>
 7    0  0.4775379E-002  0.4556241E+03  0.7546771E-02  0.1026058E+00
         21   -1    0    0  502  501  0.00000000000E+00  0.00000000000E+00  0.36418091351E+03  0.36418091351E+03  0.00000000000E+00 0. -1.
         21   -1    0    0  501  502 -0.00000000000E+00 -0.00000000000E+00 -0.14250699033E+03  0.14250699033E+03  0.00000000000E+00 0. -1.
      99926    2    1    2    0    0  0.00000000000E+00  0.00000000000E+00  0.22167392318E+03  0.50668790383E+03  0.45562408153E+03 0.  0.
      99925    2    3    3    0    0  0.88873502982E+02 -0.33190145098E+02  0.20899679493E+03  0.34918138668E+03  0.26314994823E+03 0.  0.
         25    1    3    3    0    0 -0.88873502982E+02  0.33190145098E+02  0.12677128252E+02  0.15750651715E+03  0.12509000000E+03 0.  0.
         25    1    4    4    0    0  0.33868535698E+02  0.18367141710E+01  0.14437964217E+03  0.19401917535E+03  0.12509000000E+03 0.  0.
         25    1    4    4    0    0  0.55004967284E+02 -0.35026859269E+02  0.64617152757E+02  0.15516221134E+03  0.12509000000E+03 0.  0.
<mgrwt>
<rscale>  2 0.45562408E+03</rscale>
<asrwt>0</asrwt>
<pdfrwt beam="1">  1       21 0.53556017E-01 0.45562408E+03</pdfrwt>
<pdfrwt beam="2">  1       21 0.20956910E-01 0.45562408E+03</pdfrwt>
<totfact> 0.64483323E+04</totfact>
</mgrwt>
</event>
<event>
 7    0  0.4775379E-002  0.4534784E+03  0.7546771E-02  0.1026690E+00
         21   -1    0    0  502  501  0.00000000000E+00  0.00000000000E+00  0.11512587750E+03  0.11512587750E+03  0.00000000000E+00 0.  1.
         21   -1    0    0  501  502 -0.00000000000E+00 -0.00000000000E+00 -0.44656037528E+03  0.44656037528E+03  0.00000000000E+00 0.  1.
      99926    2    1    2    0    0  0.00000000000E+00 -0.71054273576E-14 -0.33143449779E+03  0.56168625278E+03  0.45347835697E+03 0.  0.
      99925    2    3    3    0    0  0.50175840411E+02  0.62596153243E+02 -0.11266633576E+03  0.29721903330E+03  0.26307709361E+03 0.  0.
         25    1    3    3    0    0 -0.50175840411E+02 -0.62596153243E+02 -0.21876816203E+03  0.26446721948E+03  0.12509000000E+03 0.  0.
         25    1    4    4    0    0  0.43136767342E+02 -0.29994113248E+01 -0.68705166644E+02  0.14912305385E+03  0.12509000000E+03 0.  0.
         25    1    4    4    0    0  0.70390730694E+01  0.65595564568E+02 -0.43961169117E+02  0.14809597946E+03  0.12509000000E+03 0.  0.
<mgrwt>
<rscale>  2 0.45347836E+03</rscale>
<asrwt>0</asrwt>
<pdfrwt beam="1">  1       21 0.16930276E-01 0.45347836E+03</pdfrwt>
<pdfrwt beam="2">  1       21 0.65670644E-01 0.45347836E+03</pdfrwt>
<totfact> 0.61841756E+04</totfact>
</mgrwt>
</event>
<event>
 7    0  0.4775379E-002  0.4508047E+03  0.7546771E-02  0.1027482E+00
         21   -1    0    0  502  501  0.00000000000E+00  0.00000000000E+00  0.85638677139E+03  0.85638677139E+03  0.00000000000E+00 0.  1.
         21   -1    0    0  501  502 -0.00000000000E+00 -0.00000000000E+00 -0.59326266615E+02  0.59326266615E+02  0.00000000000E+00 0.  1.
      99926    2    1    2    0    0  0.17763568394E-14 -0.14210854715E-13  0.79706050477E+03  0.91571303800E+03  0.45080474676E+03 0.  0.
      99925    2    3    3    0    0  0.11616286298E+02 -0.10856585664E+03  0.50977235618E+03  0.58389460609E+03  0.26295165442E+03 0.  0.
         25    1    4    4    0    0  0.18061514306E+02 -0.17562061164E+02  0.26751843406E+03  0.29639207977E+03  0.12509000000E+03 0.  0.
         25    1    4    4    0    0 -0.64452280077E+01 -0.91003795477E+02  0.24225392213E+03  0.28750252632E+03  0.12509000000E+03 0.  0.
         25    1    3    3    0    0 -0.11616286298E+02  0.10856585664E+03  0.28728814859E+03  0.33181843191E+03  0.12509000000E+03 0.  0.
<mgrwt>
<rscale>  2 0.45080475E+03</rscale>
<asrwt>0</asrwt>
<pdfrwt beam="1">  1       21 0.12593922E+00 0.45080475E+03</pdfrwt>
<pdfrwt beam="2">  1       21 0.87244515E-02 0.45080475E+03</pdfrwt>
<totfact> 0.43987321E+04</totfact>
</mgrwt>
</event>
<event>
 7    0  0.4775379E-002  0.4409717E+03  0.7546771E-02  0.1030449E+00
         21   -1    0    0  502  501  0.00000000000E+00  0.00000000000E+00  0.75601954241E+02  0.75601954241E+02  0.00000000000E+00 0.  1.
         21   -1    0    0  501  502 -0.00000000000E+00 -0.00000000000E+00 -0.64302586216E+03  0.64302586216E+03  0.00000000000E+00 0.  1.
      99926    2    1    2    0    0  0.00000000000E+00  0.00000000000E+00 -0.56742390792E+03  0.71862781640E+03  0.44097170797E+03 0.  0.
      99925    2    3    3    0    0  0.45615762444E+02 -0.24091426277E+02 -0.50033343372E+03  0.56759856615E+03  0.26300835118E+03 0.  0.
         25    1    3    3    0    0 -0.45615762444E+02  0.24091426277E+02 -0.67090474195E+02  0.15102925025E+03  0.12509000000E+03 0.  0.
         25    1    4    4    0    0  0.29926694675E+02 -0.42231841323E+02 -0.31349864239E+03  0.34147919755E+03  0.12509000000E+03 0.  0.
         25    1    4    4    0    0  0.15689067769E+02  0.18140415045E+02 -0.18683479133E+03  0.22611936860E+03  0.12509000000E+03 0.  0.
<mgrwt>
<rscale>  2 0.44097171E+03</rscale>
<asrwt>0</asrwt>
<pdfrwt beam="1">  1       21 0.11117934E-01 0.44097171E+03</pdfrwt>
<pdfrwt beam="2">  1       21 0.94562627E-01 0.44097171E+03</pdfrwt>
<totfact> 0.58048173E+04</totfact>
</mgrwt>
</event>
<event>
 7    0  0.4775379E-002  0.4442474E+03  0.7546771E-02  0.1029452E+00
         21   -1    0    0  502  501  0.00000000000E+00  0.00000000000E+00  0.11917058107E+03  0.11917058107E+03  0.00000000000E+00 0. -1.
         21   -1    0    0  501  502 -0.00000000000E+00 -0.00000000000E+00 -0.41401949492E+03  0.41401949492E+03  0.00000000000E+00 0. -1.
      99926    2    1    2    0    0  0.14210854715E-13 -0.71054273576E-14 -0.29484891386E+03  0.53319007599E+03  0.44424742558E+03 0.  0.
      99925    2    3    3    0    0 -0.68233839794E+02  0.39991638576E+02 -0.10857022333E+03  0.29527738887E+03  0.26295637458E+03 0.  0.
         25    1    4    4    0    0 -0.71739771721E+02  0.38744088042E+02 -0.54506312122E+02  0.15895328045E+03  0.12509000000E+03 0.  0.
         25    1    4    4    0    0  0.35059319272E+01  0.12475505340E+01 -0.54063911208E+02  0.13632410842E+03  0.12509000000E+03 0.  0.
         25    1    3    3    0    0  0.68233839794E+02 -0.39991638576E+02 -0.18627869053E+03  0.23791268712E+03  0.12509000000E+03 0.  0.
<mgrwt>
<rscale>  2 0.44424743E+03</rscale>
<asrwt>0</asrwt>
<pdfrwt beam="1">  1       21 0.17525085E-01 0.44424743E+03</pdfrwt>
<pdfrwt beam="2">  1       21 0.60885220E-01 0.44424743E+03</pdfrwt>
<totfact> 0.68649956E+04</totfact>
</mgrwt>
</event>
<event>
 7    0  0.4775379E-002  0.4523671E+03  0.7546771E-02  0.1027018E+00
         21   -1    0    0  502  501  0.00000000000E+00  0.00000000000E+00  0.23339120591E+03  0.23339120591E+03  0.00000000000E+00 0. -1.
         21   -1    0    0  501  502 -0.00000000000E+00 -0.00000000000E+00 -0.21919849271E+03  0.21919849271E+03  0.00000000000E+00 0. -1.
      99926    2    1    2    0    0  0.71054273576E-14  0.00000000000E+00  0.14192713204E+02  0.45258969862E+03  0.45236710998E+03 0.  0.
      99925    2    3    3    0    0  0.32972006859E+02 -0.22580523309E+02  0.11303394287E+03  0.28822994062E+03  0.26211217667E+03 0.  0.
         25    1    4    4    0    0  0.37432577931E+02 -0.44696815221E+02  0.60765000873E+02  0.15079421943E+03  0.12509000000E+03 0.  0.
         25    1    3    3    0    0 -0.32972006859E+02  0.22580523309E+02 -0.98841229665E+02  0.16435975800E+03  0.12509000000E+03 0.  0.
         25    1    4    4    0    0 -0.44605710720E+01  0.22116291913E+02  0.52268941996E+02  0.13743572119E+03  0.12509000000E+03 0.  0.
<mgrwt>
<rscale>  2 0.45236711E+03</rscale>
<asrwt>0</asrwt>
<pdfrwt beam="1">  1       21 0.34322236E-01 0.45236711E+03</pdfrwt>
<pdfrwt beam="2">  1       21 0.32235072E-01 0.45236711E+03</pdfrwt>
<totfact> 0.70185627E+04</totfact>
</mgrwt>
</event>
<event>
 7    0  0.4775379E-002  0.4247697E+03  0.7546771E-02  0.1035525E+00
         21   -1    0    0  502  501  0.00000000000E+00  0.00000000000E+00  0.39183783361E+03  0.39183783361E+03  0.00000000000E+00 0.  1.
         21   -1    0    0  501  502 -0.00000000000E+00 -0.00000000000E+00 -0.11511732415E+03  0.11511732415E+03  0.00000000000E+00 0.  1.
      99926    2    1    2    0    0  0.00000000000E+00  0.00000000000E+00  0.27672050946E+03  0.50695515777E+03  0.42476969246E+03 0.  0.
      99925    2    3    3    0    0 -0.73589049399E+02 -0.30597532684E+02  0.15810365893E+03  0.31703669493E+03  0.26299038341E+03 0.  0.
         25    1    4    4    0    0 -0.20610500432E+01 -0.36628152080E+02  0.81395883044E+02  0.15368365993E+03  0.12509000000E+03 0.  0.
         25    1    3    3    0    0  0.73589049399E+02  0.30597532684E+02  0.11861685053E+03  0.18991846284E+03  0.12509000000E+03 0.  0.
         25    1    4    4    0    0 -0.71527999356E+02  0.60306193957E+01  0.76707775886E+02  0.16335303500E+03  0.12509000000E+03 0.  0.
<mgrwt>
<rscale>  2 0.42476969E+03</rscale>
<asrwt>0</asrwt>
<pdfrwt beam="1">  1       21 0.57623210E-01 0.42476969E+03</pdfrwt>
<pdfrwt beam="2">  1       21 0.16929018E-01 0.42476969E+03</pdfrwt>
<totfact> 0.82952145E+04</totfact>
</mgrwt>
</event>
<event>
 7    0  0.4775379E-002  0.4607342E+03  0.7546771E-02  0.1024569E+00
         21   -1    0    0  502  501  0.00000000000E+00  0.00000000000E+00  0.17664270069E+03  0.17664270069E+03  0.00000000000E+00 0.  1.
         21   -1    0    0  501  502 -0.00000000000E+00 -0.00000000000E+00 -0.30043129873E+03  0.30043129873E+03  0.00000000000E+00 0.  1.
      99926    2    1    2    0    0 -0.35527136788E-14 -0.17763568394E-14 -0.12378859804E+03  0.47707399942E+03  0.46073417924E+03 0.  0.
      99925    2    3    3    0    0 -0.27313487629E+02  0.12431536113E+02 -0.19606659526E+03  0.32951998667E+03  0.26313635655E+03 0.  0.
         25    1    4    4    0    0  0.21218709346E+02  0.16330341241E+02 -0.72318193539E+02  0.14695013742E+03  0.12509000000E+03 0.  0.
         25    1    3    3    0    0  0.27313487629E+02 -0.12431536113E+02  0.72277997221E+02  0.14755401275E+03  0.12509000000E+03 0.  0.
         25    1    4    4    0    0 -0.48532196975E+02 -0.38988051280E+01 -0.12374840172E+03  0.18256984925E+03  0.12509000000E+03 0.  0.
<mgrwt>
<rscale>  2 0.46073418E+03</rscale>
<asrwt>0</asrwt>
<pdfrwt beam="1">  1       21 0.25976868E-01 0.46073418E+03</pdfrwt>
<pdfrwt beam="2">  1       21 0.44181073E-01 0.46073418E+03</pdfrwt>
<totfact> 0.63953800E+04</totfact>
</mgrwt>
</event>
<event>
 7    0  0.4775379E-002  0.4453692E+03  0.7546771E-02  0.1029112E+00
         21   -1    0    0  502  501  0.00000000000E+00  0.00000000000E+00  0.48154922823E+03  0.48154922823E+03  0.00000000000E+00 0.  1.
         21   -1    0    0  501  502 -0.00000000000E+00 -0.00000000000E+00 -0.10297686940E+03  0.10297686940E+03  0.00000000000E+00 0.  1.
      99926    2    1    2    0    0 -0.14210854715E-13  0.13322676296E-14  0.37857235883E+03  0.58452609763E+03  0.44536920408E+03 0.  0.
      99925    2    3    3    0    0 -0.10303800947E+03  0.15011970714E+01  0.22280324251E+03  0.35973594952E+03  0.26296308394E+03 0.  0.
         25    1    3    3    0    0  0.10303800947E+03 -0.15011970714E+01  0.15576911633E+03  0.22479014812E+03  0.12509000000E+03 0.  0.
         25    1    4    4    0    0 -0.58124595977E+02  0.36778296251E+02  0.13569894680E+03  0.19695893987E+03  0.12509000000E+03 0.  0.
         25    1    4    4    0    0 -0.44913413495E+02 -0.35277099179E+02  0.87104295706E+02  0.16277700964E+03  0.12509000000E+03 0.  0.
<mgrwt>
<rscale>  2 0.44536920E+03</rscale>
<asrwt>0</asrwt>
<pdfrwt beam="1">  1       21 0.70816062E-01 0.44536920E+03</pdfrwt>
<pdfrwt beam="2">  1       21 0.15143657E-01 0.44536920E+03</pdfrwt>
<totfact> 0.64405684E+04</totfact>
</mgrwt>
</event>
<event>
 7    0  0.4775379E-002  0.4754505E+03  0.7546771E-02  0.1020393E+00
         21   -1    0    0  502  501  0.00000000000E+00  0.00000000000E+00  0.96625697419E+02  0.96625697419E+02  0.00000000000E+00 0.  1.
         21   -1    0    0  501  502 -0.00000000000E+00 -0.00000000000E+00 -0.58486821410E+03  0.58486821410E+03  0.00000000000E+00 0.  1.
      99926    2    1    2    0    0  0.00000000000E+00  0.00000000000E+00 -0.48824251668E+03  0.68149391152E+03  0.47545051934E+03 0.  0.
      99925    2    3    3    0    0  0.69747759486E+02 -0.39061832054E+02 -0.15245730882E+03  0.31435662032E+03  0.26303284404E+03 0.  0.
         25    1    4    4    0    0  0.49632014848E+02 -0.17677079469E+02 -0.34767976429E+02  0.14011472557E+03  0.12509000000E+03 0.  0.
         25    1    3    3    0    0 -0.69747759486E+02  0.39061832054E+02 -0.33578520786E+03  0.36713729121E+03  0.12509000000E+03 0.  0.
         25    1    4    4    0    0  0.20115744638E+02 -0.21384752585E+02 -0.11768933240E+03  0.17424189475E+03  0.12509000000E+03 0.  0.
<mgrwt>
<rscale>  2 0.47545052E+03</rscale>
<asrwt>0</asrwt>
<pdfrwt beam="1">  1       21 0.14209661E-01 0.47545052E+03</pdfrwt>
<pdfrwt beam="2">  1       21 0.86010032E-01 0.47545052E+03</pdfrwt>
<totfact> 0.46038535E+04</totfact>
</mgrwt>
</event>
<event>
 7    0  0.4775379E-002  0.4540324E+03  0.7546771E-02  0.1026526E+00
         21   -1    0    0  502  501  0.00000000000E+00  0.00000000000E+00  0.40439278180E+02  0.40439278180E+02  0.00000000000E+00 0.  1.
         21   -1    0    0  501  502 -0.00000000000E+00 -0.00000000000E+00 -0.12744133567E+04  0.12744133567E+04  0.00000000000E+00 0.  1.
      99926    2    1    2    0    0  0.00000000000E+00  0.00000000000E+00 -0.12339740785E+04  0.13148526348E+04  0.45403240521E+03 0.  0.
      99925    2    3    3    0    0  0.67385107110E+02 -0.66432102105E+02 -0.60338212631E+03  0.66504674452E+03  0.26317903639E+03 0.  0.
         25    1    4    4    0    0 -0.46360730920E+01 -0.41545091808E+02 -0.31815910175E+03  0.34441284812E+03  0.12509000000E+03 0.  0.
         25    1    4    4    0    0  0.72021180202E+02 -0.24887010297E+02 -0.28522302456E+03  0.32063389640E+03  0.12509000000E+03 0.  0.
         25    1    3    3    0    0 -0.67385107110E+02  0.66432102105E+02 -0.63059195216E+03  0.64980589031E+03  0.12509000000E+03 0.  0.
<mgrwt>
<rscale>  2 0.45403241E+03</rscale>
<asrwt>0</asrwt>
<pdfrwt beam="1">  1       21 0.59469541E-02 0.45403241E+03</pdfrwt>
<pdfrwt beam="2">  1       21 0.18741369E+00 0.45403241E+03</pdfrwt>
<totfact> 0.28903247E+04</totfact>
</mgrwt>
</event>
<event>
 7    0  0.4775379E-002  0.4493819E+03  0.7546771E-02  0.1027907E+00
         21   -1    0    0  502  501  0.00000000000E+00  0.00000000000E+00  0.22202852849E+03  0.22202852849E+03  0.00000000000E+00 0. -1.
         21   -1    0    0  501  502 -0.00000000000E+00 -0.00000000000E+00 -0.22738526030E+03  0.22738526030E+03  0.00000000000E+00 0. -1.
      99926    2    1    2    0    0  0.35527136788E-14  0.00000000000E+00 -0.53567318145E+01  0.44941378879E+03  0.44938186320E+03 0.  0.
      99925    2    3    3    0    0 -0.94742500839E+01  0.88848954251E+02  0.57123191496E+02  0.28347661091E+03  0.26289167320E+03 0.  0.
         25    1    3    3    0    0  0.94742500839E+01 -0.88848954251E+02 -0.62479923310E+02  0.16593717788E+03  0.12509000000E+03 0.  0.
         25    1    4    4    0    0 -0.33072597680E+02  0.29756207261E+02  0.53345633942E+02  0.14308212100E+03  0.12509000000E+03 0.  0.
         25    1    4    4    0    0  0.23598347596E+02  0.59092746990E+02  0.37775575536E+01  0.14039448991E+03  0.12509000000E+03 0.  0.
<mgrwt>
<rscale>  2 0.44938186E+03</rscale>
<asrwt>0</asrwt>
<pdfrwt beam="1">  1       21 0.32651254E-01 0.44938186E+03</pdfrwt>
<pdfrwt beam="2">  1       21 0.33439009E-01 0.44938186E+03</pdfrwt>
<totfact> 0.72136825E+04</totfact>
</mgrwt>
</event>
<event>
 7    0  0.4775379E-002  0.4576082E+03  0.7546771E-02  0.1025477E+00
         21   -1    0    0  502  501  0.00000000000E+00  0.00000000000E+00  0.18216794912E+04  0.18216794912E+04  0.00000000000E+00 0. -1.
         21   -1    0    0  501  502 -0.00000000000E+00 -0.00000000000E+00 -0.28737943737E+02  0.28737943737E+02  0.00000000000E+00 0. -1.
      99926    2    1    2    0    0 -0.71054273576E-14 -0.88817841970E-15  0.17929415475E+04  0.18504174350E+04  0.45760822862E+03 0.  0.
      99925    2    3    3    0    0 -0.59257134862E+02 -0.28292331832E+01  0.15266385306E+04  0.15502771053E+04  0.26308646386E+03 0.  0.
         25    1    4    4    0    0 -0.38879645580E+02  0.17029207736E+02  0.57182265173E+03  0.58688182276E+03  0.12509000000E+03 0.  0.
         25    1    3    3    0    0  0.59257134862E+02  0.28292331832E+01  0.26630301684E+03  0.30014032963E+03  0.12509000000E+03 0.  0.
         25    1    4    4    0    0 -0.20377489283E+02 -0.19858440919E+02  0.95481587891E+03  0.96339528256E+03  0.12509000000E+03 0.  0.
<mgrwt>
<rscale>  2 0.45760823E+03</rscale>
<asrwt>0</asrwt>
<pdfrwt beam="1">  1       21 0.26789396E+00 0.45760823E+03</pdfrwt>
<pdfrwt beam="2">  1       21 0.42261694E-02 0.45760823E+03</pdfrwt>
<totfact> 0.15983727E+04</totfact>
</mgrwt>
</event>
<event>
 7    0  0.4775379E-002  0.4519405E+03  0.7546771E-02  0.1027145E+00
         21   -1    0    0  502  501  0.00000000000E+00  0.00000000000E+00  0.82503955802E+03  0.82503955802E+03  0.00000000000E+00 0.  1.
         21   -1    0    0  501  502 -0.00000000000E+00 -0.00000000000E+00 -0.61891026036E+02  0.61891026036E+02  0.00000000000E+00 0.  1.
      99926    2    1    2    0    0  0.00000000000E+00  0.00000000000E+00  0.76314853198E+03  0.88693058405E+03  0.45194045964E+03 0.  0.
      99925    2    3    3    0    0 -0.55334475908E+02  0.88266247750E+02  0.41053477962E+03  0.49855344625E+03  0.26299030167E+03 0.  0.
         25    1    4    4    0    0 -0.46855608599E+02  0.11262809676E+02  0.22296826343E+03  0.26016274433E+03  0.12509000000E+03 0.  0.
         25    1    3    3    0    0  0.55334475908E+02 -0.88266247750E+02  0.35261375236E+03  0.38837713781E+03  0.12509000000E+03 0.  0.
         25    1    4    4    0    0 -0.84788673088E+01  0.77003438073E+02  0.18756651619E+03  0.23839070192E+03  0.12509000000E+03 0.  0.
<mgrwt>
<rscale>  2 0.45194046E+03</rscale>
<asrwt>0</asrwt>
<pdfrwt beam="1">  1       21 0.12132934E+00 0.45194046E+03</pdfrwt>
<pdfrwt beam="2">  1       21 0.91016220E-02 0.45194046E+03</pdfrwt>
<totfact> 0.44869006E+04</totfact>
</mgrwt>
</event>
<event>
 7    0  0.4775379E-002  0.4604052E+03  0.7546771E-02  0.1024664E+00
         21   -1    0    0  502  501  0.00000000000E+00  0.00000000000E+00  0.96392682795E+02  0.96392682795E+02  0.00000000000E+00 0.  1.
         21   -1    0    0  501  502 -0.00000000000E+00 -0.00000000000E+00 -0.54976406311E+03  0.54976406311E+03  0.00000000000E+00 0.  1.
      99926    2    1    2    0    0 -0.14210854715E-13  0.00000000000E+00 -0.45337138032E+03  0.64615674591E+03  0.46040518219E+03 0.  0.
      99925    2    3    3    0    0 -0.98728999224E+02 -0.16742092602E+02 -0.19608011950E+03  0.34304948116E+03  0.26307379251E+03 0.  0.
         25    1    4    4    0    0 -0.66509463840E+02  0.13348372422E+02 -0.64544147770E+02  0.15625345736E+03  0.12509000000E+03 0.  0.
         25    1    3    3    0    0  0.98728999224E+02  0.16742092602E+02 -0.25729126081E+03  0.30310726475E+03  0.12509000000E+03 0.  0.
         25    1    4    4    0    0 -0.32219535383E+02 -0.30090465024E+02 -0.13153597173E+03  0.18679602380E+03  0.12509000000E+03 0.  0.
<mgrwt>
<rscale>  2 0.46040518E+03</rscale>
<asrwt>0</asrwt>
<pdfrwt beam="1">  1       21 0.14175394E-01 0.46040518E+03</pdfrwt>
<pdfrwt beam="2">  1       21 0.80847658E-01 0.46040518E+03</pdfrwt>
<totfact> 0.53600612E+04</totfact>
</mgrwt>
</event>
<event>
 7    0  0.4775379E-002  0.4684112E+03  0.7546771E-02  0.1022370E+00
         21   -1    0    0  502  501  0.00000000000E+00  0.00000000000E+00  0.58579400038E+02  0.58579400038E+02  0.00000000000E+00 0.  1.
         21   -1    0    0  501  502 -0.00000000000E+00 -0.00000000000E+00 -0.93637477177E+03  0.93637477177E+03  0.00000000000E+00 0.  1.
      99926    2    1    2    0    0  0.00000000000E+00  0.17763568394E-14 -0.87779537174E+03  0.99495417181E+03  0.46841123958E+03 0.  0.
      99925    2    3    3    0    0  0.75313961279E+02  0.15203453569E+02 -0.33557022499E+03  0.43320782726E+03  0.26297967208E+03 0.  0.
         25    1    3    3    0    0 -0.75313961279E+02 -0.15203453569E+02 -0.54222514674E+03  0.56174634456E+03  0.12509000000E+03 0.  0.
         25    1    4    4    0    0  0.77951462005E+02  0.15789764562E+02 -0.16738692694E+03  0.22358810010E+03  0.12509000000E+03 0.  0.
         25    1    4    4    0    0 -0.26375007264E+01 -0.58631099327E+00 -0.16818329805E+03  0.20961972716E+03  0.12509000000E+03 0.  0.
<mgrwt>
<rscale>  2 0.46841124E+03</rscale>
<asrwt>0</asrwt>
<pdfrwt beam="1">  1       21 0.86146193E-02 0.46841124E+03</pdfrwt>
<pdfrwt beam="2">  1       21 0.13770215E+00 0.46841124E+03</pdfrwt>
<totfact> 0.35496984E+04</totfact>
</mgrwt>
</event>
<event>
 7    0  0.4775379E-002  0.4461243E+03  0.7546771E-02  0.1028884E+00
         21   -1    0    0  502  501  0.00000000000E+00  0.00000000000E+00  0.10219034528E+04  0.10219034528E+04  0.00000000000E+00 0. -1.
         21   -1    0    0  501  502 -0.00000000000E+00 -0.00000000000E+00 -0.48690234429E+02  0.48690234429E+02  0.00000000000E+00 0. -1.
      99926    2    1    2    0    0  0.00000000000E+00 -0.14210854715E-13  0.97321321834E+03  0.10705936872E+04  0.44612428169E+03 0.  0.
      99925    2    3    3    0    0 -0.61489554330E+02  0.83803249592E+02  0.59018762181E+03  0.65446862711E+03  0.26306616088E+03 0.  0.
         25    1    4    4    0    0 -0.40108687623E+02  0.66044347246E+02  0.23867491430E+03  0.28032799618E+03  0.12509000000E+03 0.  0.
         25    1    3    3    0    0  0.61489554330E+02 -0.83803249592E+02  0.38302559652E+03  0.41612506008E+03  0.12509000000E+03 0.  0.
         25    1    4    4    0    0 -0.21380866708E+02  0.17758902347E+02  0.35151270751E+03  0.37414063093E+03  0.12509000000E+03 0.  0.
<mgrwt>
<rscale>  2 0.44612428E+03</rscale>
<asrwt>0</asrwt>
<pdfrwt beam="1">  1       21 0.15027991E+00 0.44612428E+03</pdfrwt>
<pdfrwt beam="2">  1       21 0.71603292E-02 0.44612428E+03</pdfrwt>
<totfact> 0.39174469E+04</totfact>
</mgrwt>
</event>
<event>
 7    0  0.4775379E-002  0.4549361E+03  0.7546771E-02  0.1026260E+00
         21   -1    0    0  502  501  0.00000000000E+00  0.00000000000E+00  0.24469114730E+03  0.24469114730E+03  0.00000000000E+00 0.  1.
         21   -1    0    0  501  502 -0.00000000000E+00 -0.00000000000E+00 -0.21145723659E+03  0.21145723659E+03  0.00000000000E+00 0.  1.
      99926    2    1    2    0    0  0.00000000000E+00  0.00000000000E+00  0.33233910710E+02  0.45614838388E+03  0.45493610024E+03 0.  0.
      99925    2    3    3    0    0 -0.36761235316E+02 -0.16123789502E+02 -0.85417846360E+02  0.27912546851E+03  0.26268508463E+03 0.  0.
         25    1    4    4    0    0 -0.48634478071E+02 -0.23003720855E+02 -0.21076960849E+02  0.13779052946E+03  0.12509000000E+03 0.  0.
         25    1    4    4    0    0  0.11873242755E+02  0.68799313526E+01 -0.64340885511E+02  0.14133493905E+03  0.12509000000E+03 0.  0.
         25    1    3    3    0    0  0.36761235316E+02  0.16123789502E+02  0.11865175707E+03  0.17702291537E+03  0.12509000000E+03 0.  0.
<mgrwt>
<rscale>  2 0.45493610E+03</rscale>
<asrwt>0</asrwt>
<pdfrwt beam="1">  1       21 0.35983992E-01 0.45493610E+03</pdfrwt>
<pdfrwt beam="2">  1       21 0.31096652E-01 0.45493610E+03</pdfrwt>
<totfact> 0.68496696E+04</totfact>
</mgrwt>
</event>
<event>
 7    0  0.4775379E-002  0.4478361E+03  0.7546771E-02  0.1028369E+00
         21   -1    0    0  502  501  0.00000000000E+00  0.00000000000E+00  0.20152176548E+03  0.20152176548E+03  0.00000000000E+00 0. -1.
         21   -1    0    0  501  502 -0.00000000000E+00 -0.00000000000E+00 -0.24880340127E+03  0.24880340127E+03  0.00000000000E+00 0. -1.
      99926    2    1    2    0    0  0.00000000000E+00  0.00000000000E+00 -0.47281635794E+02  0.45032516676E+03  0.44783613379E+03 0.  0.
      99925    2    3    3    0    0 -0.36057613417E+02 -0.91701747878E+02  0.10231169521E+02  0.28101895622E+03  0.26297835439E+03 0.  0.
         25    1    4    4    0    0 -0.23819797761E+02 -0.55815474629E+02  0.44338950907E+02  0.14593217822E+03  0.12509000000E+03 0.  0.
         25    1    4    4    0    0 -0.12237815656E+02 -0.35886273250E+02 -0.34107781386E+02  0.13508677800E+03  0.12509000000E+03 0.  0.
         25    1    3    3    0    0  0.36057613417E+02  0.91701747878E+02 -0.57512805315E+02  0.16930621053E+03  0.12509000000E+03 0.  0.
<mgrwt>
<rscale>  2 0.44783613E+03</rscale>
<asrwt>0</asrwt>
<pdfrwt beam="1">  1       21 0.29635554E-01 0.44783613E+03</pdfrwt>
<pdfrwt beam="2">  1       21 0.36588735E-01 0.44783613E+03</pdfrwt>
<totfact> 0.72972119E+04</totfact>
</mgrwt>
</event>
<event>
 7    0  0.4775379E-002  0.4546721E+03  0.7546771E-02  0.1026338E+00
         21   -1    0    0  502  501  0.00000000000E+00  0.00000000000E+00  0.34053398035E+03  0.34053398035E+03  0.00000000000E+00 0. -1.
         21   -1    0    0  501  502 -0.00000000000E+00 -0.00000000000E+00 -0.15176657084E+03  0.15176657084E+03  0.00000000000E+00 0. -1.
      99926    2    1    2    0    0  0.71054273576E-14  0.00000000000E+00  0.18876740951E+03  0.49230055119E+03  0.45467207723E+03 0.  0.
      99925    2    3    3    0    0  0.46004800593E+02  0.15257326448E+02  0.83962053024E+01  0.26751063351E+03  0.26294907318E+03 0.  0.
         25    1    3    3    0    0 -0.46004800593E+02 -0.15257326448E+02  0.18037120420E+03  0.22478991769E+03  0.12509000000E+03 0.  0.
         25    1    4    4    0    0  0.31999068983E+02 -0.26241875479E+02 -0.16073413402E+02  0.13273446863E+03  0.12509000000E+03 0.  0.
         25    1    4    4    0    0  0.14005731609E+02  0.41499201927E+02  0.24469618705E+02  0.13477616487E+03  0.12509000000E+03 0.  0.
<mgrwt>
<rscale>  2 0.45467208E+03</rscale>
<asrwt>0</asrwt>
<pdfrwt beam="1">  1       21 0.50078526E-01 0.45467208E+03</pdfrwt>
<pdfrwt beam="2">  1       21 0.22318613E-01 0.45467208E+03</pdfrwt>
<totfact> 0.65986636E+04</totfact>
</mgrwt>
</event>
<event>
 7    0  0.4775379E-002  0.4100355E+03  0.7546771E-02  0.1040359E+00
         21   -1    0    0  502  501  0.00000000000E+00  0.00000000000E+00  0.31665688302E+02  0.31665688302E+02  0.00000000000E+00 0. -1.
         21   -1    0    0  501  502 -0.00000000000E+00 -0.00000000000E+00 -0.13273764183E+04  0.13273764183E+04  0.00000000000E+00 0. -1.
      99926    2    1    2    0    0  0.00000000000E+00  0.00000000000E+00 -0.12957107300E+04  0.13590421066E+04  0.41003554929E+03 0.  0.
      99925    2    3    3    0    0 -0.23763545469E+02  0.16800161394E+02 -0.67194646734E+03  0.72219336868E+03  0.26306701672E+03 0.  0.
         25    1    4    4    0    0 -0.16208425258E+02  0.48482211598E+02 -0.32685268043E+03  0.35368548274E+03  0.12509000000E+03 0.  0.
         25    1    3    3    0    0  0.23763545469E+02 -0.16800161394E+02 -0.62376426263E+03  0.63684873788E+03  0.12509000000E+03 0.  0.
         25    1    4    4    0    0 -0.75551202110E+01 -0.31682050204E+02 -0.34509378690E+03  0.36850788595E+03  0.12509000000E+03 0.  0.
<mgrwt>
<rscale>  2 0.41003555E+03</rscale>
<asrwt>0</asrwt>
<pdfrwt beam="1">  1       21 0.46567184E-02 0.41003555E+03</pdfrwt>
<pdfrwt beam="2">  1       21 0.19520243E+00 0.41003555E+03</pdfrwt>
<totfact> 0.39572023E+04</totfact>
</mgrwt>
</event>
<event>
 7    0  0.4775379E-002  0.4687914E+03  0.7546771E-02  0.1022262E+00
         21   -1    0    0  502  501  0.00000000000E+00  0.00000000000E+00  0.16698857799E+03  0.16698857799E+03  0.00000000000E+00 0. -1.
         21   -1    0    0  501  502 -0.00000000000E+00 -0.00000000000E+00 -0.32901262148E+03  0.32901262148E+03  0.00000000000E+00 0. -1.
      99926    2    1    2    0    0  0.00000000000E+00 -0.14210854715E-13 -0.16202404349E+03  0.49600119947E+03  0.46879142399E+03 0.  0.
      99925    2    3    3    0    0 -0.77420642516E+02  0.73308967947E+02 -0.29953027274E+02  0.28514954049E+03  0.26276399283E+03 0.  0.
         25    1    3    3    0    0  0.77420642516E+02 -0.73308967947E+02 -0.13207101621E+03  0.21085165897E+03  0.12509000000E+03 0.  0.
         25    1    4    4    0    0 -0.72426413236E+01  0.20416156373E+02  0.93792981769E+01  0.12729789719E+03  0.12509000000E+03 0.  0.
         25    1    4    4    0    0 -0.70178001192E+02  0.52892811575E+02 -0.39332325451E+02  0.15785164330E+03  0.12509000000E+03 0.  0.
<mgrwt>
<rscale>  2 0.46879142E+03</rscale>
<asrwt>0</asrwt>
<pdfrwt beam="1">  1       21 0.24557144E-01 0.46879142E+03</pdfrwt>
<pdfrwt beam="2">  1       21 0.48384208E-01 0.46879142E+03</pdfrwt>
<totfact> 0.58841641E+04</totfact>
</mgrwt>
</event>
<event>
 7    0  0.4775379E-002  0.4300818E+03  0.7546771E-02  0.1033834E+00
         21   -1    0    0  502  501  0.00000000000E+00  0.00000000000E+00  0.12164552519E+03  0.12164552519E+03  0.00000000000E+00 0.  1.
         21   -1    0    0  501  502 -0.00000000000E+00 -0.00000000000E+00 -0.38014209732E+03  0.38014209732E+03  0.00000000000E+00 0.  1.
      99926    2    1    2    0    0  0.00000000000E+00  0.00000000000E+00 -0.25849657213E+03  0.50178762251E+03  0.43008178327E+03 0.  0.
      99925    2    3    3    0    0 -0.64127665943E+02  0.53776911771E+02 -0.13567687476E+03  0.30752877473E+03  0.26298558737E+03 0.  0.
         25    1    4    4    0    0  0.71243774603E+01  0.24710660283E+02 -0.47664195586E+02  0.13631125092E+03  0.12509000000E+03 0.  0.
         25    1    4    4    0    0 -0.71252043403E+02  0.29066251488E+02 -0.88012679174E+02  0.17121752381E+03  0.12509000000E+03 0.  0.
         25    1    3    3    0    0  0.64127665943E+02 -0.53776911771E+02 -0.12281969737E+03  0.19425884778E+03  0.12509000000E+03 0.  0.
<mgrwt>
<rscale>  2 0.43008178E+03</rscale>
<asrwt>0</asrwt>
<pdfrwt beam="1">  1       21 0.17889048E-01 0.43008178E+03</pdfrwt>
<pdfrwt beam="2">  1       21 0.55903249E-01 0.43008178E+03</pdfrwt>
<totfact> 0.79787123E+04</totfact>
</mgrwt>
</event>
<event>
 7    0  0.4775379E-002  0.4622548E+03  0.7546771E-02  0.1024129E+00
         21   -1    0    0  502  501  0.00000000000E+00  0.00000000000E+00  0.68034937444E+02  0.68034937444E+02  0.00000000000E+00 0.  1.
         21   -1    0    0  501  502 -0.00000000000E+00 -0.00000000000E+00 -0.78518303266E+03  0.78518303266E+03  0.00000000000E+00 0.  1.
      99926    2    1    2    0    0  0.00000000000E+00  0.00000000000E+00 -0.71714809521E+03  0.85321797010E+03  0.46225481505E+03 0.  0.
      99925    2    3    3    0    0  0.76667675790E+02 -0.81999668699E+02 -0.52613598434E+03  0.59878720785E+03  0.26291665617E+03 0.  0.
         25    1    4    4    0    0  0.15391395242E+02 -0.71261152495E+02 -0.23824119428E+03  0.27878561952E+03  0.12509000000E+03 0.  0.
         25    1    3    3    0    0 -0.76667675790E+02  0.81999668699E+02 -0.19101211087E+03  0.25443076225E+03  0.12509000000E+03 0.  0.
         25    1    4    4    0    0  0.61276280549E+02 -0.10738516203E+02 -0.28789479006E+03  0.32000158833E+03  0.12509000000E+03 0.  0.
<mgrwt>
<rscale>  2 0.46225482E+03</rscale>
<asrwt>0</asrwt>
<pdfrwt beam="1">  1       21 0.10005138E-01 0.46225482E+03</pdfrwt>
<pdfrwt beam="2">  1       21 0.11546809E+00 0.46225482E+03</pdfrwt>
<totfact> 0.42807124E+04</totfact>
</mgrwt>
</event>
<event>
 7    0  0.4775379E-002  0.4568972E+03  0.7546771E-02  0.1025685E+00
         21   -1    0    0  502  501  0.00000000000E+00  0.00000000000E+00  0.14729903701E+03  0.14729903701E+03  0.00000000000E+00 0. -1.
         21   -1    0    0  501  502 -0.00000000000E+00 -0.00000000000E+00 -0.35430485067E+03  0.35430485067E+03  0.00000000000E+00 0. -1.
      99926    2    1    2    0    0  0.00000000000E+00  0.00000000000E+00 -0.20700581367E+03  0.50160388768E+03  0.45689720205E+03 0.  0.
      99925    2    3    3    0    0 -0.70263022087E+02 -0.72011483894E+02 -0.19137243892E+03  0.34031391096E+03  0.26280715654E+03 0.  0.
         25    1    3    3    0    0  0.70263022087E+02  0.72011483894E+02 -0.15633374744E+02  0.16128997672E+03  0.12509000000E+03 0.  0.
         25    1    4    4    0    0 -0.71627488774E+02 -0.55183885335E+02 -0.11825665209E+03  0.19444254218E+03  0.12509000000E+03 0.  0.
         25    1    4    4    0    0  0.13644666869E+01 -0.16827598560E+02 -0.73115786835E+02  0.14587136877E+03  0.12509000000E+03 0.  0.
<mgrwt>
<rscale>  2 0.45689720E+03</rscale>
<asrwt>0</asrwt>
<pdfrwt beam="1">  1       21 0.21661623E-01 0.45689720E+03</pdfrwt>
<pdfrwt beam="2">  1       21 0.52103654E-01 0.45689720E+03</pdfrwt>
<totfact> 0.64186031E+04</totfact>
</mgrwt>
</event>
<event>
 7    0  0.4775379E-002  0.4527624E+03  0.7546771E-02  0.1026901E+00
         21   -1    0    0  502  501  0.00000000000E+00  0.00000000000E+00  0.70185872030E+02  0.70185872030E+02  0.00000000000E+00 0. -1.
         21   -1    0    0  501  502 -0.00000000000E+00 -0.00000000000E+00 -0.73018177915E+03  0.73018177915E+03  0.00000000000E+00 0. -1.
      99926    2    1    2    0    0  0.00000000000E+00  0.00000000000E+00 -0.65999590712E+03  0.80036765117E+03  0.45276238761E+03 0.  0.
      99925    2    3    3    0    0 -0.43775288151E+02 -0.36043580023E+02 -0.24745238277E+03  0.36556300183E+03  0.26303652038E+03 0.  0.
         25    1    4    4    0    0 -0.47758706702E+02 -0.50469133678E+02 -0.13264125687E+03  0.19511339945E+03  0.12509000000E+03 0.  0.
         25    1    3    3    0    0  0.43775288151E+02  0.36043580023E+02 -0.41254352434E+03  0.43480464934E+03  0.12509000000E+03 0.  0.
         25    1    4    4    0    0  0.39834185511E+01  0.14425553655E+02 -0.11481112591E+03  0.17044960239E+03  0.12509000000E+03 0.  0.
<mgrwt>
<rscale>  2 0.45276239E+03</rscale>
<asrwt>0</asrwt>
<pdfrwt beam="1">  1       21 0.10321452E-01 0.45276239E+03</pdfrwt>
<pdfrwt beam="2">  1       21 0.10737967E+00 0.45276239E+03</pdfrwt>
<totfact> 0.48594766E+04</totfact>
</mgrwt>
</event>
<event>
 7    0  0.4775379E-002  0.4527859E+03  0.7546771E-02  0.1026895E+00
         21   -1    0    0  502  501  0.00000000000E+00  0.00000000000E+00  0.17030708737E+03  0.17030708737E+03  0.00000000000E+00 0. -1.
         21   -1    0    0  501  502 -0.00000000000E+00 -0.00000000000E+00 -0.30094908175E+03  0.30094908175E+03  0.00000000000E+00 0. -1.
      99926    2    1    2    0    0  0.00000000000E+00  0.00000000000E+00 -0.13064199437E+03  0.47125616912E+03  0.45278587240E+03 0.  0.
      99925    2    3    3    0    0 -0.62589614907E+02  0.37699831569E+02  0.47842820166E+01  0.27294701242E+03  0.26294190431E+03 0.  0.
         25    1    3    3    0    0  0.62589614907E+02 -0.37699831569E+02 -0.13542627639E+03  0.19830915670E+03  0.12509000000E+03 0.  0.
         25    1    4    4    0    0 -0.38115119726E+02  0.19223185951E+02  0.42339729264E+02  0.13878924311E+03  0.12509000000E+03 0.  0.
         25    1    4    4    0    0 -0.24474495181E+02  0.18476645618E+02 -0.37555447248E+02  0.13415776931E+03  0.12509000000E+03 0.  0.
<mgrwt>
<rscale>  2 0.45278587E+03</rscale>
<asrwt>0</asrwt>
<pdfrwt beam="1">  1       21 0.25045160E-01 0.45278587E+03</pdfrwt>
<pdfrwt beam="2">  1       21 0.44257217E-01 0.45278587E+03</pdfrwt>
<totfact> 0.68538590E+04</totfact>
</mgrwt>
</event>
<event>
 7    0  0.4775379E-002  0.4518318E+03  0.7546771E-02  0.1027177E+00
         21   -1    0    0  502  501  0.00000000000E+00  0.00000000000E+00  0.76634125965E+03  0.76634125965E+03  0.00000000000E+00 0. -1.
         21   -1    0    0  501  502 -0.00000000000E+00 -0.00000000000E+00 -0.66599556241E+02  0.66599556241E+02  0.00000000000E+00 0. -1.
      99926    2    1    2    0    0 -0.26645352591E-14  0.00000000000E+00  0.69974170341E+03  0.83294081589E+03  0.45183177322E+03 0.  0.
      99925    2    3    3    0    0 -0.27821921137E+01 -0.92494881891E+02  0.55193740798E+03  0.61833265757E+03  0.26293978270E+03 0.  0.
         25    1    4    4    0    0  0.14201240766E+02 -0.79366244288E+01  0.27171625967E+03  0.29956952301E+03  0.12509000000E+03 0.  0.
         25    1    3    3    0    0  0.27821921137E+01  0.92494881891E+02  0.14780429543E+03  0.21460815832E+03  0.12509000000E+03 0.  0.
         25    1    4    4    0    0 -0.16983432880E+02 -0.84558257462E+02  0.28022114830E+03  0.31876313456E+03  0.12509000000E+03 0.  0.
<mgrwt>
<rscale>  2 0.45183177E+03</rscale>
<asrwt>0</asrwt>
<pdfrwt beam="1">  1       21 0.11269724E+00 0.45183177E+03</pdfrwt>
<pdfrwt beam="2">  1       21 0.97940529E-02 0.45183177E+03</pdfrwt>
<totfact> 0.47379195E+04</totfact>
</mgrwt>
</event>
<event>
 7    0  0.4775379E-002  0.4456157E+03  0.7546771E-02  0.1029038E+00
         21   -1    0    0  502  501  0.00000000000E+00  0.00000000000E+00  0.13033927324E+03  0.13033927324E+03  0.00000000000E+00 0. -1.
         21   -1    0    0  501  502 -0.00000000000E+00 -0.00000000000E+00 -0.38087789023E+03  0.38087789023E+03  0.00000000000E+00 0. -1.
      99926    2    1    2    0    0  0.00000000000E+00  0.00000000000E+00 -0.25053861699E+03  0.51121716347E+03  0.44561574212E+03 0.  0.
      99925    2    3    3    0    0 -0.39972210658E+01  0.43008795780E+02 -0.50306471052E+02  0.27120434162E+03  0.26297399033E+03 0.  0.
         25    1    4    4    0    0 -0.15903369370E+02  0.45041042060E+02 -0.56609652638E+02  0.14537459716E+03  0.12509000000E+03 0.  0.
         25    1    4    4    0    0  0.11906148304E+02 -0.20322462804E+01  0.63031815856E+01  0.12582974446E+03  0.12509000000E+03 0.  0.
         25    1    3    3    0    0  0.39972210658E+01 -0.43008795780E+02 -0.20023214593E+03  0.24001282186E+03  0.12509000000E+03 0.  0.
<mgrwt>
<rscale>  2 0.44561574E+03</rscale>
<asrwt>0</asrwt>
<pdfrwt beam="1">  1       21 0.19167540E-01 0.44561574E+03</pdfrwt>
<pdfrwt beam="2">  1       21 0.56011454E-01 0.44561574E+03</pdfrwt>
<totfact> 0.69523934E+04</totfact>
</mgrwt>
</event>
<event>
 7    0  0.4775379E-002  0.4121321E+03  0.7546771E-02  0.1039658E+00
         21   -1    0    0  502  501  0.00000000000E+00  0.00000000000E+00  0.27613071637E+04  0.27613071637E+04  0.00000000000E+00 0.  1.
         21   -1    0    0  501  502 -0.00000000000E+00 -0.00000000000E+00 -0.15377939578E+02  0.15377939578E+02  0.00000000000E+00 0.  1.
      99926    2    1    2    0    0  0.00000000000E+00  0.00000000000E+00  0.27459292241E+04  0.27766851033E+04  0.41213208912E+03 0.  0.
      99925    2    3    3    0    0  0.25989199856E+01  0.35800691718E+02  0.21741061139E+04  0.21902402027E+04  0.26291882242E+03 0.  0.
         25    1    3    3    0    0 -0.25989199856E+01 -0.35800691718E+02  0.57182311028E+03  0.58644490062E+03  0.12509000000E+03 0.  0.
         25    1    4    4    0    0  0.52243494490E+01  0.56778061444E+02  0.12262810214E+04  0.12339625982E+04  0.12509000000E+03 0.  0.
         25    1    4    4    0    0 -0.26254294633E+01 -0.20977369726E+02  0.94782509242E+03  0.95627760448E+03  0.12509000000E+03 0.  0.
<mgrwt>
<rscale>  2 0.41213209E+03</rscale>
<asrwt>0</asrwt>
<pdfrwt beam="1">  1       21 0.40607424E+00 0.41213209E+03</pdfrwt>
<pdfrwt beam="2">  1       21 0.22614636E-02 0.41213209E+03</pdfrwt>
<totfact> 0.66513869E+03</totfact>
</mgrwt>
</event>
<event>
 7    0  0.4775379E-002  0.4545128E+03  0.7546771E-02  0.1026385E+00
         21   -1    0    0  502  501  0.00000000000E+00  0.00000000000E+00  0.15423130695E+03  0.15423130695E+03  0.00000000000E+00 0. -1.
         21   -1    0    0  501  502 -0.00000000000E+00 -0.00000000000E+00 -0.33485731925E+03  0.33485731925E+03  0.00000000000E+00 0. -1.
      99926    2    1    2    0    0  0.00000000000E+00  0.00000000000E+00 -0.18062601230E+03  0.48908862620E+03  0.45451284685E+03 0.  0.
      99925    2    3    3    0    0 -0.77422820959E+02  0.74982920495E+02 -0.77991214114E+02  0.29467118493E+03  0.26292916570E+03 0.  0.
         25    1    4    4    0    0 -0.23894116560E+02  0.74912357810E+02 -0.33292597468E+02  0.15145525843E+03  0.12509000000E+03 0.  0.
         25    1    3    3    0    0  0.77422820959E+02 -0.74982920495E+02 -0.10263479818E+03  0.19441744127E+03  0.12509000000E+03 0.  0.
         25    1    4    4    0    0 -0.53528704399E+02  0.70562685590E-01 -0.44698616647E+02  0.14321592650E+03  0.12509000000E+03 0.  0.
<mgrwt>
<rscale>  2 0.45451285E+03</rscale>
<asrwt>0</asrwt>
<pdfrwt beam="1">  1       21 0.22681075E-01 0.45451285E+03</pdfrwt>
<pdfrwt beam="2">  1       21 0.49243723E-01 0.45451285E+03</pdfrwt>
<totfact> 0.66300264E+04</totfact>
</mgrwt>
</event>
<event>
 7    0  0.4775379E-002  0.4576733E+03  0.7546771E-02  0.1025458E+00
         21   -1    0    0  502  501  0.00000000000E+00  0.00000000000E+00  0.57363602827E+03  0.57363602827E+03  0.00000000000E+00 0.  1.
         21   -1    0    0  501  502 -0.00000000000E+00 -0.00000000000E+00 -0.91288222197E+02  0.91288222197E+02  0.00000000000E+00 0.  1.
      99926    2    1    2    0    0  0.00000000000E+00 -0.66613381478E-15  0.48234780607E+03  0.66492425047E+03  0.45767330361E+03 0.  0.
      99925    2    3    3    0    0 -0.10904417123E+03  0.19792052481E+01  0.24692146797E+03  0.37688325112E+03  0.26301373557E+03 0.  0.
         25    1    4    4    0    0 -0.11447563584E+02 -0.34066804149E+01  0.11800254979E+03  0.17237970310E+03  0.12509000000E+03 0.  0.
         25    1    4    4    0    0 -0.97596607647E+02  0.53858856630E+01  0.12891891818E+03  0.20450354802E+03  0.12509000000E+03 0.  0.
         25    1    3    3    0    0  0.10904417123E+03 -0.19792052481E+01  0.23542633810E+03  0.28804099935E+03  0.12509000000E+03 0.  0.
<mgrwt>
<rscale>  2 0.45767330E+03</rscale>
<asrwt>0</asrwt>
<pdfrwt beam="1">  1       21 0.84358238E-01 0.45767330E+03</pdfrwt>
<pdfrwt beam="2">  1       21 0.13424739E-01 0.45767330E+03</pdfrwt>
<totfact> 0.53707828E+04</totfact>
</mgrwt>
</event>
<event>
 7    0  0.4775379E-002  0.4455391E+03  0.7546771E-02  0.1029061E+00
         21   -1    0    0  502  501  0.00000000000E+00  0.00000000000E+00  0.85976797813E+03  0.85976797813E+03  0.00000000000E+00 0. -1.
         21   -1    0    0  501  502 -0.00000000000E+00 -0.00000000000E+00 -0.57720528156E+02  0.57720528156E+02  0.00000000000E+00 0. -1.
      99926    2    1    2    0    0 -0.14210854715E-13  0.00000000000E+00  0.80204744997E+03  0.91748850629E+03  0.44553905234E+03 0.  0.
      99925    2    3    3    0    0  0.65285611061E+02  0.41895983043E+02  0.65144766944E+03  0.70690530087E+03  0.26327467400E+03 0.  0.
         25    1    4    4    0    0  0.36394390673E+02 -0.48366400675E+01  0.40040247989E+03  0.42109096258E+03  0.12509000000E+03 0.  0.
         25    1    4    4    0    0  0.28891220388E+02  0.46732623111E+02  0.25104518955E+03  0.28581433829E+03  0.12509000000E+03 0.  0.
         25    1    3    3    0    0 -0.65285611061E+02 -0.41895983043E+02  0.15059978053E+03  0.21058320541E+03  0.12509000000E+03 0.  0.
<mgrwt>
<rscale>  2 0.44553905E+03</rscale>
<asrwt>0</asrwt>
<pdfrwt beam="1">  1       21 0.12643646E+00 0.44553905E+03</pdfrwt>
<pdfrwt beam="2">  1       21 0.84883135E-02 0.44553905E+03</pdfrwt>
<totfact> 0.45781659E+04</totfact>
</mgrwt>
</event>
<event>
 7    0  0.4775379E-002  0.4550460E+03  0.7546771E-02  0.1026228E+00
         21   -1    0    0  502  501  0.00000000000E+00  0.00000000000E+00  0.12978293668E+03  0.12978293668E+03  0.00000000000E+00 0.  1.
         21   -1    0    0  501  502 -0.00000000000E+00 -0.00000000000E+00 -0.39887156858E+03  0.39887156858E+03  0.00000000000E+00 0.  1.
      99926    2    1    2    0    0  0.00000000000E+00  0.71054273576E-14 -0.26908863189E+03  0.52865450526E+03  0.45504603516E+03 0.  0.
      99925    2    3    3    0    0  0.97844322755E+01  0.62361686812E+02 -0.27825420439E+03  0.38824000844E+03  0.26328727048E+03 0.  0.
         25    1    4    4    0    0  0.28265765877E+02  0.59888617915E+02 -0.17428693940E+03  0.22451958806E+03  0.12509000000E+03 0.  0.
         25    1    3    3    0    0 -0.97844322755E+01 -0.62361686812E+02  0.91655724941E+01  0.14041449682E+03  0.12509000000E+03 0.  0.
         25    1    4    4    0    0 -0.18481333602E+02  0.24730688965E+01 -0.10396726499E+03  0.16372042038E+03  0.12509000000E+03 0.  0.
<mgrwt>
<rscale>  2 0.45504604E+03</rscale>
<asrwt>0</asrwt>
<pdfrwt beam="1">  1       21 0.19085726E-01 0.45504604E+03</pdfrwt>
<pdfrwt beam="2">  1       21 0.58657584E-01 0.45504604E+03</pdfrwt>
<totfact> 0.63274621E+04</totfact>
</mgrwt>
</event>
<event>
 7    0  0.4775379E-002  0.4589767E+03  0.7546771E-02  0.1025078E+00
         21   -1    0    0  502  501  0.00000000000E+00  0.00000000000E+00  0.24167707122E+03  0.24167707122E+03  0.00000000000E+00 0.  1.
         21   -1    0    0  501  502 -0.00000000000E+00 -0.00000000000E+00 -0.21791439043E+03  0.21791439043E+03  0.00000000000E+00 0.  1.
      99926    2    1    2    0    0  0.17763568394E-14 -0.17763568394E-14  0.23762680790E+02  0.45959146166E+03  0.45897673866E+03 0.  0.
      99925    2    3    3    0    0  0.11587842015E+02  0.44076624672E+01 -0.10145946725E+03  0.28216034818E+03  0.26299569012E+03 0.  0.
         25    1    4    4    0    0 -0.19612620562E+02 -0.29260049557E+02 -0.46475412068E+02  0.13801549700E+03  0.12509000000E+03 0.  0.
         25    1    4    4    0    0  0.31200462577E+02  0.33667712024E+02 -0.54984055180E+02  0.14414485118E+03  0.12509000000E+03 0.  0.
         25    1    3    3    0    0 -0.11587842015E+02 -0.44076624672E+01  0.12522214804E+03  0.17743111348E+03  0.12509000000E+03 0.  0.
<mgrwt>
<rscale>  2 0.45897674E+03</rscale>
<asrwt>0</asrwt>
<pdfrwt beam="1">  1       21 0.35540746E-01 0.45897674E+03</pdfrwt>
<pdfrwt beam="2">  1       21 0.32046234E-01 0.45897674E+03</pdfrwt>
<totfact> 0.66088746E+04</totfact>
</mgrwt>
</event>
<event>
 7    0  0.4775379E-002  0.4610735E+03  0.7546771E-02  0.1024470E+00
         21   -1    0    0  502  501  0.00000000000E+00  0.00000000000E+00  0.32329605754E+03  0.32329605754E+03  0.00000000000E+00 0. -1.
         21   -1    0    0  501  502 -0.00000000000E+00 -0.00000000000E+00 -0.16439174501E+03  0.16439174501E+03  0.00000000000E+00 0. -1.
      99926    2    1    2    0    0  0.00000000000E+00  0.00000000000E+00  0.15890431253E+03  0.48768780255E+03  0.46107354318E+03 0.  0.
      99925    2    3    3    0    0 -0.44033525741E+01  0.27759068569E+02  0.22141773035E+03  0.34505053214E+03  0.26314274266E+03 0.  0.
         25    1    4    4    0    0 -0.11308542922E+02  0.87582074849E+01  0.16179338014E+03  0.20501023218E+03  0.12509000000E+03 0.  0.
         25    1    3    3    0    0  0.44033525741E+01 -0.27759068569E+02 -0.62513417822E+02  0.14263727041E+03  0.12509000000E+03 0.  0.
         25    1    4    4    0    0  0.69051903481E+01  0.19000861084E+02  0.59624350210E+02  0.14004029996E+03  0.12509000000E+03 0.  0.
<mgrwt>
<rscale>  2 0.46107354E+03</rscale>
<asrwt>0</asrwt>
<pdfrwt beam="1">  1       21 0.47543538E-01 0.46107354E+03</pdfrwt>
<pdfrwt beam="2">  1       21 0.24175257E-01 0.46107354E+03</pdfrwt>
<totfact> 0.63049514E+04</totfact>
</mgrwt>
</event>
<event>
 7    0  0.4775379E-002  0.4282644E+03  0.7546771E-02  0.1034410E+00
         21   -1    0    0  502  501  0.00000000000E+00  0.00000000000E+00  0.12552372799E+03  0.12552372799E+03  0.00000000000E+00 0.  1.
         21   -1    0    0  501  502 -0.00000000000E+00 -0.00000000000E+00 -0.36529032247E+03  0.36529032247E+03  0.00000000000E+00 0.  1.
      99926    2    1    2    0    0  0.00000000000E+00  0.00000000000E+00 -0.23976659449E+03  0.49081405046E+03  0.42826441867E+03 0.  0.
      99925    2    3    3    0    0  0.65231154967E+02 -0.55413352879E+02 -0.15099372892E+03  0.31516134477E+03  0.26306239528E+03 0.  0.
         25    1    4    4    0    0  0.21454506540E+02 -0.35829943252E+01 -0.10748799187E+03  0.16635597433E+03  0.12509000000E+03 0.  0.
         25    1    3    3    0    0 -0.65231154967E+02  0.55413352879E+02 -0.88772865564E+02  0.17565270569E+03  0.12509000000E+03 0.  0.
         25    1    4    4    0    0  0.43776648427E+02 -0.51830358554E+02 -0.43505737049E+02  0.14880537044E+03  0.12509000000E+03 0.  0.
<mgrwt>
<rscale>  2 0.42826442E+03</rscale>
<asrwt>0</asrwt>
<pdfrwt beam="1">  1       21 0.18459372E-01 0.42826442E+03</pdfrwt>
<pdfrwt beam="2">  1       21 0.53719165E-01 0.42826442E+03</pdfrwt>
<totfact> 0.81982884E+04</totfact>
</mgrwt>
</event>
<event>
 7    0  0.4775379E-002  0.4520766E+03  0.7546771E-02  0.1027105E+00
         21   -1    0    0  502  501  0.00000000000E+00  0.00000000000E+00  0.20565521234E+03  0.20565521234E+03  0.00000000000E+00 0.  1.
         21   -1    0    0  501  502 -0.00000000000E+00 -0.00000000000E+00 -0.24844156196E+03  0.24844156196E+03  0.00000000000E+00 0.  1.
      99926    2    1    2    0    0  0.00000000000E+00 -0.18873791419E-14 -0.42786349619E+02  0.45409677431E+03  0.45207655184E+03 0.  0.
      99925    2    3    3    0    0 -0.82901640479E+02 -0.73996090631E+00  0.45471359940E+02  0.27999863838E+03  0.26354954636E+03 0.  0.
         25    1    3    3    0    0  0.82901640479E+02  0.73996090631E+00 -0.88257709559E+02  0.17409813593E+03  0.12509000000E+03 0.  0.
         25    1    4    4    0    0 -0.44666101321E+02 -0.33683092709E+02  0.47694088931E+02  0.14509254137E+03  0.12509000000E+03 0.  0.
         25    1    4    4    0    0 -0.38235539158E+02  0.32943131802E+02 -0.22227289915E+01  0.13490609701E+03  0.12509000000E+03 0.  0.
<mgrwt>
<rscale>  2 0.45207655E+03</rscale>
<asrwt>0</asrwt>
<pdfrwt beam="1">  1       21 0.30243414E-01 0.45207655E+03</pdfrwt>
<pdfrwt beam="2">  1       21 0.36535523E-01 0.45207655E+03</pdfrwt>
<totfact> 0.70236036E+04</totfact>
</mgrwt>
</event>
<event>
 7    0  0.4775379E-002  0.4789905E+03  0.7546771E-02  0.1019413E+00
         21   -1    0    0  502  501  0.00000000000E+00  0.00000000000E+00  0.51425777869E+02  0.51425777869E+02  0.00000000000E+00 0. -1.
         21   -1    0    0  501  502 -0.00000000000E+00 -0.00000000000E+00 -0.11153546504E+04  0.11153546504E+04  0.00000000000E+00 0. -1.
      99926    2    1    2    0    0 -0.14210854715E-13  0.35527136788E-14 -0.10639288725E+04  0.11667804282E+04  0.47899052389E+03 0.  0.
      99925    2    3    3    0    0 -0.11807293940E+03  0.80720215666E+01 -0.50060906565E+03  0.57772772309E+03  0.26297054753E+03 0.  0.
         25    1    4    4    0    0 -0.72357783907E+02 -0.34416681821E+02 -0.25391343559E+03  0.29417630386E+03  0.12509000000E+03 0.  0.
         25    1    3    3    0    0  0.11807293940E+03 -0.80720215666E+01 -0.56331980685E+03  0.58905270515E+03  0.12509000000E+03 0.  0.
         25    1    4    4    0    0 -0.45715155492E+02  0.42488703388E+02 -0.24669563006E+03  0.28355141923E+03  0.12509000000E+03 0.  0.
<mgrwt>
<rscale>  2 0.47899052E+03</rscale>
<asrwt>0</asrwt>
<pdfrwt beam="1">  1       21 0.75626143E-02 0.47899052E+03</pdfrwt>
<pdfrwt beam="2">  1       21 0.16402274E+00 0.47899052E+03</pdfrwt>
<totfact> 0.27678981E+04</totfact>
</mgrwt>
</event>
<event>
 7    0  0.4775379E-002  0.4527939E+03  0.7546771E-02  0.1026892E+00
         21   -1    0    0  502  501  0.00000000000E+00  0.00000000000E+00  0.82235475834E+03  0.82235475834E+03  0.00000000000E+00 0.  1.
         21   -1    0    0  501  502 -0.00000000000E+00 -0.00000000000E+00 -0.62327812998E+02  0.62327812998E+02  0.00000000000E+00 0.  1.
      99926    2    1    2    0    0  0.00000000000E+00  0.17763568394E-14  0.76002694534E+03  0.88468257134E+03  0.45279387626E+03 0.  0.
      99925    2    3    3    0    0 -0.78724099977E+02 -0.12727338631E+02  0.32845200436E+03  0.42832316599E+03  0.26309797850E+03 0.  0.
         25    1    3    3    0    0  0.78724099977E+02  0.12727338631E+02  0.43157494098E+03  0.45635940535E+03  0.12509000000E+03 0.  0.
         25    1    4    4    0    0 -0.18907271086E+02 -0.40583743459E+02  0.14463253105E+03  0.19639399754E+03  0.12509000000E+03 0.  0.
         25    1    4    4    0    0 -0.59816828891E+02  0.27856404828E+02  0.18381947331E+03  0.23192916845E+03  0.12509000000E+03 0.  0.
<mgrwt>
<rscale>  2 0.45279388E+03</rscale>
<asrwt>0</asrwt>
<pdfrwt beam="1">  1       21 0.12093452E+00 0.45279388E+03</pdfrwt>
<pdfrwt beam="2">  1       21 0.91658553E-02 0.45279388E+03</pdfrwt>
<totfact> 0.44669362E+04</totfact>
</mgrwt>
</event>
<event>
 7    0  0.4775379E-002  0.4512875E+03  0.7546771E-02  0.1027339E+00
         21   -1    0    0  502  501  0.00000000000E+00  0.00000000000E+00  0.14891158994E+03  0.14891158994E+03  0.00000000000E+00 0.  1.
         21   -1    0    0  501  502 -0.00000000000E+00 -0.00000000000E+00 -0.34191499145E+03  0.34191499145E+03  0.00000000000E+00 0.  1.
      99926    2    1    2    0    0  0.00000000000E+00 -0.71054273576E-14 -0.19300340151E+03  0.49082658139E+03  0.45128751368E+03 0.  0.
      99925    2    3    3    0    0  0.61332999842E+02 -0.32551728905E+02 -0.29594167854E+02  0.27363671591E+03  0.26302069424E+03 0.  0.
         25    1    3    3    0    0 -0.61332999842E+02  0.32551728905E+02 -0.16340923365E+03  0.21718986548E+03  0.12509000000E+03 0.  0.
         25    1    4    4    0    0  0.21274847569E+02 -0.55205774928E+02 -0.79480287241E+01  0.13860366512E+03  0.12509000000E+03 0.  0.
         25    1    4    4    0    0  0.40058152273E+02  0.22654046024E+02 -0.21646139130E+02  0.13503305078E+03  0.12509000000E+03 0.  0.
<mgrwt>
<rscale>  2 0.45128751E+03</rscale>
<asrwt>0</asrwt>
<pdfrwt beam="1">  1       21 0.21898764E-01 0.45128751E+03</pdfrwt>
<pdfrwt beam="2">  1       21 0.50281615E-01 0.45128751E+03</pdfrwt>
<totfact> 0.67899222E+04</totfact>
</mgrwt>
</event>
<event>
 7    0  0.4775379E-002  0.4372214E+03  0.7546771E-02  0.1031603E+00
         21   -1    0    0  502  501  0.00000000000E+00  0.00000000000E+00  0.47064411754E+02  0.47064411754E+02  0.00000000000E+00 0. -1.
         21   -1    0    0  501  502 -0.00000000000E+00 -0.00000000000E+00 -0.10154306914E+04  0.10154306914E+04  0.00000000000E+00 0. -1.
      99926    2    1    2    0    0  0.00000000000E+00  0.00000000000E+00 -0.96836627963E+03  0.10624951031E+04  0.43722144580E+03 0.  0.
      99925    2    3    3    0    0 -0.50647425155E+02 -0.79769671654E+02 -0.65309537666E+03  0.71039907568E+03  0.26306826780E+03 0.  0.
         25    1    3    3    0    0  0.50647425155E+02  0.79769671654E+02 -0.31527090297E+03  0.35209602746E+03  0.12509000000E+03 0.  0.
         25    1    4    4    0    0 -0.18042019623E+02 -0.88781449121E+01 -0.23353055541E+03  0.26568470852E+03  0.12509000000E+03 0.  0.
         25    1    4    4    0    0 -0.32605405532E+02 -0.70891526741E+02 -0.41956482124E+03  0.44471436716E+03  0.12509000000E+03 0.  0.
<mgrwt>
<rscale>  2 0.43722145E+03</rscale>
<asrwt>0</asrwt>
<pdfrwt beam="1">  1       21 0.69212365E-02 0.43722145E+03</pdfrwt>
<pdfrwt beam="2">  1       21 0.14932805E+00 0.43722145E+03</pdfrwt>
<totfact> 0.42407595E+04</totfact>
</mgrwt>
</event>
<event>
 7    0  0.4775379E-002  0.4549034E+03  0.7546771E-02  0.1026270E+00
         21   -1    0    0  502  501  0.00000000000E+00  0.00000000000E+00  0.14652583313E+03  0.14652583313E+03  0.00000000000E+00 0.  1.
         21   -1    0    0  501  502 -0.00000000000E+00 -0.00000000000E+00 -0.35307278006E+03  0.35307278006E+03  0.00000000000E+00 0.  1.
      99926    2    1    2    0    0  0.00000000000E+00  0.00000000000E+00 -0.20654694693E+03  0.49959861319E+03  0.45490343262E+03 0.  0.
      99925    2    3    3    0    0  0.35097993321E+01 -0.81376160779E+02 -0.44053121876E+02  0.27894923178E+03  0.26313038238E+03 0.  0.
         25    1    4    4    0    0 -0.28841141832E+01 -0.39460199503E+02 -0.62958666333E+02  0.14552225681E+03  0.12509000000E+03 0.  0.
         25    1    4    4    0    0  0.63939135153E+01 -0.41915961276E+02  0.18905544457E+02  0.13342697497E+03  0.12509000000E+03 0.  0.
         25    1    3    3    0    0 -0.35097993321E+01  0.81376160779E+02 -0.16249382506E+03  0.22064938141E+03  0.12509000000E+03 0.  0.
<mgrwt>
<rscale>  2 0.45490343E+03</rscale>
<asrwt>0</asrwt>
<pdfrwt beam="1">  1       21 0.21547917E-01 0.45490343E+03</pdfrwt>
<pdfrwt beam="2">  1       21 0.51922467E-01 0.45490343E+03</pdfrwt>
<totfact> 0.65348948E+04</totfact>
</mgrwt>
</event>
<event>
 7    0  0.4775379E-002  0.4616806E+03  0.7546771E-02  0.1024295E+00
         21   -1    0    0  502  501  0.00000000000E+00  0.00000000000E+00  0.47240610036E+03  0.47240610036E+03  0.00000000000E+00 0. -1.
         21   -1    0    0  501  502 -0.00000000000E+00 -0.00000000000E+00 -0.11279965819E+03  0.11279965819E+03  0.00000000000E+00 0. -1.
      99926    2    1    2    0    0  0.14210854715E-13  0.35527136788E-14  0.35960644217E+03  0.58520575855E+03  0.46168061102E+03 0.  0.
      99925    2    3    3    0    0  0.11667894137E+03 -0.19528880630E+02  0.20538801688E+03  0.35406471214E+03  0.26302515158E+03 0.  0.
         25    1    3    3    0    0 -0.11667894137E+03  0.19528880630E+02  0.15421842529E+03  0.23114104641E+03  0.12509000000E+03 0.  0.
         25    1    4    4    0    0  0.45781714959E+02  0.20523790651E+02  0.12827830316E+03  0.18606456559E+03  0.12509000000E+03 0.  0.
         25    1    4    4    0    0  0.70897226415E+02 -0.40052671281E+02  0.77109713724E+02  0.16800014655E+03  0.12509000000E+03 0.  0.
<mgrwt>
<rscale>  2 0.46168061E+03</rscale>
<asrwt>0</asrwt>
<pdfrwt beam="1">  1       21 0.69471484E-01 0.46168061E+03</pdfrwt>
<pdfrwt beam="2">  1       21 0.16588185E-01 0.46168061E+03</pdfrwt>
<totfact> 0.56552116E+04</totfact>
</mgrwt>
</event>
<event>
 7    0  0.4775379E-002  0.4539470E+03  0.7546771E-02  0.1026552E+00
         21   -1    0    0  502  501  0.00000000000E+00  0.00000000000E+00  0.14481742686E+03  0.14481742686E+03  0.00000000000E+00 0. -1.
         21   -1    0    0  501  502 -0.00000000000E+00 -0.00000000000E+00 -0.35573737935E+03  0.35573737935E+03  0.00000000000E+00 0. -1.
      99926    2    1    2    0    0  0.00000000000E+00  0.00000000000E+00 -0.21091995249E+03  0.50055480622E+03  0.45394700976E+03 0.  0.
      99925    2    3    3    0    0 -0.93696176109E+02 -0.56932375643E+02 -0.16160622836E+03  0.32706238477E+03  0.26236036604E+03 0.  0.
         25    1    3    3    0    0  0.93696176109E+02  0.56932375643E+02 -0.49313724128E+02  0.17349242145E+03  0.12509000000E+03 0.  0.
         25    1    4    4    0    0 -0.22923834573E+02 -0.48326704890E+02 -0.50193242892E+02  0.14500980080E+03  0.12509000000E+03 0.  0.
         25    1    4    4    0    0 -0.70772341536E+02 -0.86056707532E+01 -0.11141298547E+03  0.18205258396E+03  0.12509000000E+03 0.  0.
<mgrwt>
<rscale>  2 0.45394701E+03</rscale>
<asrwt>0</asrwt>
<pdfrwt beam="1">  1       21 0.21296681E-01 0.45394701E+03</pdfrwt>
<pdfrwt beam="2">  1       21 0.52314319E-01 0.45394701E+03</pdfrwt>
<totfact> 0.65779808E+04</totfact>
</mgrwt>
</event>
<event>
 7    0  0.4775379E-002  0.4547598E+03  0.7546771E-02  0.1026312E+00
         21   -1    0    0  502  501  0.00000000000E+00  0.00000000000E+00  0.29214679532E+03  0.29214679532E+03  0.00000000000E+00 0.  1.
         21   -1    0    0  501  502 -0.00000000000E+00 -0.00000000000E+00 -0.17697133350E+03  0.17697133350E+03  0.00000000000E+00 0.  1.
      99926    2    1    2    0    0 -0.71054273576E-14  0.00000000000E+00  0.11517546182E+03  0.46911812882E+03  0.45475975172E+03 0.  0.
      99925    2    3    3    0    0  0.48165914259E+02  0.69805556456E+02  0.15002513880E+03  0.31402209698E+03  0.26250631251E+03 0.  0.
         25    1    4    4    0    0  0.47237637400E+02  0.49772094403E+02  0.11309356959E+03  0.18206130657E+03  0.12509000000E+03 0.  0.
         25    1    3    3    0    0 -0.48165914259E+02 -0.69805556456E+02 -0.34849676974E+02  0.15509603184E+03  0.12509000000E+03 0.  0.
         25    1    4    4    0    0  0.92827685906E+00  0.20033462053E+02  0.36931569209E+02  0.13196079040E+03  0.12509000000E+03 0.  0.
<mgrwt>
<rscale>  2 0.45475975E+03</rscale>
<asrwt>0</asrwt>
<pdfrwt beam="1">  1       21 0.42962764E-01 0.45475975E+03</pdfrwt>
<pdfrwt beam="2">  1       21 0.26025196E-01 0.45475975E+03</pdfrwt>
<totfact> 0.67630183E+04</totfact>
</mgrwt>
</event>
<event>
 7    0  0.4775379E-002  0.4610240E+03  0.7546771E-02  0.1024485E+00
         21   -1    0    0  502  501  0.00000000000E+00  0.00000000000E+00  0.13467069659E+03  0.13467069659E+03  0.00000000000E+00 0. -1.
         21   -1    0    0  501  502 -0.00000000000E+00 -0.00000000000E+00 -0.39456079596E+03  0.39456079596E+03  0.00000000000E+00 0. -1.
      99926    2    1    2    0    0  0.00000000000E+00  0.00000000000E+00 -0.25989009937E+03  0.52923149255E+03  0.46102397872E+03 0.  0.
      99925    2    3    3    0    0  0.37762109962E+02  0.28251079518E+02 -0.37665009509E+02  0.26989464768E+03  0.26305962720E+03 0.  0.
         25    1    4    4    0    0  0.50339325677E+02  0.38385647137E+02 -0.85956433410E+01  0.14045959846E+03  0.12509000000E+03 0.  0.
         25    1    4    4    0    0 -0.12577215715E+02 -0.10134567619E+02 -0.29069366168E+02  0.12943504922E+03  0.12509000000E+03 0.  0.
         25    1    3    3    0    0 -0.37762109962E+02 -0.28251079518E+02 -0.22222508986E+03  0.25933684487E+03  0.12509000000E+03 0.  0.
<mgrwt>
<rscale>  2 0.46102398E+03</rscale>
<asrwt>0</asrwt>
<pdfrwt beam="1">  1       21 0.19804514E-01 0.46102398E+03</pdfrwt>
<pdfrwt beam="2">  1       21 0.58023646E-01 0.46102398E+03</pdfrwt>
<totfact> 0.60325987E+04</totfact>
</mgrwt>
</event>
<event>
 7    0  0.4775379E-002  0.4682951E+03  0.7546771E-02  0.1022403E+00
         21   -1    0    0  502  501  0.00000000000E+00  0.00000000000E+00  0.29167945566E+02  0.29167945566E+02  0.00000000000E+00 0. -1.
         21   -1    0    0  501  502 -0.00000000000E+00 -0.00000000000E+00 -0.18796342399E+04  0.18796342399E+04  0.00000000000E+00 0. -1.
      99926    2    1    2    0    0  0.00000000000E+00  0.00000000000E+00 -0.18504662943E+04  0.19088021854E+04  0.46829507447E+03 0.  0.
      99925    2    3    3    0    0 -0.60795522092E+02 -0.47912176118E+02 -0.75056155569E+03  0.79910420209E+03  0.26312203402E+03 0.  0.
         25    1    4    4    0    0 -0.28208807988E+02 -0.41921650131E+01 -0.46877969737E+03  0.48601977723E+03  0.12509000000E+03 0.  0.
         25    1    3    3    0    0  0.60795522092E+02  0.47912176118E+02 -0.10999047386E+04  0.11096979834E+04  0.12509000000E+03 0.  0.
         25    1    4    4    0    0 -0.32586714104E+02 -0.43720011105E+02 -0.28178185832E+03  0.31308442486E+03  0.12509000000E+03 0.  0.
<mgrwt>
<rscale>  2 0.46829507E+03</rscale>
<asrwt>0</asrwt>
<pdfrwt beam="1">  1       21 0.42894038E-02 0.46829507E+03</pdfrwt>
<pdfrwt beam="2">  1       21 0.27641679E+00 0.46829507E+03</pdfrwt>
<totfact> 0.13778793E+04</totfact>
</mgrwt>
</event>
<event>
 7    0  0.4775379E-002  0.4487602E+03  0.7546771E-02  0.1028092E+00
         21   -1    0    0  502  501  0.00000000000E+00  0.00000000000E+00  0.65778073378E+03  0.65778073378E+03  0.00000000000E+00 0. -1.
         21   -1    0    0  501  502 -0.00000000000E+00 -0.00000000000E+00 -0.76539819331E+02  0.76539819331E+02  0.00000000000E+00 0. -1.
      99926    2    1    2    0    0  0.00000000000E+00 -0.14210854715E-13  0.58124091445E+03  0.73432055311E+03  0.44876015208E+03 0.  0.
      99925    2    3    3    0    0 -0.61544955465E+02 -0.87440458316E+02  0.38152321176E+03  0.47553824274E+03  0.26295064918E+03 0.  0.
         25    1    4    4    0    0 -0.54898337638E+02 -0.63239832978E+02  0.25330441242E+03  0.29465867949E+03  0.12509000000E+03 0.  0.
         25    1    3    3    0    0  0.61544955465E+02  0.87440458316E+02  0.19971770269E+03  0.25878231037E+03  0.12509000000E+03 0.  0.
         25    1    4    4    0    0 -0.66466178265E+01 -0.24200625338E+02  0.12821879934E+03  0.18087956324E+03  0.12509000000E+03 0.  0.
<mgrwt>
<rscale>  2 0.44876015E+03</rscale>
<asrwt>0</asrwt>
<pdfrwt beam="1">  1       21 0.96732458E-01 0.44876015E+03</pdfrwt>
<pdfrwt beam="2">  1       21 0.11255856E-01 0.44876015E+03</pdfrwt>
<totfact> 0.53663635E+04</totfact>
</mgrwt>
</event>
<event>
 7    0  0.4775379E-002  0.4672442E+03  0.7546771E-02  0.1022701E+00
         21   -1    0    0  502  501  0.00000000000E+00  0.00000000000E+00  0.58222679301E+02  0.58222679301E+02  0.00000000000E+00 0.  1.
         21   -1    0    0  501  502 -0.00000000000E+00 -0.00000000000E+00 -0.93742327893E+03  0.93742327893E+03  0.00000000000E+00 0.  1.
      99926    2    1    2    0    0  0.00000000000E+00  0.00000000000E+00 -0.87920059962E+03  0.99564595823E+03  0.46724423994E+03 0.  0.
      99925    2    3    3    0    0 -0.64792121552E+02 -0.96117942685E+02 -0.64375536276E+03  0.70492505154E+03  0.26279589664E+03 0.  0.
         25    1    4    4    0    0 -0.39460679897E+01 -0.24269606778E+02 -0.34167439618E+03  0.36468272014E+03  0.12509000000E+03 0.  0.
         25    1    4    4    0    0 -0.60846053562E+02 -0.71848335907E+02 -0.30208096658E+03  0.34024233140E+03  0.12509000000E+03 0.  0.
         25    1    3    3    0    0  0.64792121552E+02  0.96117942685E+02 -0.23544523686E+03  0.29072090668E+03  0.12509000000E+03 0.  0.
<mgrwt>
<rscale>  2 0.46724424E+03</rscale>
<asrwt>0</asrwt>
<pdfrwt beam="1">  1       21 0.85621585E-02 0.46724424E+03</pdfrwt>
<pdfrwt beam="2">  1       21 0.13785637E+00 0.46724424E+03</pdfrwt>
<totfact> 0.35789426E+04</totfact>
</mgrwt>
</event>
<event>
 7    0  0.4775379E-002  0.4476912E+03  0.7546771E-02  0.1028413E+00
         21   -1    0    0  502  501  0.00000000000E+00  0.00000000000E+00  0.48310753433E+02  0.48310753433E+02  0.00000000000E+00 0.  1.
         21   -1    0    0  501  502 -0.00000000000E+00 -0.00000000000E+00 -0.10371778272E+04  0.10371778272E+04  0.00000000000E+00 0.  1.
      99926    2    1    2    0    0  0.00000000000E+00 -0.35527136788E-14 -0.98886707374E+03  0.10854885806E+04  0.44769115370E+03 0.  0.
      99925    2    3    3    0    0  0.82222662631E+02  0.22570796905E+02 -0.77968950017E+03  0.82727786722E+03  0.26306452781E+03 0.  0.
         25    1    3    3    0    0 -0.82222662631E+02 -0.22570796905E+02 -0.20917757356E+03  0.25821071338E+03  0.12509000000E+03 0.  0.
         25    1    4    4    0    0  0.55810620832E+02  0.46158271866E+02 -0.45963232455E+03  0.48182444244E+03  0.12509000000E+03 0.  0.
         25    1    4    4    0    0  0.26412041799E+02 -0.23587474961E+02 -0.32005717562E+03  0.34545342478E+03  0.12509000000E+03 0.  0.
<mgrwt>
<rscale>  2 0.44769115E+03</rscale>
<asrwt>0</asrwt>
<pdfrwt beam="1">  1       21 0.71045222E-02 0.44769115E+03</pdfrwt>
<pdfrwt beam="2">  1       21 0.15252616E+00 0.44769115E+03</pdfrwt>
<totfact> 0.38129905E+04</totfact>
</mgrwt>
</event>
<event>
 7    0  0.4775379E-002  0.4538153E+03  0.7546771E-02  0.1026590E+00
         21   -1    0    0  502  501  0.00000000000E+00  0.00000000000E+00  0.23615501854E+03  0.23615501854E+03  0.00000000000E+00 0. -1.
         21   -1    0    0  501  502 -0.00000000000E+00 -0.00000000000E+00 -0.21802235111E+03  0.21802235111E+03  0.00000000000E+00 0. -1.
      99926    2    1    2    0    0 -0.35527136788E-14  0.00000000000E+00  0.18132667429E+02  0.45417736965E+03  0.45381525919E+03 0.  0.
      99925    2    3    3    0    0  0.28189175491E+02  0.83228851274E+02 -0.58143917087E+02  0.28333446887E+03  0.26301337392E+03 0.  0.
         25    1    4    4    0    0  0.20640348142E+02  0.68358039303E+01 -0.49631132238E+02  0.13632134673E+03  0.12509000000E+03 0.  0.
         25    1    3    3    0    0 -0.28189175491E+02 -0.83228851274E+02  0.76276584516E+02  0.17084290077E+03  0.12509000000E+03 0.  0.
         25    1    4    4    0    0  0.75488273490E+01  0.76393047343E+02 -0.85127848495E+01  0.14701312214E+03  0.12509000000E+03 0.  0.
<mgrwt>
<rscale>  2 0.45381526E+03</rscale>
<asrwt>0</asrwt>
<pdfrwt beam="1">  1       21 0.34728679E-01 0.45381526E+03</pdfrwt>
<pdfrwt beam="2">  1       21 0.32062110E-01 0.45381526E+03</pdfrwt>
<totfact> 0.69258502E+04</totfact>
</mgrwt>
</event>
<event>
 7    0  0.4775379E-002  0.4620351E+03  0.7546771E-02  0.1024193E+00
         21   -1    0    0  502  501  0.00000000000E+00  0.00000000000E+00  0.16466778977E+03  0.16466778977E+03  0.00000000000E+00 0.  1.
         21   -1    0    0  501  502 -0.00000000000E+00 -0.00000000000E+00 -0.32410164253E+03  0.32410164253E+03  0.00000000000E+00 0.  1.
      99926    2    1    2    0    0  0.00000000000E+00  0.00000000000E+00 -0.15943385276E+03  0.48876943231E+03  0.46203506853E+03 0.  0.
      99925    2    3    3    0    0 -0.24665436636E+02 -0.11099047494E+03 -0.60371060358E+02  0.29284032719E+03  0.26302760883E+03 0.  0.
         25    1    3    3    0    0  0.24665436636E+02  0.11099047494E+03 -0.99062792403E+02  0.19592910512E+03  0.12509000000E+03 0.  0.
         25    1    4    4    0    0 -0.13772510660E+02 -0.98257572686E+02 -0.43721916119E+02  0.16553956231E+03  0.12509000000E+03 0.  0.
         25    1    4    4    0    0 -0.10892925976E+02 -0.12732902259E+02 -0.16649144239E+02  0.12730076488E+03  0.12509000000E+03 0.  0.
<mgrwt>
<rscale>  2 0.46203507E+03</rscale>
<asrwt>0</asrwt>
<pdfrwt beam="1">  1       21 0.24215852E-01 0.46203507E+03</pdfrwt>
<pdfrwt beam="2">  1       21 0.47662006E-01 0.46203507E+03</pdfrwt>
<totfact> 0.62502908E+04</totfact>
</mgrwt>
</event>
<event>
 7    0  0.4775379E-002  0.4592721E+03  0.7546771E-02  0.1024993E+00
         21   -1    0    0  502  501  0.00000000000E+00  0.00000000000E+00  0.33961817658E+03  0.33961817658E+03  0.00000000000E+00 0. -1.
         21   -1    0    0  501  502 -0.00000000000E+00 -0.00000000000E+00 -0.15527057715E+03  0.15527057715E+03  0.00000000000E+00 0. -1.
      99926    2    1    2    0    0  0.00000000000E+00  0.00000000000E+00  0.18434759942E+03  0.49488875373E+03  0.45927207749E+03 0.  0.
      99925    2    3    3    0    0  0.10061040471E+03 -0.45564407156E+02  0.72823795545E+02  0.29418091715E+03  0.26275566232E+03 0.  0.
         25    1    3    3    0    0 -0.10061040471E+03  0.45564407156E+02  0.11152380388E+03  0.20070783659E+03  0.12509000000E+03 0.  0.
         25    1    4    4    0    0  0.87127470034E+02 -0.43217303294E+01  0.34736506834E+02  0.15640973881E+03  0.12509000000E+03 0.  0.
         25    1    4    4    0    0  0.13482934674E+02 -0.41242676827E+02  0.38087288711E+02  0.13777117834E+03  0.12509000000E+03 0.  0.
<mgrwt>
<rscale>  2 0.45927208E+03</rscale>
<asrwt>0</asrwt>
<pdfrwt beam="1">  1       21 0.49943850E-01 0.45927208E+03</pdfrwt>
<pdfrwt beam="2">  1       21 0.22833908E-01 0.45927208E+03</pdfrwt>
<totfact> 0.63451854E+04</totfact>
</mgrwt>
</event>
<event>
 7    0  0.4775379E-002  0.4651192E+03  0.7546771E-02  0.1023307E+00
         21   -1    0    0  502  501  0.00000000000E+00  0.00000000000E+00  0.21150154701E+04  0.21150154701E+04  0.00000000000E+00 0.  1.
         21   -1    0    0  501  502 -0.00000000000E+00 -0.00000000000E+00 -0.25571430408E+02  0.25571430408E+02  0.00000000000E+00 0.  1.
      99926    2    1    2    0    0  0.00000000000E+00  0.00000000000E+00  0.20894440397E+04  0.21405869005E+04  0.46511921442E+03 0.  0.
      99925    2    3    3    0    0 -0.80515264303E+02  0.79011636814E+02  0.10845987863E+04  0.11217213363E+04  0.26301840726E+03 0.  0.
         25    1    4    4    0    0 -0.60254665343E+02  0.76033620539E+02  0.65138993004E+03  0.67034922631E+03  0.12509000000E+03 0.  0.
         25    1    4    4    0    0 -0.20260598960E+02  0.29780162755E+01  0.43320885623E+03  0.45137210998E+03  0.12509000000E+03 0.  0.
         25    1    3    3    0    0  0.80515264303E+02 -0.79011636814E+02  0.10048452534E+04  0.10188655642E+04  0.12509000000E+03 0.  0.
<mgrwt>
<rscale>  2 0.46511921E+03</rscale>
<asrwt>0</asrwt>
<pdfrwt beam="1">  1       21 0.31103157E+00 0.46511921E+03</pdfrwt>
<pdfrwt beam="2">  1       21 0.37605059E-02 0.46511921E+03</pdfrwt>
<totfact> 0.10682918E+04</totfact>
</mgrwt>
</event>
<event>
 7    0  0.4775379E-002  0.4497934E+03  0.7546771E-02  0.1027784E+00
         21   -1    0    0  502  501  0.00000000000E+00  0.00000000000E+00  0.23839562386E+03  0.23839562386E+03  0.00000000000E+00 0. -1.
         21   -1    0    0  501  502 -0.00000000000E+00 -0.00000000000E+00 -0.21216214333E+03  0.21216214333E+03  0.00000000000E+00 0. -1.
      99926    2    1    2    0    0 -0.17763568394E-14 -0.35527136788E-14  0.26233480527E+02  0.45055776719E+03  0.44979340377E+03 0.  0.
      99925    2    3    3    0    0  0.10453978295E+02 -0.31094136642E+02 -0.85516652111E+02  0.27964336978E+03  0.26421806426E+03 0.  0.
         25    1    3    3    0    0 -0.10453978295E+02  0.31094136642E+02  0.11175013264E+03  0.17091439740E+03  0.12509000000E+03 0.  0.
         25    1    4    4    0    0  0.44840860462E+02 -0.28345890302E+02 -0.34254693060E+02  0.14012524527E+03  0.12509000000E+03 0.  0.
         25    1    4    4    0    0 -0.34386882167E+02 -0.27482463400E+01 -0.51261959051E+02  0.13951812452E+03  0.12509000000E+03 0.  0.
<mgrwt>
<rscale>  2 0.44979340E+03</rscale>
<asrwt>0</asrwt>
<pdfrwt beam="1">  1       21 0.35058180E-01 0.44979340E+03</pdfrwt>
<pdfrwt beam="2">  1       21 0.31200315E-01 0.44979340E+03</pdfrwt>
<totfact> 0.71809598E+04</totfact>
</mgrwt>
</event>
<event>
 7    0  0.4775379E-002  0.4529170E+03  0.7546771E-02  0.1026856E+00
         21   -1    0    0  502  501  0.00000000000E+00  0.00000000000E+00  0.13801601003E+03  0.13801601003E+03  0.00000000000E+00 0. -1.
         21   -1    0    0  501  502 -0.00000000000E+00 -0.00000000000E+00 -0.37157615766E+03  0.37157615766E+03  0.00000000000E+00 0. -1.
      99926    2    1    2    0    0  0.00000000000E+00 -0.17763568394E-14 -0.23356014762E+03  0.50959216769E+03  0.45291702862E+03 0.  0.
      99925    2    3    3    0    0 -0.76449303408E+02  0.15851295798E+02 -0.57891203933E+02  0.28023906558E+03  0.26284364709E+03 0.  0.
         25    1    3    3    0    0  0.76449303408E+02 -0.15851295798E+02 -0.17566894369E+03  0.22935310211E+03  0.12509000000E+03 0.  0.
         25    1    4    4    0    0 -0.39957266303E+02 -0.87904240659E+01  0.85972386487E+01  0.13189114943E+03  0.12509000000E+03 0.  0.
         25    1    4    4    0    0 -0.36492037106E+02  0.24641719864E+02 -0.66488442582E+02  0.14834791615E+03  0.12509000000E+03 0.  0.
<mgrwt>
<rscale>  2 0.45291703E+03</rscale>
<asrwt>0</asrwt>
<pdfrwt beam="1">  1       21 0.20296472E-01 0.45291703E+03</pdfrwt>
<pdfrwt beam="2">  1       21 0.54643552E-01 0.45291703E+03</pdfrwt>
<totfact> 0.65680954E+04</totfact>
</mgrwt>
</event>
<event>
 7    0  0.4775379E-002  0.4522750E+03  0.7546771E-02  0.1027046E+00
         21   -1    0    0  502  501  0.00000000000E+00  0.00000000000E+00  0.20396954635E+04  0.20396954635E+04  0.00000000000E+00 0.  1.
         21   -1    0    0  501  502 -0.00000000000E+00 -0.00000000000E+00 -0.25071473210E+02  0.25071473210E+02  0.00000000000E+00 0.  1.
      99926    2    1    2    0    0  0.00000000000E+00  0.00000000000E+00  0.20146239903E+04  0.20647669367E+04  0.45227500559E+03 0.  0.
      99925    2    3    3    0    0 -0.91691328578E+02 -0.55438801873E+02  0.13946429399E+04  0.14232805601E+04  0.26309287776E+03 0.  0.
         25    1    4    4    0    0 -0.48414698203E+02 -0.73288819858E+01  0.50510756758E+03  0.52266514944E+03  0.12509000000E+03 0.  0.
         25    1    4    4    0    0 -0.43276630375E+02 -0.48109919887E+02  0.88953537236E+03  0.90061541065E+03  0.12509000000E+03 0.  0.
         25    1    3    3    0    0  0.91691328578E+02  0.55438801873E+02  0.61998105035E+03  0.64148637661E+03  0.12509000000E+03 0.  0.
<mgrwt>
<rscale>  2 0.45227501E+03</rscale>
<asrwt>0</asrwt>
<pdfrwt beam="1">  1       21 0.29995510E+00 0.45227501E+03</pdfrwt>
<pdfrwt beam="2">  1       21 0.36869828E-02 0.45227501E+03</pdfrwt>
<totfact> 0.12952957E+04</totfact>
</mgrwt>
</event>
<event>
 7    0  0.4775379E-002  0.4505474E+03  0.7546771E-02  0.1027559E+00
         21   -1    0    0  502  501  0.00000000000E+00  0.00000000000E+00  0.77069217871E+03  0.77069217871E+03  0.00000000000E+00 0.  1.
         21   -1    0    0  501  502 -0.00000000000E+00 -0.00000000000E+00 -0.65847612186E+02  0.65847612186E+02  0.00000000000E+00 0.  1.
      99926    2    1    2    0    0  0.00000000000E+00  0.00000000000E+00  0.70484456653E+03  0.83653979090E+03  0.45054739906E+03 0.  0.
      99925    2    3    3    0    0 -0.54311775617E+02  0.77668828083E+02  0.34750009404E+03  0.44625169738E+03  0.26344268111E+03 0.  0.
         25    1    3    3    0    0  0.54311775617E+02 -0.77668828083E+02  0.35734447249E+03  0.39028809352E+03  0.12509000000E+03 0.  0.
         25    1    4    4    0    0 -0.58239285555E+02  0.43569968659E+02  0.13868353777E+03  0.20042651596E+03  0.12509000000E+03 0.  0.
         25    1    4    4    0    0  0.39275099385E+01  0.34098859424E+02  0.20881655626E+03  0.24582518142E+03  0.12509000000E+03 0.  0.
<mgrwt>
<rscale>  2 0.45054740E+03</rscale>
<asrwt>0</asrwt>
<pdfrwt beam="1">  1       21 0.11333708E+00 0.45054740E+03</pdfrwt>
<pdfrwt beam="2">  1       21 0.96834728E-02 0.45054740E+03</pdfrwt>
<totfact> 0.47691968E+04</totfact>
</mgrwt>
</event>
<event>
 7    0  0.4775379E-002  0.4684728E+03  0.7546771E-02  0.1022352E+00
         21   -1    0    0  502  501  0.00000000000E+00  0.00000000000E+00  0.57180513199E+03  0.57180513199E+03  0.00000000000E+00 0.  1.
         21   -1    0    0  501  502 -0.00000000000E+00 -0.00000000000E+00 -0.95953467816E+02  0.95953467816E+02  0.00000000000E+00 0.  1.
      99926    2    1    2    0    0 -0.44408920985E-15  0.00000000000E+00  0.47585166418E+03  0.66775859981E+03  0.46847277543E+03 0.  0.
      99925    2    3    3    0    0 -0.28037868666E+01  0.10526227720E+03  0.39293141063E+03  0.48442479286E+03  0.26302904451E+03 0.  0.
         25    1    3    3    0    0  0.28037868666E+01 -0.10526227720E+03  0.82920253548E+02  0.18333380695E+03  0.12509000000E+03 0.  0.
         25    1    4    4    0    0  0.19064398885E+02  0.16083224625E+02  0.19301068789E+03  0.23134985446E+03  0.12509000000E+03 0.  0.
         25    1    4    4    0    0 -0.21868185752E+02  0.89179052573E+02  0.19992072274E+03  0.25307493840E+03  0.12509000000E+03 0.  0.
<mgrwt>
<rscale>  2 0.46847278E+03</rscale>
<asrwt>0</asrwt>
<pdfrwt beam="1">  1       21 0.84088989E-01 0.46847278E+03</pdfrwt>
<pdfrwt beam="2">  1       21 0.14110804E-01 0.46847278E+03</pdfrwt>
<totfact> 0.49245239E+04</totfact>
</mgrwt>
</event>
<event>
 7    0  0.4775379E-002  0.4779639E+03  0.7546771E-02  0.1019696E+00
         21   -1    0    0  502  501  0.00000000000E+00  0.00000000000E+00  0.79103483288E+03  0.79103483288E+03  0.00000000000E+00 0. -1.
         21   -1    0    0  501  502 -0.00000000000E+00 -0.00000000000E+00 -0.72199579221E+02  0.72199579221E+02  0.00000000000E+00 0. -1.
      99926    2    1    2    0    0  0.00000000000E+00  0.00000000000E+00  0.71883525366E+03  0.86323441210E+03  0.47796394041E+03 0.  0.
      99925    2    3    3    0    0 -0.31102616974E+02 -0.10241658707E+03  0.29934999665E+03  0.41259939455E+03  0.26300439122E+03 0.  0.
         25    1    3    3    0    0  0.31102616974E+02  0.10241658707E+03  0.41948525702E+03  0.45063501755E+03  0.12509000000E+03 0.  0.
         25    1    4    4    0    0 -0.98990525578E+01 -0.16239648787E+02  0.10116685716E+03  0.16199987198E+03  0.12509000000E+03 0.  0.
         25    1    4    4    0    0 -0.21203564416E+02 -0.86176938284E+02  0.19818313949E+03  0.25059952257E+03  0.12509000000E+03 0.  0.
<mgrwt>
<rscale>  2 0.47796394E+03</rscale>
<asrwt>0</asrwt>
<pdfrwt beam="1">  1       21 0.11632865E+00 0.47796394E+03</pdfrwt>
<pdfrwt beam="2">  1       21 0.10617586E-01 0.47796394E+03</pdfrwt>
<totfact> 0.37607254E+04</totfact>
</mgrwt>
</event>
<event>
 7    0  0.4775379E-002  0.4567492E+03  0.7546771E-02  0.1025728E+00
         21   -1    0    0  502  501  0.00000000000E+00  0.00000000000E+00  0.76779179674E+02  0.76779179674E+02  0.00000000000E+00 0. -1.
         21   -1    0    0  501  502 -0.00000000000E+00 -0.00000000000E+00 -0.67928518528E+03  0.67928518528E+03  0.00000000000E+00 0. -1.
      99926    2    1    2    0    0  0.00000000000E+00  0.00000000000E+00 -0.60250600560E+03  0.75606436495E+03  0.45674920598E+03 0.  0.
      99925    2    3    3    0    0  0.88299679487E+01 -0.72100317205E+02 -0.52573030906E+03  0.59230099983E+03  0.26296709388E+03 0.  0.
         25    1    4    4    0    0  0.14351979684E+02 -0.96137078430E+01 -0.31468878469E+03  0.33907955115E+03  0.12509000000E+03 0.  0.
         25    1    3    3    0    0 -0.88299679487E+01  0.72100317205E+02 -0.76775696540E+02  0.16376336512E+03  0.12509000000E+03 0.  0.
         25    1    4    4    0    0 -0.55220117350E+01 -0.62486609361E+02 -0.21104152437E+03  0.25322144868E+03  0.12509000000E+03 0.  0.
<mgrwt>
<rscale>  2 0.45674921E+03</rscale>
<asrwt>0</asrwt>
<pdfrwt beam="1">  1       21 0.11291056E-01 0.45674921E+03</pdfrwt>
<pdfrwt beam="2">  1       21 0.99894875E-01 0.45674921E+03</pdfrwt>
<totfact> 0.49281622E+04</totfact>
</mgrwt>
</event>
<event>
 7    0  0.4775379E-002  0.4460112E+03  0.7546771E-02  0.1028918E+00
         21   -1    0    0  502  501  0.00000000000E+00  0.00000000000E+00  0.50949827060E+03  0.50949827060E+03  0.00000000000E+00 0. -1.
         21   -1    0    0  501  502 -0.00000000000E+00 -0.00000000000E+00 -0.97608747582E+02  0.97608747582E+02  0.00000000000E+00 0. -1.
      99926    2    1    2    0    0  0.35527136788E-14  0.17763568394E-14  0.41188952301E+03  0.60710701818E+03  0.44601115721E+03 0.  0.
      99925    2    3    3    0    0  0.25986382940E+02 -0.11569568560E+02  0.39827046798E+03  0.47810262378E+03  0.26297073257E+03 0.  0.
         25    1    3    3    0    0 -0.25986382940E+02  0.11569568560E+02  0.13619055039E+02  0.12900439440E+03  0.12509000000E+03 0.  0.
         25    1    4    4    0    0  0.30351100531E+02 -0.38047303411E+02  0.23557261425E+03  0.27112866187E+03  0.12509000000E+03 0.  0.
         25    1    4    4    0    0 -0.43647175918E+01  0.26477734851E+02  0.16269785373E+03  0.20697396191E+03  0.12509000000E+03 0.  0.
<mgrwt>
<rscale>  2 0.44601116E+03</rscale>
<asrwt>0</asrwt>
<pdfrwt beam="1">  1       21 0.74926215E-01 0.44601116E+03</pdfrwt>
<pdfrwt beam="2">  1       21 0.14354228E-01 0.44601116E+03</pdfrwt>
<totfact> 0.62568664E+04</totfact>
</mgrwt>
</event>
<event>
 7    0  0.4775379E-002  0.4554561E+03  0.7546771E-02  0.1026107E+00
         21   -1    0    0  502  501  0.00000000000E+00  0.00000000000E+00  0.87188395188E+02  0.87188395188E+02  0.00000000000E+00 0. -1.
         21   -1    0    0  501  502 -0.00000000000E+00 -0.00000000000E+00 -0.59480472806E+03  0.59480472806E+03  0.00000000000E+00 0. -1.
      99926    2    1    2    0    0  0.00000000000E+00  0.00000000000E+00 -0.50761633287E+03  0.68199312324E+03  0.45545612166E+03 0.  0.
      99925    2    3    3    0    0  0.95190682905E+02 -0.43770977663E+02 -0.38280893707E+03  0.47656294351E+03  0.26380370019E+03 0.  0.
         25    1    3    3    0    0 -0.95190682905E+02  0.43770977663E+02 -0.12480739580E+03  0.20543017973E+03  0.12509000000E+03 0.  0.
         25    1    4    4    0    0  0.17560082946E+02 -0.13080561442E+02 -0.22640191600E+03  0.25958581099E+03  0.12509000000E+03 0.  0.
         25    1    4    4    0    0  0.77630599958E+02 -0.30690416222E+02 -0.15640702107E+03  0.21697713252E+03  0.12509000000E+03 0.  0.
<mgrwt>
<rscale>  2 0.45545612E+03</rscale>
<asrwt>0</asrwt>
<pdfrwt beam="1">  1       21 0.12821823E-01 0.45545612E+03</pdfrwt>
<pdfrwt beam="2">  1       21 0.87471286E-01 0.45545612E+03</pdfrwt>
<totfact> 0.53698784E+04</totfact>
</mgrwt>
</event>
<event>
 7    0  0.4775379E-002  0.4578337E+03  0.7546771E-02  0.1025411E+00
         21   -1    0    0  502  501  0.00000000000E+00  0.00000000000E+00  0.11295511506E+03  0.11295511506E+03  0.00000000000E+00 0.  1.
         21   -1    0    0  501  502 -0.00000000000E+00 -0.00000000000E+00 -0.46392691163E+03  0.46392691163E+03  0.00000000000E+00 0.  1.
      99926    2    1    2    0    0  0.00000000000E+00 -0.35527136788E-14 -0.35097179656E+03  0.57688202669E+03  0.45783367147E+03 0.  0.
      99925    2    3    3    0    0  0.10628481216E+03 -0.31870071383E+02 -0.17849506720E+03  0.33665735473E+03  0.26299338914E+03 0.  0.
         25    1    4    4    0    0  0.87473015076E+02 -0.20423069602E+02 -0.68149066070E+02  0.16840556239E+03  0.12509000000E+03 0.  0.
         25    1    3    3    0    0 -0.10628481216E+03  0.31870071383E+02 -0.17247672936E+03  0.24022467196E+03  0.12509000000E+03 0.  0.
         25    1    4    4    0    0  0.18811797089E+02 -0.11447001781E+02 -0.11034600113E+03  0.16825179234E+03  0.12509000000E+03 0.  0.
<mgrwt>
<rscale>  2 0.45783367E+03</rscale>
<asrwt>0</asrwt>
<pdfrwt beam="1">  1       21 0.16611046E-01 0.45783367E+03</pdfrwt>
<pdfrwt beam="2">  1       21 0.68224546E-01 0.45783367E+03</pdfrwt>
<totfact> 0.58795898E+04</totfact>
</mgrwt>
</event>
<event>
 7    0  0.4775379E-002  0.4586139E+03  0.7546771E-02  0.1025184E+00
         21   -1    0    0  502  501  0.00000000000E+00  0.00000000000E+00  0.74541310492E+02  0.74541310492E+02  0.00000000000E+00 0.  1.
         21   -1    0    0  501  502 -0.00000000000E+00 -0.00000000000E+00 -0.70540313944E+03  0.70540313944E+03  0.00000000000E+00 0.  1.
      99926    2    1    2    0    0  0.00000000000E+00  0.00000000000E+00 -0.63086182895E+03  0.77994444993E+03  0.45861388744E+03 0.  0.
      99925    2    3    3    0    0  0.28156495633E+02  0.86471516763E+02 -0.27171608593E+03  0.38891595444E+03  0.26297504978E+03 0.  0.
         25    1    4    4    0    0 -0.11289340306E+02  0.35862763772E+02 -0.17458183142E+03  0.21803649005E+03  0.12509000000E+03 0.  0.
         25    1    4    4    0    0  0.39445835939E+02  0.50608752992E+02 -0.97134254508E+02  0.17087946439E+03  0.12509000000E+03 0.  0.
         25    1    3    3    0    0 -0.28156495633E+02 -0.86471516763E+02 -0.35914574302E+03  0.39102849549E+03  0.12509000000E+03 0.  0.
<mgrwt>
<rscale>  2 0.45861389E+03</rscale>
<asrwt>0</asrwt>
<pdfrwt beam="1">  1       21 0.10961957E-01 0.45861389E+03</pdfrwt>
<pdfrwt beam="2">  1       21 0.10373576E+00 0.45861389E+03</pdfrwt>
<totfact> 0.47391533E+04</totfact>
</mgrwt>
</event>
<event>
 7    0  0.4775379E-002  0.4410226E+03  0.7546771E-02  0.1030434E+00
         21   -1    0    0  502  501  0.00000000000E+00  0.00000000000E+00  0.26721445525E+03  0.26721445525E+03  0.00000000000E+00 0. -1.
         21   -1    0    0  501  502 -0.00000000000E+00 -0.00000000000E+00 -0.18197080987E+03  0.18197080987E+03  0.00000000000E+00 0. -1.
      99926    2    1    2    0    0 -0.35527136788E-14  0.35527136788E-14  0.85243645381E+02  0.44918526512E+03  0.44102258823E+03 0.  0.
      99925    2    3    3    0    0  0.23016270089E+02 -0.29276303576E+02  0.14837443712E+03  0.30420300550E+03  0.26294038169E+03 0.  0.
         25    1    3    3    0    0 -0.23016270089E+02  0.29276303576E+02 -0.63130791742E+02  0.14498225962E+03  0.12509000000E+03 0.  0.
         25    1    4    4    0    0  0.39832837792E+02  0.31228687067E+01  0.10057125947E+03  0.16540403141E+03  0.12509000000E+03 0.  0.
         25    1    4    4    0    0 -0.16816567703E+02 -0.32399172283E+02  0.47803177654E+02  0.13879897409E+03  0.12509000000E+03 0.  0.
<mgrwt>
<rscale>  2 0.44102259E+03</rscale>
<asrwt>0</asrwt>
<pdfrwt beam="1">  1       21 0.39296243E-01 0.44102259E+03</pdfrwt>
<pdfrwt beam="2">  1       21 0.26760413E-01 0.44102259E+03</pdfrwt>
<totfact> 0.77229068E+04</totfact>
</mgrwt>
</event>
<event>
 7    0  0.4775379E-002  0.4570294E+03  0.7546771E-02  0.1025646E+00
         21   -1    0    0  502  501  0.00000000000E+00  0.00000000000E+00  0.10104172783E+03  0.10104172783E+03  0.00000000000E+00 0. -1.
         21   -1    0    0  501  502 -0.00000000000E+00 -0.00000000000E+00 -0.51680586491E+03  0.51680586491E+03  0.00000000000E+00 0. -1.
      99926    2    1    2    0    0  0.00000000000E+00  0.71054273576E-14 -0.41576413707E+03  0.61784759274E+03  0.45702935374E+03 0.  0.
      99925    2    3    3    0    0 -0.87746986400E+02 -0.32116279221E+02 -0.17273393527E+03  0.32898399846E+03  0.26393648826E+03 0.  0.
         25    1    3    3    0    0  0.87746986400E+02  0.32116279221E+02 -0.24303020180E+03  0.28886359428E+03  0.12509000000E+03 0.  0.
         25    1    4    4    0    0 -0.41500498411E+02 -0.23547483186E-01 -0.39083928148E+02  0.13746764515E+03  0.12509000000E+03 0.  0.
         25    1    4    4    0    0 -0.46246487989E+02 -0.32092731738E+02 -0.13365000713E+03  0.19151635331E+03  0.12509000000E+03 0.  0.
<mgrwt>
<rscale>  2 0.45702935E+03</rscale>
<asrwt>0</asrwt>
<pdfrwt beam="1">  1       21 0.14859077E-01 0.45702935E+03</pdfrwt>
<pdfrwt beam="2">  1       21 0.76000864E-01 0.45702935E+03</pdfrwt>
<totfact> 0.56679114E+04</totfact>
</mgrwt>
</event>
<event>
 7    0  0.4775379E-002  0.4706829E+03  0.7546771E-02  0.1021728E+00
         21   -1    0    0  502  501  0.00000000000E+00  0.00000000000E+00  0.20224600359E+04  0.20224600359E+04  0.00000000000E+00 0. -1.
         21   -1    0    0  501  502 -0.00000000000E+00 -0.00000000000E+00 -0.27385264696E+02  0.27385264696E+02  0.00000000000E+00 0. -1.
      99926    2    1    2    0    0  0.14210854715E-13  0.00000000000E+00  0.19950747712E+04  0.20498453006E+04  0.47068292265E+03 0.  0.
      99925    2    3    3    0    0  0.12275682523E+03 -0.27784759630E+02  0.11541074151E+04  0.11903600865E+04  0.26296763886E+03 0.  0.
         25    1    3    3    0    0 -0.12275682523E+03  0.27784759630E+02  0.84096735613E+03  0.85948521406E+03  0.12509000000E+03 0.  0.
         25    1    4    4    0    0  0.98602764351E+02 -0.37654076347E+02  0.63391721169E+03  0.65470518097E+03  0.12509000000E+03 0.  0.
         25    1    4    4    0    0  0.24154060876E+02  0.98693167176E+01  0.52019020338E+03  0.53565490557E+03  0.12509000000E+03 0.  0.
<mgrwt>
<rscale>  2 0.47068292E+03</rscale>
<asrwt>0</asrwt>
<pdfrwt beam="1">  1       21 0.29742049E+00 0.47068292E+03</pdfrwt>
<pdfrwt beam="2">  1       21 0.40272462E-02 0.47068292E+03</pdfrwt>
<totfact> 0.11453813E+04</totfact>
</mgrwt>
</event>
<event>
 7    0  0.4775379E-002  0.4519345E+03  0.7546771E-02  0.1027147E+00
         21   -1    0    0  502  501  0.00000000000E+00  0.00000000000E+00  0.16587946584E+03  0.16587946584E+03  0.00000000000E+00 0. -1.
         21   -1    0    0  501  502 -0.00000000000E+00 -0.00000000000E+00 -0.30782115418E+03  0.30782115418E+03  0.00000000000E+00 0. -1.
      99926    2    1    2    0    0  0.17763568394E-14  0.00000000000E+00 -0.14194168835E+03  0.47370062002E+03  0.45193454672E+03 0.  0.
      99925    2    3    3    0    0  0.14121128260E+02 -0.81258601015E+02 -0.16627914716E+03  0.32190409007E+03  0.26300403405E+03 0.  0.
         25    1    3    3    0    0 -0.14121128260E+02  0.81258601015E+02  0.24337458810E+02  0.15179652995E+03  0.12509000000E+03 0.  0.
         25    1    4    4    0    0  0.43355553823E+02 -0.31951917671E+02 -0.10129926232E+03  0.16973413840E+03  0.12509000000E+03 0.  0.
         25    1    4    4    0    0 -0.29234425563E+02 -0.49306683344E+02 -0.64979884834E+02  0.15216995168E+03  0.12509000000E+03 0.  0.
<mgrwt>
<rscale>  2 0.45193455E+03</rscale>
<asrwt>0</asrwt>
<pdfrwt beam="1">  1       21 0.24394040E-01 0.45193455E+03</pdfrwt>
<pdfrwt beam="2">  1       21 0.45267816E-01 0.45193455E+03</pdfrwt>
<totfact> 0.68820645E+04</totfact>
</mgrwt>
</event>
<event>
 7    0  0.4775379E-002  0.3940074E+03  0.7546771E-02  0.1045875E+00
         21   -1    0    0  502  501  0.00000000000E+00  0.00000000000E+00  0.20490202859E+03  0.20490202859E+03  0.00000000000E+00 0.  1.
         21   -1    0    0  501  502 -0.00000000000E+00 -0.00000000000E+00 -0.18940987221E+03  0.18940987221E+03  0.00000000000E+00 0.  1.
      99926    2    1    2    0    0  0.44408920985E-15  0.00000000000E+00  0.15492156372E+02  0.39431190080E+03  0.39400744689E+03 0.  0.
      99925    2    3    3    0    0 -0.28153602378E+01  0.17896454028E+02  0.36471753381E+02  0.26618750456E+03  0.26305396684E+03 0.  0.
         25    1    4    4    0    0  0.26821467134E+02 -0.37508937742E+00 -0.98864484996E+01  0.12831516573E+03  0.12509000000E+03 0.  0.
         25    1    4    4    0    0 -0.29636827372E+02  0.18271543406E+02  0.46358201881E+02  0.13787233884E+03  0.12509000000E+03 0.  0.
         25    1    3    3    0    0  0.28153602378E+01 -0.17896454028E+02 -0.20979597009E+02  0.12812439624E+03  0.12509000000E+03 0.  0.
<mgrwt>
<rscale>  2 0.39400745E+03</rscale>
<asrwt>0</asrwt>
<pdfrwt beam="1">  1       21 0.30132651E-01 0.39400745E+03</pdfrwt>
<pdfrwt beam="2">  1       21 0.27854393E-01 0.39400745E+03</pdfrwt>
<totfact> 0.12309982E+05</totfact>
</mgrwt>
</event>
<event>
 7    0  0.4775379E-002  0.4281330E+03  0.7546771E-02  0.1034451E+00
         21   -1    0    0  502  501  0.00000000000E+00  0.00000000000E+00  0.23140201371E+03  0.23140201371E+03  0.00000000000E+00 0. -1.
         21   -1    0    0  501  502 -0.00000000000E+00 -0.00000000000E+00 -0.19802971789E+03  0.19802971789E+03  0.00000000000E+00 0. -1.
      99926    2    1    2    0    0  0.00000000000E+00  0.00000000000E+00  0.33372295826E+02  0.42943173160E+03  0.42813304238E+03 0.  0.
      99925    2    3    3    0    0 -0.32495542312E+02  0.76998008647E+02  0.39754254787E+02  0.27885653077E+03  0.26305115543E+03 0.  0.
         25    1    4    4    0    0 -0.50327130439E+02  0.27470685796E+02  0.59592439864E+00  0.13760567525E+03  0.12509000000E+03 0.  0.
         25    1    4    4    0    0  0.17831588127E+02  0.49527322851E+02  0.39158330389E+02  0.14125085551E+03  0.12509000000E+03 0.  0.
         25    1    3    3    0    0  0.32495542312E+02 -0.76998008647E+02 -0.63819589611E+01  0.15057520083E+03  0.12509000000E+03 0.  0.
<mgrwt>
<rscale>  2 0.42813304E+03</rscale>
<asrwt>0</asrwt>
<pdfrwt beam="1">  1       21 0.34029708E-01 0.42813304E+03</pdfrwt>
<pdfrwt beam="2">  1       21 0.29122017E-01 0.42813304E+03</pdfrwt>
<totfact> 0.87832320E+04</totfact>
</mgrwt>
</event>
<event>
 7    0  0.4775379E-002  0.4573252E+03  0.7546771E-02  0.1025560E+00
         21   -1    0    0  502  501  0.00000000000E+00  0.00000000000E+00  0.16444980935E+03  0.16444980935E+03  0.00000000000E+00 0.  1.
         21   -1    0    0  501  502 -0.00000000000E+00 -0.00000000000E+00 -0.31794864593E+03  0.31794864593E+03  0.00000000000E+00 0.  1.
      99926    2    1    2    0    0  0.00000000000E+00 -0.14210854715E-13 -0.15349883658E+03  0.48239845528E+03  0.45732524184E+03 0.  0.
      99925    2    3    3    0    0 -0.29253868301E+02  0.11129355465E+03 -0.10485109044E+03  0.30560435067E+03  0.26297951226E+03 0.  0.
         25    1    3    3    0    0  0.29253868301E+02 -0.11129355465E+03 -0.48647746143E+02  0.17679410460E+03  0.12509000000E+03 0.  0.
         25    1    4    4    0    0 -0.20777889666E+02  0.72992722252E+02 -0.94334507937E+02  0.17408666143E+03  0.12509000000E+03 0.  0.
         25    1    4    4    0    0 -0.84759786355E+01  0.38300832397E+02 -0.10516582499E+02  0.13151768924E+03  0.12509000000E+03 0.  0.
<mgrwt>
<rscale>  2 0.45732524E+03</rscale>
<asrwt>0</asrwt>
<pdfrwt beam="1">  1       21 0.24183796E-01 0.45732524E+03</pdfrwt>
<pdfrwt beam="2">  1       21 0.46757153E-01 0.45732524E+03</pdfrwt>
<totfact> 0.65312102E+04</totfact>
</mgrwt>
</event>
<event>
 7    0  0.4775379E-002  0.4515744E+03  0.7546771E-02  0.1027254E+00
         21   -1    0    0  502  501  0.00000000000E+00  0.00000000000E+00  0.16699817947E+03  0.16699817947E+03  0.00000000000E+00 0. -1.
         21   -1    0    0  501  502 -0.00000000000E+00 -0.00000000000E+00 -0.30527190518E+03  0.30527190518E+03  0.00000000000E+00 0. -1.
      99926    2    1    2    0    0 -0.22204460493E-15  0.00000000000E+00 -0.13827372571E+03  0.47227008465E+03  0.45157436778E+03 0.  0.
      99925    2    3    3    0    0  0.16526675178E+01 -0.88437044710E+02 -0.19121687229E+02  0.27818618897E+03  0.26305526915E+03 0.  0.
         25    1    3    3    0    0 -0.16526675178E+01  0.88437044710E+02 -0.11915203848E+03  0.19408389568E+03  0.12509000000E+03 0.  0.
         25    1    4    4    0    0  0.14581774972E+02 -0.40602470014E+02 -0.47667663509E+02  0.14064459811E+03  0.12509000000E+03 0.  0.
         25    1    4    4    0    0 -0.12929107455E+02 -0.47834574696E+02  0.28545976279E+02  0.13754159086E+03  0.12509000000E+03 0.  0.
<mgrwt>
<rscale>  2 0.45157437E+03</rscale>
<asrwt>0</asrwt>
<pdfrwt beam="1">  1       21 0.24558556E-01 0.45157437E+03</pdfrwt>
<pdfrwt beam="2">  1       21 0.44892928E-01 0.45157437E+03</pdfrwt>
<totfact> 0.69127394E+04</totfact>
</mgrwt>
</event>
<event>
 7    0  0.4775379E-002  0.4802677E+03  0.7546771E-02  0.1019062E+00
         21   -1    0    0  502  501  0.00000000000E+00  0.00000000000E+00  0.15737806792E+03  0.15737806792E+03  0.00000000000E+00 0. -1.
         21   -1    0    0  501  502 -0.00000000000E+00 -0.00000000000E+00 -0.36640597818E+03  0.36640597818E+03  0.00000000000E+00 0. -1.
      99926    2    1    2    0    0  0.00000000000E+00  0.00000000000E+00 -0.20902791025E+03  0.52378404610E+03  0.48026769586E+03 0.  0.
      99925    2    3    3    0    0 -0.14339772837E+02  0.64306315359E+02 -0.25788618363E+03  0.37419938693E+03  0.26301894645E+03 0.  0.
         25    1    4    4    0    0  0.13551978346E+02 -0.33797416422E+01 -0.12923964943E+03  0.18040364147E+03  0.12509000000E+03 0.  0.
         25    1    4    4    0    0 -0.27891751183E+02  0.67686057001E+02 -0.12864653420E+03  0.19379574546E+03  0.12509000000E+03 0.  0.
         25    1    3    3    0    0  0.14339772837E+02 -0.64306315359E+02  0.48858273382E+02  0.14958465917E+03  0.12509000000E+03 0.  0.
<mgrwt>
<rscale>  2 0.48026770E+03</rscale>
<asrwt>0</asrwt>
<pdfrwt beam="1">  1       21 0.23143834E-01 0.48026770E+03</pdfrwt>
<pdfrwt beam="2">  1       21 0.53883232E-01 0.48026770E+03</pdfrwt>
<totfact> 0.52323698E+04</totfact>
</mgrwt>
</event>
<event>
 7    0  0.4775379E-002  0.4403022E+03  0.7546771E-02  0.1030654E+00
         21   -1    0    0  502  501  0.00000000000E+00  0.00000000000E+00  0.10404908167E+04  0.10404908167E+04  0.00000000000E+00 0. -1.
         21   -1    0    0  501  502 -0.00000000000E+00 -0.00000000000E+00 -0.46580437855E+02  0.46580437855E+02  0.00000000000E+00 0. -1.
      99926    2    1    2    0    0  0.00000000000E+00  0.00000000000E+00  0.99391037885E+03  0.10870712546E+04  0.44030224994E+03 0.  0.
      99925    2    3    3    0    0 -0.87368084176E+02 -0.43136687309E+02  0.67393618437E+03  0.72996489903E+03  0.26299204796E+03 0.  0.
         25    1    4    4    0    0 -0.33178881806E+02 -0.59265708160E+02  0.31468928533E+03  0.34538401347E+03  0.12509000000E+03 0.  0.
         25    1    4    4    0    0 -0.54189202371E+02  0.16129020851E+02  0.35924689904E+03  0.38458088556E+03  0.12509000000E+03 0.  0.
         25    1    3    3    0    0  0.87368084176E+02  0.43136687309E+02  0.31997419448E+03  0.35710635553E+03  0.12509000000E+03 0.  0.
<mgrwt>
<rscale>  2 0.44030225E+03</rscale>
<asrwt>0</asrwt>
<pdfrwt beam="1">  1       21 0.15301334E+00 0.44030225E+03</pdfrwt>
<pdfrwt beam="2">  1       21 0.68500651E-02 0.44030225E+03</pdfrwt>
<totfact> 0.40381480E+04</totfact>
</mgrwt>
</event>
<event>
 7    0  0.4775379E-002  0.4374083E+03  0.7546771E-02  0.1031545E+00
         21   -1    0    0  502  501  0.00000000000E+00  0.00000000000E+00  0.89980021213E+02  0.89980021213E+02  0.00000000000E+00 0.  1.
         21   -1    0    0  501  502 -0.00000000000E+00 -0.00000000000E+00 -0.53157919432E+03  0.53157919432E+03  0.00000000000E+00 0.  1.
      99926    2    1    2    0    0  0.00000000000E+00  0.71054273576E-14 -0.44159917311E+03  0.62155921553E+03  0.43740830893E+03 0.  0.
      99925    2    3    3    0    0  0.50550798077E+02 -0.54277382383E+02 -0.19612791129E+03  0.33624348533E+03  0.26285377382E+03 0.  0.
         25    1    3    3    0    0 -0.50550798077E+02  0.54277382383E+02 -0.24547126182E+03  0.28531573021E+03  0.12509000000E+03 0.  0.
         25    1    4    4    0    0  0.62878852136E+02 -0.20444945536E+02 -0.84766279849E+02  0.16493809791E+03  0.12509000000E+03 0.  0.
         25    1    4    4    0    0 -0.12328054059E+02 -0.33832436847E+02 -0.11136163144E+03  0.17130538741E+03  0.12509000000E+03 0.  0.
<mgrwt>
<rscale>  2 0.43740831E+03</rscale>
<asrwt>0</asrwt>
<pdfrwt beam="1">  1       21 0.13232357E-01 0.43740831E+03</pdfrwt>
<pdfrwt beam="2">  1       21 0.78173407E-01 0.43740831E+03</pdfrwt>
<totfact> 0.66081310E+04</totfact>
</mgrwt>
</event>
<event>
 7    0  0.4775379E-002  0.4651090E+03  0.7546771E-02  0.1023310E+00
         21   -1    0    0  502  501  0.00000000000E+00  0.00000000000E+00  0.14580598791E+03  0.14580598791E+03  0.00000000000E+00 0. -1.
         21   -1    0    0  501  502 -0.00000000000E+00 -0.00000000000E+00 -0.37091482061E+03  0.37091482061E+03  0.00000000000E+00 0. -1.
      99926    2    1    2    0    0  0.00000000000E+00  0.88817841970E-15 -0.22510883270E+03  0.51672080852E+03  0.46510902743E+03 0.  0.
      99925    2    3    3    0    0  0.12096025953E+03 -0.23197299715E+01 -0.11916617227E+03  0.31298538958E+03  0.26291160481E+03 0.  0.
         25    1    4    4    0    0  0.56115361712E+02 -0.14313197459E+02 -0.99970744723E+02  0.17028053131E+03  0.12509000000E+03 0.  0.
         25    1    4    4    0    0  0.64844897819E+02  0.11993467487E+02 -0.19195427542E+02  0.14270485827E+03  0.12509000000E+03 0.  0.
         25    1    3    3    0    0 -0.12096025953E+03  0.23197299715E+01 -0.10594266043E+03  0.20373541894E+03  0.12509000000E+03 0.  0.
<mgrwt>
<rscale>  2 0.46510903E+03</rscale>
<asrwt>0</asrwt>
<pdfrwt beam="1">  1       21 0.21442057E-01 0.46510903E+03</pdfrwt>
<pdfrwt beam="2">  1       21 0.54546296E-01 0.46510903E+03</pdfrwt>
<totfact> 0.59216062E+04</totfact>
</mgrwt>
</event>
<event>
 7    0  0.4775379E-002  0.4800290E+03  0.7546771E-02  0.1019127E+00
         21   -1    0    0  502  501  0.00000000000E+00  0.00000000000E+00  0.31296462428E+03  0.31296462428E+03  0.00000000000E+00 0. -1.
         21   -1    0    0  501  502 -0.00000000000E+00 -0.00000000000E+00 -0.18406863229E+03  0.18406863229E+03  0.00000000000E+00 0. -1.
      99926    2    1    2    0    0  0.00000000000E+00 -0.71054273576E-14  0.12889599199E+03  0.49703325658E+03  0.48002904224E+03 0.  0.
      99925    2    3    3    0    0  0.75803755168E+02 -0.59252225712E+02 -0.19249040797E+02  0.28058119632E+03  0.26286545343E+03 0.  0.
         25    1    4    4    0    0  0.71064660739E+02 -0.55069836327E+02 -0.13009767468E+01  0.15405217791E+03  0.12509000000E+03 0.  0.
         25    1    3    3    0    0 -0.75803755168E+02  0.59252225712E+02  0.14814503279E+03  0.21645206026E+03  0.12509000000E+03 0.  0.
         25    1    4    4    0    0  0.47390944285E+01 -0.41823893846E+01 -0.17948064050E+02  0.12652901841E+03  0.12509000000E+03 0.  0.
<mgrwt>
<rscale>  2 0.48002904E+03</rscale>
<asrwt>0</asrwt>
<pdfrwt beam="1">  1       21 0.46024210E-01 0.48002904E+03</pdfrwt>
<pdfrwt beam="2">  1       21 0.27068916E-01 0.48002904E+03</pdfrwt>
<totfact> 0.53940139E+04</totfact>
</mgrwt>
</event>
<event>
 7    0  0.4775379E-002  0.4587578E+03  0.7546771E-02  0.1025142E+00
         21   -1    0    0  502  501  0.00000000000E+00  0.00000000000E+00  0.12426368357E+04  0.12426368357E+04  0.00000000000E+00 0.  1.
         21   -1    0    0  501  502 -0.00000000000E+00 -0.00000000000E+00 -0.42341162261E+02  0.42341162261E+02  0.00000000000E+00 0.  1.
      99926    2    1    2    0    0  0.00000000000E+00  0.00000000000E+00  0.12002956734E+04  0.12849779980E+04  0.45875783543E+03 0.  0.
      99925    2    3    3    0    0 -0.52545799851E+02  0.89246661380E+02  0.60116772418E+03  0.66423019464E+03  0.26281760067E+03 0.  0.
         25    1    4    4    0    0 -0.47949775845E+02  0.11198224152E+02  0.30722454912E+03  0.33534909111E+03  0.12509000000E+03 0.  0.
         25    1    3    3    0    0  0.52545799851E+02 -0.89246661380E+02  0.59912794926E+03  0.62074780332E+03  0.12509000000E+03 0.  0.
         25    1    4    4    0    0 -0.45960240057E+01  0.78048437229E+02  0.29394317506E+03  0.32888110353E+03  0.12509000000E+03 0.  0.
<mgrwt>
<rscale>  2 0.45875784E+03</rscale>
<asrwt>0</asrwt>
<pdfrwt beam="1">  1       21 0.18274069E+00 0.45875784E+03</pdfrwt>
<pdfrwt beam="2">  1       21 0.62266423E-02 0.45875784E+03</pdfrwt>
<totfact> 0.28705567E+04</totfact>
</mgrwt>
</event>
<event>
 7    0  0.4775379E-002  0.4564206E+03  0.7546771E-02  0.1025824E+00
         21   -1    0    0  502  501  0.00000000000E+00  0.00000000000E+00  0.16793355171E+03  0.16793355171E+03  0.00000000000E+00 0.  1.
         21   -1    0    0  501  502 -0.00000000000E+00 -0.00000000000E+00 -0.31012225486E+03  0.31012225486E+03  0.00000000000E+00 0.  1.
      99926    2    1    2    0    0  0.71054273576E-14 -0.71054273576E-14 -0.14218870315E+03  0.47805580658E+03  0.45642055924E+03 0.  0.
      99925    2    3    3    0    0 -0.59647678061E+02  0.49715681117E+02 -0.17754642340E+03  0.32663859841E+03  0.26294590140E+03 0.  0.
         25    1    4    4    0    0 -0.30078469879E+02  0.20610822893E+02 -0.13626248009E+03  0.18853246922E+03  0.12509000000E+03 0.  0.
         25    1    4    4    0    0 -0.29569208181E+02  0.29104858224E+02 -0.41283943310E+02  0.13810612919E+03  0.12509000000E+03 0.  0.
         25    1    3    3    0    0  0.59647678061E+02 -0.49715681117E+02  0.35357720251E+02  0.15141720816E+03  0.12509000000E+03 0.  0.
<mgrwt>
<rscale>  2 0.45642056E+03</rscale>
<asrwt>0</asrwt>
<pdfrwt beam="1">  1       21 0.24696111E-01 0.45642056E+03</pdfrwt>
<pdfrwt beam="2">  1       21 0.45606214E-01 0.45642056E+03</pdfrwt>
<totfact> 0.66093573E+04</totfact>
</mgrwt>
</event>
<event>
 7    0  0.4775379E-002  0.4531067E+03  0.7546771E-02  0.1026800E+00
         21   -1    0    0  502  501  0.00000000000E+00  0.00000000000E+00  0.25083064311E+03  0.25083064311E+03  0.00000000000E+00 0. -1.
         21   -1    0    0  501  502 -0.00000000000E+00 -0.00000000000E+00 -0.20462578500E+03  0.20462578500E+03  0.00000000000E+00 0. -1.
      99926    2    1    2    0    0  0.00000000000E+00 -0.14210854715E-13  0.46204858109E+02  0.45545642811E+03  0.45310668610E+03 0.  0.
      99925    2    3    3    0    0 -0.49239294433E+02  0.85915951665E+02  0.80392642170E+02  0.29229279384E+03  0.26299437551E+03 0.  0.
         25    1    4    4    0    0 -0.52318403620E+01  0.92579002457E+01  0.54886520436E+02  0.13701503237E+03  0.12509000000E+03 0.  0.
         25    1    3    3    0    0  0.49239294433E+02 -0.85915951665E+02 -0.34187784060E+02  0.16316363426E+03  0.12509000000E+03 0.  0.
         25    1    4    4    0    0 -0.44007454071E+02  0.76658051420E+02  0.25506121733E+02  0.15527776147E+03  0.12509000000E+03 0.  0.
<mgrwt>
<rscale>  2 0.45310669E+03</rscale>
<asrwt>0</asrwt>
<pdfrwt beam="1">  1       21 0.36886860E-01 0.45310669E+03</pdfrwt>
<pdfrwt beam="2">  1       21 0.30092027E-01 0.45310669E+03</pdfrwt>
<totfact> 0.69557150E+04</totfact>
</mgrwt>
</event>
<event>
 7    0  0.4775379E-002  0.4566436E+03  0.7546771E-02  0.1025759E+00
         21   -1    0    0  502  501  0.00000000000E+00  0.00000000000E+00  0.28190643175E+02  0.28190643175E+02  0.00000000000E+00 0.  1.
         21   -1    0    0  501  502 -0.00000000000E+00 -0.00000000000E+00 -0.18492248391E+04  0.18492248391E+04  0.00000000000E+00 0.  1.
      99926    2    1    2    0    0  0.00000000000E+00 -0.44408920985E-15 -0.18210341959E+04  0.18774154823E+04  0.45664357036E+03 0.  0.
      99925    2    3    3    0    0  0.95504708088E+02  0.18963436473E+01 -0.88396032744E+03  0.92721566724E+03  0.26309368618E+03 0.  0.
         25    1    4    4    0    0  0.33115462248E+02 -0.19020903690E+02 -0.31740039725E+03  0.34329134695E+03  0.12509000000E+03 0.  0.
         25    1    4    4    0    0  0.62389245840E+02  0.20917247338E+02 -0.56655993019E+03  0.58392432029E+03  0.12509000000E+03 0.  0.
         25    1    3    3    0    0 -0.95504708088E+02 -0.18963436473E+01 -0.93707386849E+03  0.95019981503E+03  0.12509000000E+03 0.  0.
<mgrwt>
<rscale>  2 0.45664357E+03</rscale>
<asrwt>0</asrwt>
<pdfrwt beam="1">  1       21 0.41456823E-02 0.45664357E+03</pdfrwt>
<pdfrwt beam="2">  1       21 0.27194486E+00 0.45664357E+03</pdfrwt>
<totfact> 0.15616083E+04</totfact>
</mgrwt>
</event>
<event>
 7    0  0.4775379E-002  0.4556411E+03  0.7546771E-02  0.1026053E+00
         21   -1    0    0  502  501  0.00000000000E+00  0.00000000000E+00  0.86001071969E+03  0.86001071969E+03  0.00000000000E+00 0.  1.
         21   -1    0    0  501  502 -0.00000000000E+00 -0.00000000000E+00 -0.60350637978E+02  0.60350637978E+02  0.00000000000E+00 0.  1.
      99926    2    1    2    0    0 -0.35527136788E-14 -0.71054273576E-14  0.79966008171E+03  0.92036135767E+03  0.45564106751E+03 0.  0.
      99925    2    3    3    0    0  0.26079007951E+02  0.55523214647E+02  0.30904431574E+03  0.41034735792E+03  0.26289469953E+03 0.  0.
         25    1    4    4    0    0  0.43836847995E+02  0.48495646342E+02  0.13626641966E+03  0.19618751791E+03  0.12509000000E+03 0.  0.
         25    1    3    3    0    0 -0.26079007951E+02 -0.55523214647E+02  0.49061576597E+03  0.51001399975E+03  0.12509000000E+03 0.  0.
         25    1    4    4    0    0 -0.17757840044E+02  0.70275683047E+01  0.17277789608E+03  0.21415984001E+03  0.12509000000E+03 0.  0.
<mgrwt>
<rscale>  2 0.45564107E+03</rscale>
<asrwt>0</asrwt>
<pdfrwt beam="1">  1       21 0.12647216E+00 0.45564107E+03</pdfrwt>
<pdfrwt beam="2">  1       21 0.88750943E-02 0.45564107E+03</pdfrwt>
<totfact> 0.42153151E+04</totfact>
</mgrwt>
</event>
<event>
 7    0  0.4775379E-002  0.4517157E+03  0.7546771E-02  0.1027212E+00
         21   -1    0    0  502  501  0.00000000000E+00  0.00000000000E+00  0.16986897925E+03  0.16986897925E+03  0.00000000000E+00 0.  1.
         21   -1    0    0  501  502 -0.00000000000E+00 -0.00000000000E+00 -0.30030068772E+03  0.30030068772E+03  0.00000000000E+00 0.  1.
      99926    2    1    2    0    0  0.00000000000E+00 -0.14210854715E-13 -0.13043170847E+03  0.47016966698E+03  0.45171571278E+03 0.  0.
      99925    2    3    3    0    0  0.69172434094E+02 -0.74764492063E+02 -0.12537569577E+03  0.30877689677E+03  0.26315309608E+03 0.  0.
         25    1    3    3    0    0 -0.69172434094E+02  0.74764492063E+02 -0.50560126958E+01  0.16139277021E+03  0.12509000000E+03 0.  0.
         25    1    4    4    0    0  0.33968255074E+02 -0.24033434339E+00 -0.79714213392E+02  0.15217018115E+03  0.12509000000E+03 0.  0.
         25    1    4    4    0    0  0.35204179020E+02 -0.74524157719E+02 -0.45661482381E+02  0.15660671562E+03  0.12509000000E+03 0.  0.
<mgrwt>
<rscale>  2 0.45171571E+03</rscale>
<asrwt>0</asrwt>
<pdfrwt beam="1">  1       21 0.24980733E-01 0.45171571E+03</pdfrwt>
<pdfrwt beam="2">  1       21 0.44161865E-01 0.45171571E+03</pdfrwt>
<totfact> 0.69209034E+04</totfact>
</mgrwt>
</event>
<event>
 7    0  0.4775379E-002  0.4666416E+03  0.7546771E-02  0.1022872E+00
         21   -1    0    0  502  501  0.00000000000E+00  0.00000000000E+00  0.23028523396E+03  0.23028523396E+03  0.00000000000E+00 0. -1.
         21   -1    0    0  501  502 -0.00000000000E+00 -0.00000000000E+00 -0.23639635890E+03  0.23639635890E+03  0.00000000000E+00 0. -1.
      99926    2    1    2    0    0 -0.71054273576E-14 -0.14210854715E-13 -0.61111249428E+01  0.46668159286E+03  0.46664157901E+03 0.  0.
      99925    2    3    3    0    0 -0.49232865328E+02 -0.11121918493E+03 -0.27130011526E+02  0.29094632657E+03  0.26290710393E+03 0.  0.
         25    1    4    4    0    0 -0.12130309171E+02 -0.67022085964E+02 -0.50700066857E+02  0.15118567818E+03  0.12509000000E+03 0.  0.
         25    1    4    4    0    0 -0.37102556157E+02 -0.44197098962E+02  0.23570055331E+02  0.13976064839E+03  0.12509000000E+03 0.  0.
         25    1    3    3    0    0  0.49232865328E+02  0.11121918493E+03  0.21018886583E+02  0.17573526629E+03  0.12509000000E+03 0.  0.
<mgrwt>
<rscale>  2 0.46664158E+03</rscale>
<asrwt>0</asrwt>
<pdfrwt beam="1">  1       21 0.33865476E-01 0.46664158E+03</pdfrwt>
<pdfrwt beam="2">  1       21 0.34764170E-01 0.46664158E+03</pdfrwt>
<totfact> 0.61759211E+04</totfact>
</mgrwt>
</event>
<event>
 7    0  0.4775379E-002  0.4562617E+03  0.7546771E-02  0.1025871E+00
         21   -1    0    0  502  501  0.00000000000E+00  0.00000000000E+00  0.33551948189E+03  0.33551948189E+03  0.00000000000E+00 0.  1.
         21   -1    0    0  501  502 -0.00000000000E+00 -0.00000000000E+00 -0.15511373090E+03  0.15511373090E+03  0.00000000000E+00 0.  1.
      99926    2    1    2    0    0  0.00000000000E+00  0.00000000000E+00  0.18040575098E+03  0.49063321279E+03  0.45626167328E+03 0.  0.
      99925    2    3    3    0    0  0.97650489627E+02 -0.55043729329E+02  0.13754062928E+03  0.31728282478E+03  0.26303143526E+03 0.  0.
         25    1    4    4    0    0  0.75094614485E+02 -0.34749982257E+02  0.10909073025E+03  0.18545904647E+03  0.12509000000E+03 0.  0.
         25    1    3    3    0    0 -0.97650489627E+02  0.55043729329E+02  0.42865121703E+02  0.17335038800E+03  0.12509000000E+03 0.  0.
         25    1    4    4    0    0  0.22555875142E+02 -0.20293747072E+02  0.28449899029E+02  0.13182377831E+03  0.12509000000E+03 0.  0.
<mgrwt>
<rscale>  2 0.45626167E+03</rscale>
<asrwt>0</asrwt>
<pdfrwt beam="1">  1       21 0.49341100E-01 0.45626167E+03</pdfrwt>
<pdfrwt beam="2">  1       21 0.22810843E-01 0.45626167E+03</pdfrwt>
<totfact> 0.65277570E+04</totfact>
</mgrwt>
</event>
<event>
 7    0  0.4775379E-002  0.4449848E+03  0.7546771E-02  0.1029228E+00
         21   -1    0    0  502  501  0.00000000000E+00  0.00000000000E+00  0.15390228981E+03  0.15390228981E+03  0.00000000000E+00 0.  1.
         21   -1    0    0  501  502 -0.00000000000E+00 -0.00000000000E+00 -0.32165133069E+03  0.32165133069E+03  0.00000000000E+00 0.  1.
      99926    2    1    2    0    0  0.35527136788E-14  0.14210854715E-13 -0.16774904087E+03  0.47555362050E+03  0.44498483711E+03 0.  0.
      99925    2    3    3    0    0 -0.30652272223E+02 -0.93187878405E+02 -0.71293930125E+02  0.28961105151E+03  0.26299846808E+03 0.  0.
         25    1    4    4    0    0 -0.41498185716E+02 -0.50363000820E+02 -0.46856894832E+01  0.14116655077E+03  0.12509000000E+03 0.  0.
         25    1    4    4    0    0  0.10845913493E+02 -0.42824877585E+02 -0.66608240642E+02  0.14844450074E+03  0.12509000000E+03 0.  0.
         25    1    3    3    0    0  0.30652272223E+02  0.93187878405E+02 -0.96455110750E+02  0.18594256899E+03  0.12509000000E+03 0.  0.
<mgrwt>
<rscale>  2 0.44498484E+03</rscale>
<asrwt>0</asrwt>
<pdfrwt beam="1">  1       21 0.22632690E-01 0.44498484E+03</pdfrwt>
<pdfrwt beam="2">  1       21 0.47301665E-01 0.44498484E+03</pdfrwt>
<totfact> 0.72629587E+04</totfact>
</mgrwt>
</event>
<event>
 7    0  0.4775379E-002  0.4494734E+03  0.7546771E-02  0.1027879E+00
         21   -1    0    0  502  501  0.00000000000E+00  0.00000000000E+00  0.50241473861E+03  0.50241473861E+03  0.00000000000E+00 0.  1.
         21   -1    0    0  501  502 -0.00000000000E+00 -0.00000000000E+00 -0.10052766606E+03  0.10052766606E+03  0.00000000000E+00 0.  1.
      99926    2    1    2    0    0  0.71054273576E-14  0.00000000000E+00  0.40188707255E+03  0.60294240467E+03  0.44947338549E+03 0.  0.
      99925    2    3    3    0    0  0.61134152587E+02 -0.54829946887E+02  0.34791371670E+03  0.44386902874E+03  0.26311984478E+03 0.  0.
         25    1    4    4    0    0  0.30940655499E+02  0.78108545084E+01  0.13040032319E+03  0.18349410344E+03  0.12509000000E+03 0.  0.
         25    1    4    4    0    0  0.30193497088E+02 -0.62640801396E+02  0.21751339351E+03  0.26037492530E+03  0.12509000000E+03 0.  0.
         25    1    3    3    0    0 -0.61134152587E+02  0.54829946887E+02  0.53973355856E+02  0.15907337593E+03  0.12509000000E+03 0.  0.
<mgrwt>
<rscale>  2 0.44947339E+03</rscale>
<asrwt>0</asrwt>
<pdfrwt beam="1">  1       21 0.73884519E-01 0.44947339E+03</pdfrwt>
<pdfrwt beam="2">  1       21 0.14783481E-01 0.44947339E+03</pdfrwt>
<totfact> 0.61122884E+04</totfact>
</mgrwt>
</event>
<event>
 7    0  0.4775379E-002  0.4504084E+03  0.7546771E-02  0.1027600E+00
         21   -1    0    0  502  501  0.00000000000E+00  0.00000000000E+00  0.67042357460E+03  0.67042357460E+03  0.00000000000E+00 0. -1.
         21   -1    0    0  501  502 -0.00000000000E+00 -0.00000000000E+00 -0.75649083256E+02  0.75649083256E+02  0.00000000000E+00 0. -1.
      99926    2    1    2    0    0  0.00000000000E+00  0.17763568394E-14  0.59477449134E+03  0.74607265786E+03  0.45040838719E+03 0.  0.
      99925    2    3    3    0    0  0.10010846433E+03 -0.81105391396E+01  0.31453788875E+03  0.42316780034E+03  0.26466850645E+03 0.  0.
         25    1    4    4    0    0  0.11715697265E+02 -0.27691649439E+02  0.14072219156E+03  0.19066811036E+03  0.12509000000E+03 0.  0.
         25    1    3    3    0    0 -0.10010846433E+03  0.81105391396E+01  0.28023660259E+03  0.32290485752E+03  0.12509000000E+03 0.  0.
         25    1    4    4    0    0  0.88392767065E+02  0.19581110299E+02  0.17381569719E+03  0.23249968997E+03  0.12509000000E+03 0.  0.
<mgrwt>
<rscale>  2 0.45040839E+03</rscale>
<asrwt>0</asrwt>
<pdfrwt beam="1">  1       21 0.98591699E-01 0.45040839E+03</pdfrwt>
<pdfrwt beam="2">  1       21 0.11124866E-01 0.45040839E+03</pdfrwt>
<totfact> 0.52335273E+04</totfact>
</mgrwt>
</event>
<event>
 7    0  0.4775379E-002  0.4554086E+03  0.7546771E-02  0.1026121E+00
         21   -1    0    0  502  501  0.00000000000E+00  0.00000000000E+00  0.13957269325E+03  0.13957269325E+03  0.00000000000E+00 0. -1.
         21   -1    0    0  501  502 -0.00000000000E+00 -0.00000000000E+00 -0.37148563551E+03  0.37148563551E+03  0.00000000000E+00 0. -1.
      99926    2    1    2    0    0  0.00000000000E+00 -0.35527136788E-14 -0.23191294226E+03  0.51105832876E+03  0.45540861060E+03 0.  0.
      99925    2    3    3    0    0  0.40418319616E+02  0.28219345901E+02 -0.30110418699E+02  0.26856763067E+03  0.26228221992E+03 0.  0.
         25    1    4    4    0    0  0.58313275700E+02  0.24460328635E+02 -0.95810352710E+01  0.14049217109E+03  0.12509000000E+03 0.  0.
         25    1    3    3    0    0 -0.40418319616E+02 -0.28219345901E+02 -0.20180252356E+03  0.24249069809E+03  0.12509000000E+03 0.  0.
         25    1    4    4    0    0 -0.17894956084E+02  0.37590172657E+01 -0.20529383428E+02  0.12807545959E+03  0.12509000000E+03 0.  0.
<mgrwt>
<rscale>  2 0.45540861E+03</rscale>
<asrwt>0</asrwt>
<pdfrwt beam="1">  1       21 0.20525396E-01 0.45540861E+03</pdfrwt>
<pdfrwt beam="2">  1       21 0.54630241E-01 0.45540861E+03</pdfrwt>
<totfact> 0.64291817E+04</totfact>
</mgrwt>
</event>
<event>
 7    0  0.4775379E-002  0.4584001E+03  0.7546771E-02  0.1025246E+00
         21   -1    0    0  502  501  0.00000000000E+00  0.00000000000E+00  0.60975774435E+02  0.60975774435E+02  0.00000000000E+00 0. -1.
         21   -1    0    0  501  502 -0.00000000000E+00 -0.00000000000E+00 -0.86153316827E+03  0.86153316827E+03  0.00000000000E+00 0. -1.
      99926    2    1    2    0    0  0.00000000000E+00  0.00000000000E+00 -0.80055739384E+03  0.92250894271E+03  0.45840005295E+03 0.  0.
      99925    2    3    3    0    0  0.10557991616E+03 -0.47430647103E+02 -0.52483676251E+03  0.59836983735E+03  0.26305142081E+03 0.  0.
         25    1    4    4    0    0  0.92675225007E+02 -0.37984515989E+02 -0.26829236854E+03  0.31250571819E+03  0.12509000000E+03 0.  0.
         25    1    3    3    0    0 -0.10557991616E+03  0.47430647103E+02 -0.27572063133E+03  0.32413910536E+03  0.12509000000E+03 0.  0.
         25    1    4    4    0    0  0.12904691155E+02 -0.94461311143E+01 -0.25654439397E+03  0.28586411916E+03  0.12509000000E+03 0.  0.
<mgrwt>
<rscale>  2 0.45840005E+03</rscale>
<asrwt>0</asrwt>
<pdfrwt beam="1">  1       21 0.89670265E-02 0.45840005E+03</pdfrwt>
<pdfrwt beam="2">  1       21 0.12669604E+00 0.45840005E+03</pdfrwt>
<totfact> 0.41168388E+04</totfact>
</mgrwt>
</event>
<event>
 7    0  0.4775379E-002  0.4529921E+03  0.7546771E-02  0.1026834E+00
         21   -1    0    0  502  501  0.00000000000E+00  0.00000000000E+00  0.14201872984E+03  0.14201872984E+03  0.00000000000E+00 0. -1.
         21   -1    0    0  501  502 -0.00000000000E+00 -0.00000000000E+00 -0.36122324882E+03  0.36122324882E+03  0.00000000000E+00 0. -1.
      99926    2    1    2    0    0 -0.71054273576E-14 -0.71054273576E-14 -0.21920451898E+03  0.50324197866E+03  0.45299212791E+03 0.  0.
      99925    2    3    3    0    0 -0.30298440204E+02 -0.36440779437E+02 -0.25010385541E+03  0.36595322102E+03  0.26291423620E+03 0.  0.
         25    1    4    4    0    0 -0.37492981539E+02  0.14370243877E+02 -0.13518287714E+03  0.18850502897E+03  0.12509000000E+03 0.  0.
         25    1    4    4    0    0  0.71945413346E+01 -0.50811023315E+02 -0.11492097827E+03  0.17744819205E+03  0.12509000000E+03 0.  0.
         25    1    3    3    0    0  0.30298440204E+02  0.36440779437E+02  0.30899336429E+02  0.13728875765E+03  0.12509000000E+03 0.  0.
<mgrwt>
<rscale>  2 0.45299213E+03</rscale>
<asrwt>0</asrwt>
<pdfrwt beam="1">  1       21 0.20885108E-01 0.45299213E+03</pdfrwt>
<pdfrwt beam="2">  1       21 0.53121065E-01 0.45299213E+03</pdfrwt>
<totfact> 0.66090538E+04</totfact>
</mgrwt>
</event>
<event>
 6    0  0.4775379E-002  0.4510770E+03  0.7546771E-02  0.1027401E+00
         21   -1    0    0  502  501  0.00000000000E+00  0.00000000000E+00  0.22050973396E+03  0.22050973396E+03  0.00000000000E+00 0. -1.
         21   -1    0    0  501  502 -0.00000000000E+00 -0.00000000000E+00 -0.23068193858E+03  0.23068193858E+03  0.00000000000E+00 0. -1.
      99926    2    1    2    0    0  0.00000000000E+00  0.00000000000E+00 -0.10172204624E+02  0.45119167254E+03  0.45107699079E+03 0.  0.
         25    1    3    3    0    0 -0.88097088417E+02 -0.37177571505E+02 -0.19939481951E+02  0.15870841141E+03  0.12509000000E+03 0.  0.
         25    1    3    3    0    0 -0.90555509294E+01 -0.86580434168E+01  0.19928189167E+02  0.12728552762E+03  0.12509000000E+03 0.  0.
         25    1    3    3    0    0  0.97152639346E+02  0.45835614922E+02 -0.10160911840E+02  0.16519773351E+03  0.12509000000E+03 0.  0.
<mgrwt>
<rscale>  2 0.45107699E+03</rscale>
<asrwt>0</asrwt>
<pdfrwt beam="1">  1       21 0.32427902E-01 0.45107699E+03</pdfrwt>
<pdfrwt beam="2">  1       21 0.33923814E-01 0.45107699E+03</pdfrwt>
<totfact> 0.71022919E+04</totfact>
</mgrwt>
</event>
<event>
 7    0  0.4775379E-002  0.4258155E+03  0.7546771E-02  0.1035190E+00
         21   -1    0    0  502  501  0.00000000000E+00  0.00000000000E+00  0.26985332745E+02  0.26985332745E+02  0.00000000000E+00 0.  1.
         21   -1    0    0  501  502 -0.00000000000E+00 -0.00000000000E+00 -0.16797907474E+04  0.16797907474E+04  0.00000000000E+00 0.  1.
      99926    2    1    2    0    0  0.00000000000E+00  0.14210854715E-13 -0.16528054146E+04  0.17067760801E+04  0.42581551057E+03 0.  0.
      99925    2    3    3    0    0  0.40032238097E+02 -0.72430529413E+02 -0.10551632048E+04  0.10906003903E+04  0.26304193742E+03 0.  0.
         25    1    3    3    0    0 -0.40032238097E+02  0.72430529413E+02 -0.59764220981E+03  0.61617568982E+03  0.12509000000E+03 0.  0.
         25    1    4    4    0    0  0.86454972178E+00 -0.66487375465E+02 -0.62585438705E+03  0.64168726061E+03  0.12509000000E+03 0.  0.
         25    1    4    4    0    0  0.39167688375E+02 -0.59431539486E+01 -0.42930881778E+03  0.44891312970E+03  0.12509000000E+03 0.  0.
<mgrwt>
<rscale>  2 0.42581551E+03</rscale>
<asrwt>0</asrwt>
<pdfrwt beam="1">  1       21 0.39684306E-02 0.42581551E+03</pdfrwt>
<pdfrwt beam="2">  1       21 0.24702809E+00 0.42581551E+03</pdfrwt>
<totfact> 0.24145490E+04</totfact>
</mgrwt>
</event>
<event>
 7    0  0.4775379E-002  0.4515533E+03  0.7546771E-02  0.1027260E+00
         21   -1    0    0  502  501  0.00000000000E+00  0.00000000000E+00  0.42918136184E+03  0.42918136184E+03  0.00000000000E+00 0. -1.
         21   -1    0    0  501  502 -0.00000000000E+00 -0.00000000000E+00 -0.11877284088E+03  0.11877284088E+03  0.00000000000E+00 0. -1.
      99926    2    1    2    0    0  0.36082248300E-15  0.00000000000E+00  0.31040852096E+03  0.54795420272E+03  0.45155327304E+03 0.  0.
      99925    2    3    3    0    0  0.20879686961E+00 -0.11002777701E+03  0.19454219530E+03  0.34502892378E+03  0.26285383235E+03 0.  0.
         25    1    3    3    0    0 -0.20879686961E+00  0.11002777701E+03  0.11586632567E+03  0.20292527894E+03  0.12509000000E+03 0.  0.
         25    1    4    4    0    0 -0.13619426072E+02 -0.82526294342E+02  0.13861173636E+03  0.20458934376E+03  0.12509000000E+03 0.  0.
         25    1    4    4    0    0  0.13828222941E+02 -0.27501482664E+02  0.55930458941E+02  0.14043958002E+03  0.12509000000E+03 0.  0.
<mgrwt>
<rscale>  2 0.45155327E+03</rscale>
<asrwt>0</asrwt>
<pdfrwt beam="1">  1       21 0.63114905E-01 0.45155327E+03</pdfrwt>
<pdfrwt beam="2">  1       21 0.17466594E-01 0.45155327E+03</pdfrwt>
<totfact> 0.63721992E+04</totfact>
</mgrwt>
</event>
<event>
 7    0  0.4775379E-002  0.4555107E+03  0.7546771E-02  0.1026091E+00
         21   -1    0    0  502  501  0.00000000000E+00  0.00000000000E+00  0.13037016094E+03  0.13037016094E+03  0.00000000000E+00 0. -1.
         21   -1    0    0  501  502 -0.00000000000E+00 -0.00000000000E+00 -0.39788627138E+03  0.39788627138E+03  0.00000000000E+00 0. -1.
      99926    2    1    2    0    0  0.00000000000E+00  0.00000000000E+00 -0.26751611044E+03  0.52825643232E+03  0.45551069026E+03 0.  0.
      99925    2    3    3    0    0 -0.55782130099E+02  0.84404029019E+02 -0.22833479652E+03  0.36267150059E+03  0.26297937541E+03 0.  0.
         25    1    3    3    0    0  0.55782130099E+02 -0.84404029019E+02 -0.39181313922E+02  0.16558493172E+03  0.12509000000E+03 0.  0.
         25    1    4    4    0    0 -0.53356275103E+02  0.18008058915E+02 -0.13853949227E+03  0.19496635940E+03  0.12509000000E+03 0.  0.
         25    1    4    4    0    0 -0.24258549961E+01  0.66395970104E+02 -0.89795304247E+02  0.16770514120E+03  0.12509000000E+03 0.  0.
<mgrwt>
<rscale>  2 0.45551069E+03</rscale>
<asrwt>0</asrwt>
<pdfrwt beam="1">  1       21 0.19172083E-01 0.45551069E+03</pdfrwt>
<pdfrwt beam="2">  1       21 0.58512687E-01 0.45551069E+03</pdfrwt>
<totfact> 0.63069034E+04</totfact>
</mgrwt>
</event>
<event>
 7    0  0.4775379E-002  0.4131050E+03  0.7546771E-02  0.1039334E+00
         21   -1    0    0  502  501  0.00000000000E+00  0.00000000000E+00  0.59381244763E+02  0.59381244763E+02  0.00000000000E+00 0.  1.
         21   -1    0    0  501  502 -0.00000000000E+00 -0.00000000000E+00 -0.71847479410E+03  0.71847479410E+03  0.00000000000E+00 0.  1.
      99926    2    1    2    0    0  0.00000000000E+00  0.00000000000E+00 -0.65909354934E+03  0.77785603887E+03  0.41310496296E+03 0.  0.
      99925    2    3    3    0    0  0.56540866221E+02  0.34552448393E+02 -0.44705743193E+03  0.52290983978E+03  0.26302777772E+03 0.  0.
         25    1    4    4    0    0  0.51208215109E+02  0.26719437490E+02 -0.29641927075E+03  0.32687627905E+03  0.12509000000E+03 0.  0.
         25    1    3    3    0    0 -0.56540866221E+02 -0.34552448393E+02 -0.21203611741E+03  0.25494619909E+03  0.12509000000E+03 0.  0.
         25    1    4    4    0    0  0.53326511117E+01  0.78330109023E+01 -0.15063816119E+03  0.19603356073E+03  0.12509000000E+03 0.  0.
<mgrwt>
<rscale>  2 0.41310496E+03</rscale>
<asrwt>0</asrwt>
<pdfrwt beam="1">  1       21 0.87325357E-02 0.41310496E+03</pdfrwt>
<pdfrwt beam="2">  1       21 0.10565806E+00 0.41310496E+03</pdfrwt>
<totfact> 0.68857496E+04</totfact>
</mgrwt>
</event>
<event>
 7    0  0.4775379E-002  0.4540876E+03  0.7546771E-02  0.1026510E+00
         21   -1    0    0  502  501  0.00000000000E+00  0.00000000000E+00  0.13431096374E+03  0.13431096374E+03  0.00000000000E+00 0.  1.
         21   -1    0    0  501  502 -0.00000000000E+00 -0.00000000000E+00 -0.38380247252E+03  0.38380247252E+03  0.00000000000E+00 0.  1.
      99926    2    1    2    0    0  0.00000000000E+00  0.00000000000E+00 -0.24949150878E+03  0.51811343626E+03  0.45408756851E+03 0.  0.
      99925    2    3    3    0    0 -0.24601772935E+02  0.82641827068E+02 -0.75050557452E+02  0.28678667081E+03  0.26301918098E+03 0.  0.
         25    1    4    4    0    0 -0.39931915422E+02  0.55181053905E+02 -0.11220202958E+02  0.14287374718E+03  0.12509000000E+03 0.  0.
         25    1    3    3    0    0  0.24601772935E+02 -0.82641827068E+02 -0.17444095133E+03  0.23132676545E+03  0.12509000000E+03 0.  0.
         25    1    4    4    0    0  0.15330142487E+02  0.27460773163E+02 -0.63830354494E+02  0.14391292362E+03  0.12509000000E+03 0.  0.
<mgrwt>
<rscale>  2 0.45408757E+03</rscale>
<asrwt>0</asrwt>
<pdfrwt beam="1">  1       21 0.19751613E-01 0.45408757E+03</pdfrwt>
<pdfrwt beam="2">  1       21 0.56441538E-01 0.45408757E+03</pdfrwt>
<totfact> 0.64481530E+04</totfact>
</mgrwt>
</event>
<event>
 7    0  0.4775379E-002  0.4588779E+03  0.7546771E-02  0.1025107E+00
         21   -1    0    0  502  501  0.00000000000E+00  0.00000000000E+00  0.23902552726E+03  0.23902552726E+03  0.00000000000E+00 0.  1.
         21   -1    0    0  501  502 -0.00000000000E+00 -0.00000000000E+00 -0.22023687657E+03  0.22023687657E+03  0.00000000000E+00 0.  1.
      99926    2    1    2    0    0  0.00000000000E+00  0.00000000000E+00  0.18788650690E+02  0.45926240383E+03  0.45887791642E+03 0.  0.
      99925    2    3    3    0    0  0.11626808859E+03 -0.86460286152E+01  0.86691566685E+01  0.28796460906E+03  0.26316428245E+03 0.  0.
         25    1    4    4    0    0  0.53351793784E+02  0.18085082886E+02 -0.29643519106E+02  0.14035572823E+03  0.12509000000E+03 0.  0.
         25    1    3    3    0    0 -0.11626808859E+03  0.86460286152E+01  0.10119494022E+02  0.17129779477E+03  0.12509000000E+03 0.  0.
         25    1    4    4    0    0  0.62916294803E+02 -0.26731111501E+02  0.38312675775E+02  0.14760888083E+03  0.12509000000E+03 0.  0.
<mgrwt>
<rscale>  2 0.45887792E+03</rscale>
<asrwt>0</asrwt>
<pdfrwt beam="1">  1       21 0.35150813E-01 0.45887792E+03</pdfrwt>
<pdfrwt beam="2">  1       21 0.32387776E-01 0.45887792E+03</pdfrwt>
<totfact> 0.66163651E+04</totfact>
</mgrwt>
</event>
<event>
 7    0  0.4775379E-002  0.4565228E+03  0.7546771E-02  0.1025795E+00
         21   -1    0    0  502  501  0.00000000000E+00  0.00000000000E+00  0.65263378589E+03  0.65263378589E+03  0.00000000000E+00 0. -1.
         21   -1    0    0  501  502 -0.00000000000E+00 -0.00000000000E+00 -0.79835389844E+02  0.79835389844E+02  0.00000000000E+00 0. -1.
      99926    2    1    2    0    0  0.00000000000E+00 -0.71054273576E-14  0.57279839604E+03  0.73246917573E+03  0.45652282625E+03 0.  0.
      99925    2    3    3    0    0  0.27284667567E+02 -0.55866083797E+02  0.20537261438E+03  0.33938561523E+03  0.26294336403E+03 0.  0.
         25    1    4    4    0    0  0.32251161394E+02 -0.36081026358E+02  0.14957853106E+03  0.20090600521E+03  0.12509000000E+03 0.  0.
         25    1    3    3    0    0 -0.27284667567E+02  0.55866083797E+02  0.36742578167E+03  0.39308356050E+03  0.12509000000E+03 0.  0.
         25    1    4    4    0    0 -0.49664938274E+01 -0.19785057439E+02  0.55794083316E+02  0.13847961002E+03  0.12509000000E+03 0.  0.
<mgrwt>
<rscale>  2 0.45652283E+03</rscale>
<asrwt>0</asrwt>
<pdfrwt beam="1">  1       21 0.95975554E-01 0.45652283E+03</pdfrwt>
<pdfrwt beam="2">  1       21 0.11740499E-01 0.45652283E+03</pdfrwt>
<totfact> 0.50567104E+04</totfact>
</mgrwt>
</event>
<event>
 7    0  0.4775379E-002  0.4562917E+03  0.7546771E-02  0.1025862E+00
         21   -1    0    0  502  501  0.00000000000E+00  0.00000000000E+00  0.99660625193E+03  0.99660625193E+03  0.00000000000E+00 0.  1.
         21   -1    0    0  501  502 -0.00000000000E+00 -0.00000000000E+00 -0.52227787789E+02  0.52227787789E+02  0.00000000000E+00 0.  1.
      99926    2    1    2    0    0  0.00000000000E+00 -0.13322676296E-14  0.94437846414E+03  0.10488340397E+04  0.45629174805E+03 0.  0.
      99925    2    3    3    0    0 -0.57006894703E+02 -0.30538998429E+01  0.36592993813E+03  0.45426754412E+03  0.26304974752E+03 0.  0.
         25    1    4    4    0    0 -0.59245398842E+02 -0.12256920480E+02  0.23451110953E+03  0.27258616615E+03  0.12509000000E+03 0.  0.
         25    1    4    4    0    0  0.22385041386E+01  0.92030206372E+01  0.13141882860E+03  0.18168137797E+03  0.12509000000E+03 0.  0.
         25    1    3    3    0    0  0.57006894703E+02  0.30538998429E+01  0.57844852601E+03  0.59456649560E+03  0.12509000000E+03 0.  0.
<mgrwt>
<rscale>  2 0.45629175E+03</rscale>
<asrwt>0</asrwt>
<pdfrwt beam="1">  1       21 0.14655973E+00 0.45629175E+03</pdfrwt>
<pdfrwt beam="2">  1       21 0.76805576E-02 0.45629175E+03</pdfrwt>
<totfact> 0.36946280E+04</totfact>
</mgrwt>
</event>
<event>
 7    0  0.4775379E-002  0.4466905E+03  0.7546771E-02  0.1028714E+00
         21   -1    0    0  502  501  0.00000000000E+00  0.00000000000E+00  0.32150552119E+02  0.32150552119E+02  0.00000000000E+00 0.  1.
         21   -1    0    0  501  502 -0.00000000000E+00 -0.00000000000E+00 -0.15515470560E+04  0.15515470560E+04  0.00000000000E+00 0.  1.
      99926    2    1    2    0    0  0.14210854715E-13  0.00000000000E+00 -0.15193965039E+04  0.15836976081E+04  0.44669047220E+03 0.  0.
      99925    2    3    3    0    0 -0.76144489657E+02 -0.62158233445E+02 -0.10953176841E+04  0.11307605454E+04  0.26312915586E+03 0.  0.
         25    1    3    3    0    0  0.76144489657E+02  0.62158233445E+02 -0.42407881983E+03  0.45293706276E+03  0.12509000000E+03 0.  0.
         25    1    4    4    0    0 -0.33996610163E+01 -0.80724500878E+01 -0.53882126037E+03  0.55322019203E+03  0.12509000000E+03 0.  0.
         25    1    4    4    0    0 -0.72744828640E+02 -0.54085783357E+02 -0.55649642369E+03  0.57754035334E+03  0.12509000000E+03 0.  0.
<mgrwt>
<rscale>  2 0.44669047E+03</rscale>
<asrwt>0</asrwt>
<pdfrwt beam="1">  1       21 0.47280229E-02 0.44669047E+03</pdfrwt>
<pdfrwt beam="2">  1       21 0.22816866E+00 0.44669047E+03</pdfrwt>
<totfact> 0.23265842E+04</totfact>
</mgrwt>
</event>
<event>
 7    0  0.4775379E-002  0.4554589E+03  0.7546771E-02  0.1026107E+00
         21   -1    0    0  502  501  0.00000000000E+00  0.00000000000E+00  0.64990935539E+02  0.64990935539E+02  0.00000000000E+00 0.  1.
         21   -1    0    0  501  502 -0.00000000000E+00 -0.00000000000E+00 -0.79796826620E+03  0.79796826620E+03  0.00000000000E+00 0.  1.
      99926    2    1    2    0    0 -0.14210854715E-13  0.88817841970E-15 -0.73297733066E+03  0.86295920174E+03  0.45545890770E+03 0.  0.
      99925    2    3    3    0    0 -0.11235537379E+03  0.37133305108E+01 -0.42903659978E+03  0.51559052895E+03  0.26291380860E+03 0.  0.
         25    1    4    4    0    0 -0.17161281676E+02 -0.16767316892E+02 -0.18645443628E+03  0.22580615008E+03  0.12509000000E+03 0.  0.
         25    1    3    3    0    0  0.11235537379E+03 -0.37133305108E+01 -0.30394073088E+03  0.34736867279E+03  0.12509000000E+03 0.  0.
         25    1    4    4    0    0 -0.95194092118E+02  0.20480647403E+02 -0.24258216349E+03  0.28978437887E+03  0.12509000000E+03 0.  0.
<mgrwt>
<rscale>  2 0.45545891E+03</rscale>
<asrwt>0</asrwt>
<pdfrwt beam="1">  1       21 0.95574911E-02 0.45545891E+03</pdfrwt>
<pdfrwt beam="2">  1       21 0.11734827E+00 0.45545891E+03</pdfrwt>
<totfact> 0.44703940E+04</totfact>
</mgrwt>
</event>
<event>
 7    0  0.4775379E-002  0.4722331E+03  0.7546771E-02  0.1021292E+00
         21   -1    0    0  502  501  0.00000000000E+00  0.00000000000E+00  0.14194904226E+03  0.14194904226E+03  0.00000000000E+00 0. -1.
         21   -1    0    0  501  502 -0.00000000000E+00 -0.00000000000E+00 -0.39275378949E+03  0.39275378949E+03  0.00000000000E+00 0. -1.
      99926    2    1    2    0    0  0.00000000000E+00  0.00000000000E+00 -0.25080474722E+03  0.53470283175E+03  0.47223309610E+03 0.  0.
      99925    2    3    3    0    0  0.74674559145E+02  0.93146014274E+02 -0.21002962386E+03  0.35704420251E+03  0.26289855437E+03 0.  0.
         25    1    4    4    0    0 -0.25784375694E+01  0.46995699011E+02 -0.11232647853E+03  0.17458519394E+03  0.12509000000E+03 0.  0.
         25    1    4    4    0    0  0.77252996714E+02  0.46150315263E+02 -0.97703145326E+02  0.18245900857E+03  0.12509000000E+03 0.  0.
         25    1    3    3    0    0 -0.74674559145E+02 -0.93146014274E+02 -0.40775123369E+02  0.17765862924E+03  0.12509000000E+03 0.  0.
<mgrwt>
<rscale>  2 0.47223310E+03</rscale>
<asrwt>0</asrwt>
<pdfrwt beam="1">  1       21 0.20874860E-01 0.47223310E+03</pdfrwt>
<pdfrwt beam="2">  1       21 0.57757909E-01 0.47223310E+03</pdfrwt>
<totfact> 0.54984911E+04</totfact>
</mgrwt>
</event>
<event>
 7    0  0.4775379E-002  0.4518880E+03  0.7546771E-02  0.1027161E+00
         21   -1    0    0  502  501  0.00000000000E+00  0.00000000000E+00  0.34049097484E+03  0.34049097484E+03  0.00000000000E+00 0. -1.
         21   -1    0    0  501  502 -0.00000000000E+00 -0.00000000000E+00 -0.14993259281E+03  0.14993259281E+03  0.00000000000E+00 0. -1.
      99926    2    1    2    0    0  0.71054273576E-14  0.00000000000E+00  0.19055838203E+03  0.49042356765E+03  0.45188801571E+03 0.  0.
      99925    2    3    3    0    0 -0.42299930522E+02  0.71044317323E+02  0.19937484082E+03  0.34021765168E+03  0.26298506462E+03 0.  0.
         25    1    4    4    0    0 -0.58696860678E+02  0.24700151431E+02  0.88054240902E+02  0.16569995889E+03  0.12509000000E+03 0.  0.
         25    1    4    4    0    0  0.16396930156E+02  0.46344165892E+02  0.11132059992E+03  0.17451769279E+03  0.12509000000E+03 0.  0.
         25    1    3    3    0    0  0.42299930522E+02 -0.71044317323E+02 -0.88164587892E+01  0.15020591597E+03  0.12509000000E+03 0.  0.
<mgrwt>
<rscale>  2 0.45188802E+03</rscale>
<asrwt>0</asrwt>
<pdfrwt beam="1">  1       21 0.50072202E-01 0.45188802E+03</pdfrwt>
<pdfrwt beam="2">  1       21 0.22048911E-01 0.45188802E+03</pdfrwt>
<totfact> 0.67603582E+04</totfact>
</mgrwt>
</event>
<event>
 6    0  0.4775379E-002  0.4590557E+03  0.7546771E-02  0.1025055E+00
         21   -1    0    0  502  501  0.00000000000E+00  0.00000000000E+00  0.22043931483E+04  0.22043931483E+04  0.00000000000E+00 0. -1.
         21   -1    0    0  501  502 -0.00000000000E+00 -0.00000000000E+00 -0.23899114814E+02  0.23899114814E+02  0.00000000000E+00 0. -1.
      99926    2    1    2    0    0  0.71054273576E-14  0.14210854715E-13  0.21804940335E+04  0.22282922631E+04  0.45905574801E+03 0.  0.
         25    1    3    3    0    0 -0.46184540948E+02 -0.37488980331E+02  0.96255381375E+03  0.97246891361E+03  0.12509000000E+03 0.  0.
         25    1    3    3    0    0 -0.15361170719E+02 -0.56249926837E+02  0.53190230111E+03  0.54951577399E+03  0.12509000000E+03 0.  0.
         25    1    3    3    0    0  0.61545711667E+02  0.93738907168E+02  0.68603791860E+03  0.70630757549E+03  0.12509000000E+03 0.  0.
<mgrwt>
<rscale>  2 0.45905575E+03</rscale>
<asrwt>0</asrwt>
<pdfrwt beam="1">  1       21 0.32417532E+00 0.45905575E+03</pdfrwt>
<pdfrwt beam="2">  1       21 0.35145772E-02 0.45905575E+03</pdfrwt>
<totfact> 0.10008813E+04</totfact>
</mgrwt>
</event>
<event>
 7    0  0.4775379E-002  0.4568413E+03  0.7546771E-02  0.1025701E+00
         21   -1    0    0  502  501  0.00000000000E+00  0.00000000000E+00  0.47401260650E+03  0.47401260650E+03  0.00000000000E+00 0.  1.
         21   -1    0    0  501  502 -0.00000000000E+00 -0.00000000000E+00 -0.11007303049E+03  0.11007303049E+03  0.00000000000E+00 0.  1.
      99926    2    1    2    0    0  0.14210854715E-13 -0.88817841970E-15  0.36393957601E+03  0.58408563698E+03  0.45684134701E+03 0.  0.
      99925    2    3    3    0    0  0.10790596687E+03  0.75968674252E+01  0.18068816859E+03  0.33724561490E+03  0.26341028913E+03 0.  0.
         25    1    3    3    0    0 -0.10790596687E+03 -0.75968674252E+01  0.18325140742E+03  0.24684002209E+03  0.12509000000E+03 0.  0.
         25    1    4    4    0    0  0.82621515137E+02 -0.29153296249E+01  0.13354915493E+03  0.20079267614E+03  0.12509000000E+03 0.  0.
         25    1    4    4    0    0  0.25284451732E+02  0.10512197050E+02  0.47139013662E+02  0.13645293876E+03  0.12509000000E+03 0.  0.
<mgrwt>
<rscale>  2 0.45684135E+03</rscale>
<asrwt>0</asrwt>
<pdfrwt beam="1">  1       21 0.69707735E-01 0.45684135E+03</pdfrwt>
<pdfrwt beam="2">  1       21 0.16187211E-01 0.45684135E+03</pdfrwt>
<totfact> 0.58808014E+04</totfact>
</mgrwt>
</event>
<event>
 7    0  0.4775379E-002  0.4572526E+03  0.7546771E-02  0.1025581E+00
         21   -1    0    0  502  501  0.00000000000E+00  0.00000000000E+00  0.25165244850E+03  0.25165244850E+03  0.00000000000E+00 0.  1.
         21   -1    0    0  501  502 -0.00000000000E+00 -0.00000000000E+00 -0.20770706619E+03  0.20770706619E+03  0.00000000000E+00 0.  1.
      99926    2    1    2    0    0  0.00000000000E+00  0.14210854715E-13  0.43945382304E+02  0.45935951469E+03  0.45725262942E+03 0.  0.
      99925    2    3    3    0    0 -0.70784888298E+02  0.89000950351E+02  0.87914144573E+01  0.28668936924E+03  0.26302440170E+03 0.  0.
         25    1    3    3    0    0  0.70784888298E+02 -0.89000950351E+02  0.35153967847E+02  0.17267014545E+03  0.12509000000E+03 0.  0.
         25    1    4    4    0    0 -0.43342049008E+02  0.69892217784E+02 -0.27520338831E+02  0.15221147285E+03  0.12509000000E+03 0.  0.
         25    1    4    4    0    0 -0.27442839290E+02  0.19108732567E+02  0.36311753289E+02  0.13447789638E+03  0.12509000000E+03 0.  0.
<mgrwt>
<rscale>  2 0.45725263E+03</rscale>
<asrwt>0</asrwt>
<pdfrwt beam="1">  1       21 0.37007713E-01 0.45725263E+03</pdfrwt>
<pdfrwt beam="2">  1       21 0.30545157E-01 0.45725263E+03</pdfrwt>
<totfact> 0.67015022E+04</totfact>
</mgrwt>
</event>
<event>
 7    0  0.4775379E-002  0.4537526E+03  0.7546771E-02  0.1026609E+00
         21   -1    0    0  502  501  0.00000000000E+00  0.00000000000E+00  0.29649155212E+03  0.29649155212E+03  0.00000000000E+00 0.  1.
         21   -1    0    0  501  502 -0.00000000000E+00 -0.00000000000E+00 -0.17360644464E+03  0.17360644464E+03  0.00000000000E+00 0.  1.
      99926    2    1    2    0    0  0.14210854715E-13  0.00000000000E+00  0.12288510748E+03  0.47009799676E+03  0.45375255031E+03 0.  0.
      99925    2    3    3    0    0  0.69678411052E+02 -0.47946376331E+02  0.15357889170E+03  0.31600856669E+03  0.26290873374E+03 0.  0.
         25    1    4    4    0    0  0.48400554237E+01 -0.38686520350E+02  0.10062603314E+03  0.16520647578E+03  0.12509000000E+03 0.  0.
         25    1    3    3    0    0 -0.69678411052E+02  0.47946376331E+02 -0.30693784218E+02  0.15408943007E+03  0.12509000000E+03 0.  0.
         25    1    4    4    0    0  0.64838355629E+02 -0.92598559810E+01  0.52952858560E+02  0.15080209091E+03  0.12509000000E+03 0.  0.
<mgrwt>
<rscale>  2 0.45375255E+03</rscale>
<asrwt>0</asrwt>
<pdfrwt beam="1">  1       21 0.43601699E-01 0.45375255E+03</pdfrwt>
<pdfrwt beam="2">  1       21 0.25530360E-01 0.45375255E+03</pdfrwt>
<totfact> 0.68099882E+04</totfact>
</mgrwt>
</event>
<event>
 7    0  0.4775379E-002  0.4590022E+03  0.7546771E-02  0.1025071E+00
         21   -1    0    0  502  501  0.00000000000E+00  0.00000000000E+00  0.67072216003E+03  0.67072216003E+03  0.00000000000E+00 0. -1.
         21   -1    0    0  501  502 -0.00000000000E+00 -0.00000000000E+00 -0.78528426713E+02  0.78528426713E+02  0.00000000000E+00 0. -1.
      99926    2    1    2    0    0  0.00000000000E+00  0.00000000000E+00  0.59219373332E+03  0.74925058674E+03  0.45900220474E+03 0.  0.
      99925    2    3    3    0    0  0.64491685174E+02  0.82501293106E+02  0.28554723097E+03  0.40191036977E+03  0.26273386420E+03 0.  0.
         25    1    4    4    0    0  0.60417430486E+02  0.13871016675E+02  0.12939856523E+03  0.19035274570E+03  0.12509000000E+03 0.  0.
         25    1    3    3    0    0 -0.64491685174E+02 -0.82501293106E+02  0.30664650235E+03  0.34734021697E+03  0.12509000000E+03 0.  0.
         25    1    4    4    0    0  0.40742546881E+01  0.68630276431E+02  0.15614866574E+03  0.21155762408E+03  0.12509000000E+03 0.  0.
<mgrwt>
<rscale>  2 0.45900220E+03</rscale>
<asrwt>0</asrwt>
<pdfrwt beam="1">  1       21 0.98635609E-01 0.45900220E+03</pdfrwt>
<pdfrwt beam="2">  1       21 0.11548298E-01 0.45900220E+03</pdfrwt>
<totfact> 0.48757290E+04</totfact>
</mgrwt>
</event>
<event>
 7    0  0.4775379E-002  0.4576339E+03  0.7546771E-02  0.1025470E+00
         21   -1    0    0  502  501  0.00000000000E+00  0.00000000000E+00  0.23980231728E+04  0.23980231728E+04  0.00000000000E+00 0.  1.
         21   -1    0    0  501  502 -0.00000000000E+00 -0.00000000000E+00 -0.21833482497E+02  0.21833482497E+02  0.00000000000E+00 0.  1.
      99926    2    1    2    0    0  0.00000000000E+00  0.71054273576E-14  0.23761896903E+04  0.24198566553E+04  0.45763390159E+03 0.  0.
      99925    2    3    3    0    0 -0.38739793507E+02  0.42275199523E+02  0.20225948060E+04  0.20404297000E+04  0.26301263715E+03 0.  0.
         25    1    3    3    0    0  0.38739793507E+02 -0.42275199523E+02  0.35359488425E+03  0.37942695524E+03  0.12509000000E+03 0.  0.
         25    1    4    4    0    0 -0.49807016061E+02  0.43701559329E+02  0.11962208732E+04  0.12045673292E+04  0.12509000000E+03 0.  0.
         25    1    4    4    0    0  0.11067222553E+02 -0.14263598057E+01  0.82637393288E+03  0.83586237082E+03  0.12509000000E+03 0.  0.
<mgrwt>
<rscale>  2 0.45763390E+03</rscale>
<asrwt>0</asrwt>
<pdfrwt beam="1">  1       21 0.35265029E+00 0.45763390E+03</pdfrwt>
<pdfrwt beam="2">  1       21 0.32108079E-02 0.45763390E+03</pdfrwt>
<totfact> 0.78254648E+03</totfact>
</mgrwt>
</event>
<event>
 7    0  0.4775379E-002  0.4567276E+03  0.7546771E-02  0.1025735E+00
         21   -1    0    0  502  501  0.00000000000E+00  0.00000000000E+00  0.17210545212E+03  0.17210545212E+03  0.00000000000E+00 0. -1.
         21   -1    0    0  501  502 -0.00000000000E+00 -0.00000000000E+00 -0.30301200782E+03  0.30301200782E+03  0.00000000000E+00 0. -1.
      99926    2    1    2    0    0  0.00000000000E+00  0.00000000000E+00 -0.13090655570E+03  0.47511745993E+03  0.45672757133E+03 0.  0.
      99925    2    3    3    0    0 -0.44448226341E+02 -0.84111577784E+02 -0.15777905670E+02  0.28030340372E+03  0.26319318662E+03 0.  0.
         25    1    3    3    0    0  0.44448226341E+02  0.84111577784E+02 -0.11512865003E+03  0.19481405622E+03  0.12509000000E+03 0.  0.
         25    1    4    4    0    0  0.14795024822E+01 -0.15733657699E+02  0.16296259814E+02  0.12713305273E+03  0.12509000000E+03 0.  0.
         25    1    4    4    0    0 -0.45927728824E+02 -0.68377920086E+02 -0.32074165484E+02  0.15317035099E+03  0.12509000000E+03 0.  0.
<mgrwt>
<rscale>  2 0.45672757E+03</rscale>
<asrwt>0</asrwt>
<pdfrwt beam="1">  1       21 0.25309625E-01 0.45672757E+03</pdfrwt>
<pdfrwt beam="2">  1       21 0.44560589E-01 0.45672757E+03</pdfrwt>
<totfact> 0.66145827E+04</totfact>
</mgrwt>
</event>
<event>
 7    0  0.4775379E-002  0.4519716E+03  0.7546771E-02  0.1027136E+00
         21   -1    0    0  502  501  0.00000000000E+00  0.00000000000E+00  0.87409019530E+03  0.87409019530E+03  0.00000000000E+00 0. -1.
         21   -1    0    0  501  502 -0.00000000000E+00 -0.00000000000E+00 -0.58425983015E+02  0.58425983015E+02  0.00000000000E+00 0. -1.
      99926    2    1    2    0    0  0.00000000000E+00  0.00000000000E+00  0.81566421229E+03  0.93251617832E+03  0.45197158718E+03 0.  0.
      99925    2    3    3    0    0 -0.89865482266E+02 -0.52200739351E+02  0.59106617898E+03  0.65522119683E+03  0.26297312933E+03 0.  0.
         25    1    3    3    0    0  0.89865482266E+02  0.52200739351E+02  0.22459803330E+03  0.27729498148E+03  0.12509000000E+03 0.  0.
         25    1    4    4    0    0 -0.17818912049E+02 -0.40151533551E+02  0.21970028036E+03  0.25660354745E+03  0.12509000000E+03 0.  0.
         25    1    4    4    0    0 -0.72046570218E+02 -0.12049205800E+02  0.37136589863E+03  0.39861764939E+03  0.12509000000E+03 0.  0.
<mgrwt>
<rscale>  2 0.45197159E+03</rscale>
<asrwt>0</asrwt>
<pdfrwt beam="1">  1       21 0.12854267E+00 0.45197159E+03</pdfrwt>
<pdfrwt beam="2">  1       21 0.85920568E-02 0.45197159E+03</pdfrwt>
<totfact> 0.42863309E+04</totfact>
</mgrwt>
</event>
<event>
 7    0  0.4775379E-002  0.4581004E+03  0.7546771E-02  0.1025334E+00
         21   -1    0    0  502  501  0.00000000000E+00  0.00000000000E+00  0.36226561868E+03  0.36226561868E+03  0.00000000000E+00 0. -1.
         21   -1    0    0  501  502 -0.00000000000E+00 -0.00000000000E+00 -0.14482191658E+03  0.14482191658E+03  0.00000000000E+00 0. -1.
      99926    2    1    2    0    0  0.00000000000E+00  0.53290705182E-14  0.21744370210E+03  0.50708753525E+03  0.45810043094E+03 0.  0.
      99925    2    3    3    0    0  0.60554707616E+02  0.13081752696E+01  0.24599217355E+03  0.36520340203E+03  0.26304522704E+03 0.  0.
         25    1    4    4    0    0  0.41479211709E+02 -0.38394420430E+02  0.12184924381E+03  0.18354673203E+03  0.12509000000E+03 0.  0.
         25    1    4    4    0    0  0.19075495907E+02  0.39702595700E+02  0.12414292975E+03  0.18165667000E+03  0.12509000000E+03 0.  0.
         25    1    3    3    0    0 -0.60554707616E+02 -0.13081752696E+01 -0.28548471454E+02  0.14188413322E+03  0.12509000000E+03 0.  0.
<mgrwt>
<rscale>  2 0.45810043E+03</rscale>
<asrwt>0</asrwt>
<pdfrwt beam="1">  1       21 0.53274355E-01 0.45810043E+03</pdfrwt>
<pdfrwt beam="2">  1       21 0.21297341E-01 0.45810043E+03</pdfrwt>
<totfact> 0.63205755E+04</totfact>
</mgrwt>
</event>
<event>
 7    0  0.4775379E-002  0.4524279E+03  0.7546771E-02  0.1027000E+00
         21   -1    0    0  502  501  0.00000000000E+00  0.00000000000E+00  0.25705662507E+03  0.25705662507E+03  0.00000000000E+00 0.  1.
         21   -1    0    0  501  502 -0.00000000000E+00 -0.00000000000E+00 -0.19907188024E+03  0.19907188024E+03  0.00000000000E+00 0.  1.
      99926    2    1    2    0    0  0.00000000000E+00  0.00000000000E+00  0.57984744823E+02  0.45612850531E+03  0.45242787571E+03 0.  0.
      99925    2    3    3    0    0  0.36230471775E+02  0.55229904877E+02  0.12550048702E+03  0.29938389448E+03  0.26366143927E+03 0.  0.
         25    1    4    4    0    0  0.57900910208E+02  0.25574974020E+02  0.79312212496E+02  0.16107305749E+03  0.12509000000E+03 0.  0.
         25    1    4    4    0    0 -0.21670438433E+02  0.29654930858E+02  0.46188274523E+02  0.13831083699E+03  0.12509000000E+03 0.  0.
         25    1    3    3    0    0 -0.36230471775E+02 -0.55229904877E+02 -0.67515742195E+02  0.15674461082E+03  0.12509000000E+03 0.  0.
<mgrwt>
<rscale>  2 0.45242788E+03</rscale>
<asrwt>0</asrwt>
<pdfrwt beam="1">  1       21 0.37802445E-01 0.45242788E+03</pdfrwt>
<pdfrwt beam="2">  1       21 0.29275276E-01 0.45242788E+03</pdfrwt>
<totfact> 0.69886182E+04</totfact>
</mgrwt>
</event>
<event>
 7    0  0.4775379E-002  0.4573447E+03  0.7546771E-02  0.1025554E+00
         21   -1    0    0  502  501  0.00000000000E+00  0.00000000000E+00  0.18081706877E+04  0.18081706877E+04  0.00000000000E+00 0.  1.
         21   -1    0    0  501  502 -0.00000000000E+00 -0.00000000000E+00 -0.28919312512E+02  0.28919312512E+02  0.00000000000E+00 0.  1.
      99926    2    1    2    0    0  0.14210854715E-13 -0.71054273576E-14  0.17792513752E+04  0.18370900002E+04  0.45734474171E+03 0.  0.
      99925    2    3    3    0    0  0.78017611950E+02 -0.48567753773E+02  0.83351317902E+03  0.87869873446E+03  0.26252937332E+03 0.  0.
         25    1    3    3    0    0 -0.78017611950E+02  0.48567753773E+02  0.94573819615E+03  0.95839126574E+03  0.12509000000E+03 0.  0.
         25    1    4    4    0    0  0.56098558574E+01 -0.36369372945E+02  0.45610448888E+03  0.47437644825E+03  0.12509000000E+03 0.  0.
         25    1    4    4    0    0  0.72407756092E+02 -0.12198380828E+02  0.37740869013E+03  0.40432228621E+03  0.12509000000E+03 0.  0.
<mgrwt>
<rscale>  2 0.45734474E+03</rscale>
<asrwt>0</asrwt>
<pdfrwt beam="1">  1       21 0.26590738E+00 0.45734474E+03</pdfrwt>
<pdfrwt beam="2">  1       21 0.42528413E-02 0.45734474E+03</pdfrwt>
<totfact> 0.16259446E+04</totfact>
</mgrwt>
</event>
<event>
 7    0  0.4775379E-002  0.4518233E+03  0.7546771E-02  0.1027180E+00
         21   -1    0    0  502  501  0.00000000000E+00  0.00000000000E+00  0.86514783107E+02  0.86514783107E+02  0.00000000000E+00 0. -1.
         21   -1    0    0  501  502 -0.00000000000E+00 -0.00000000000E+00 -0.58991157807E+03  0.58991157807E+03  0.00000000000E+00 0. -1.
      99926    2    1    2    0    0  0.00000000000E+00 -0.14210854715E-13 -0.50339679496E+03  0.67642636118E+03  0.45182329391E+03 0.  0.
      99925    2    3    3    0    0 -0.70183447283E+02 -0.82306095130E+02 -0.28586765566E+03  0.40317474798E+03  0.26292499176E+03 0.  0.
         25    1    3    3    0    0  0.70183447283E+02  0.82306095130E+02 -0.21752913930E+03  0.27325161319E+03  0.12509000000E+03 0.  0.
         25    1    4    4    0    0 -0.25955975605E+02 -0.73586822432E+02 -0.18337589609E+03  0.23529334982E+03  0.12509000000E+03 0.  0.
         25    1    4    4    0    0 -0.44227471678E+02 -0.87192726974E+01 -0.10249175958E+03  0.16788139816E+03  0.12509000000E+03 0.  0.
<mgrwt>
<rscale>  2 0.45182329E+03</rscale>
<asrwt>0</asrwt>
<pdfrwt beam="1">  1       21 0.12722762E-01 0.45182329E+03</pdfrwt>
<pdfrwt beam="2">  1       21 0.86751705E-01 0.45182329E+03</pdfrwt>
<totfact> 0.55579640E+04</totfact>
</mgrwt>
</event>
<event>
 7    0  0.4775379E-002  0.4549955E+03  0.7546771E-02  0.1026243E+00
         21   -1    0    0  502  501  0.00000000000E+00  0.00000000000E+00  0.12081000169E+04  0.12081000169E+04  0.00000000000E+00 0.  1.
         21   -1    0    0  501  502 -0.00000000000E+00 -0.00000000000E+00 -0.42840189381E+02  0.42840189381E+02  0.00000000000E+00 0.  1.
      99926    2    1    2    0    0  0.14210854715E-13  0.71054273576E-14  0.11652598275E+04  0.12509402063E+04  0.45499553191E+03 0.  0.
      99925    2    3    3    0    0 -0.98338837115E+02 -0.53661989404E+02  0.77766244541E+03  0.82853119275E+03  0.26297323508E+03 0.  0.
         25    1    4    4    0    0 -0.51344218924E+02  0.12385497038E+02  0.33625934853E+03  0.36263961026E+03  0.12509000000E+03 0.  0.
         25    1    4    4    0    0 -0.46994618191E+02 -0.66047486441E+02  0.44140309688E+03  0.46589158249E+03  0.12509000000E+03 0.  0.
         25    1    3    3    0    0  0.98338837115E+02  0.53661989404E+02  0.38759738211E+03  0.42240901353E+03  0.12509000000E+03 0.  0.
<mgrwt>
<rscale>  2 0.45499553E+03</rscale>
<asrwt>0</asrwt>
<pdfrwt beam="1">  1       21 0.17766175E+00 0.45499553E+03</pdfrwt>
<pdfrwt beam="2">  1       21 0.63000286E-02 0.45499553E+03</pdfrwt>
<totfact> 0.30574494E+04</totfact>
</mgrwt>
</event>
<event>
 7    0  0.4775379E-002  0.4476643E+03  0.7546771E-02  0.1028421E+00
         21   -1    0    0  502  501  0.00000000000E+00  0.00000000000E+00  0.15465526216E+03  0.15465526216E+03  0.00000000000E+00 0. -1.
         21   -1    0    0  501  502 -0.00000000000E+00 -0.00000000000E+00 -0.32395169417E+03  0.32395169417E+03  0.00000000000E+00 0. -1.
      99926    2    1    2    0    0 -0.17763568394E-14  0.00000000000E+00 -0.16929643201E+03  0.47860695633E+03  0.44766431258E+03 0.  0.
      99925    2    3    3    0    0  0.48286370459E+01 -0.10355167857E+03 -0.13171174084E+03  0.31185449614E+03  0.26298094649E+03 0.  0.
         25    1    3    3    0    0 -0.48286370459E+01  0.10355167857E+03 -0.37584691162E+02  0.16675246019E+03  0.12509000000E+03 0.  0.
         25    1    4    4    0    0 -0.20242086280E+02 -0.44751170289E+02 -0.28081067671E+02  0.13728970741E+03  0.12509000000E+03 0.  0.
         25    1    4    4    0    0  0.25070723325E+02 -0.58800508282E+02 -0.10363067317E+03  0.17456478873E+03  0.12509000000E+03 0.  0.
<mgrwt>
<rscale>  2 0.44766431E+03</rscale>
<asrwt>0</asrwt>
<pdfrwt beam="1">  1       21 0.22743421E-01 0.44766431E+03</pdfrwt>
<pdfrwt beam="2">  1       21 0.47639955E-01 0.44766431E+03</pdfrwt>
<totfact> 0.70837568E+04</totfact>
</mgrwt>
</event>
<event>
 7    0  0.4775379E-002  0.4493158E+03  0.7546771E-02  0.1027926E+00
         21   -1    0    0  502  501  0.00000000000E+00  0.00000000000E+00  0.43114894022E+03  0.43114894022E+03  0.00000000000E+00 0. -1.
         21   -1    0    0  501  502 -0.00000000000E+00 -0.00000000000E+00 -0.11706202483E+03  0.11706202483E+03  0.00000000000E+00 0. -1.
      99926    2    1    2    0    0  0.00000000000E+00  0.00000000000E+00  0.31408691539E+03  0.54821096505E+03  0.44931578181E+03 0.  0.
      99925    2    3    3    0    0  0.42378335656E+01 -0.10721233425E+03  0.18751781243E+03  0.34041373269E+03  0.26307059049E+03 0.  0.
         25    1    4    4    0    0  0.65371771668E+00 -0.31619732963E+02  0.13042096887E+03  0.18345945623E+03  0.12509000000E+03 0.  0.
         25    1    4    4    0    0  0.35841158489E+01 -0.75592601289E+02  0.57096843557E+02  0.15695427646E+03  0.12509000000E+03 0.  0.
         25    1    3    3    0    0 -0.42378335656E+01  0.10721233425E+03  0.12656910297E+03  0.20779723236E+03  0.12509000000E+03 0.  0.
<mgrwt>
<rscale>  2 0.44931578E+03</rscale>
<asrwt>0</asrwt>
<pdfrwt beam="1">  1       21 0.63404255E-01 0.44931578E+03</pdfrwt>
<pdfrwt beam="2">  1       21 0.17215004E-01 0.44931578E+03</pdfrwt>
<totfact> 0.64852769E+04</totfact>
</mgrwt>
</event>
<event>
 7    0  0.4775379E-002  0.4393995E+03  0.7546771E-02  0.1030931E+00
         21   -1    0    0  502  501  0.00000000000E+00  0.00000000000E+00  0.38832445508E+02  0.38832445508E+02  0.00000000000E+00 0. -1.
         21   -1    0    0  501  502 -0.00000000000E+00 -0.00000000000E+00 -0.12429809480E+04  0.12429809480E+04  0.00000000000E+00 0. -1.
      99926    2    1    2    0    0  0.00000000000E+00  0.00000000000E+00 -0.12041485025E+04  0.12818133935E+04  0.43939954452E+03 0.  0.
      99925    2    3    3    0    0 -0.75294322542E+02  0.46821517179E+02 -0.65041841848E+03  0.70724746733E+03  0.26323634148E+03 0.  0.
         25    1    4    4    0    0 -0.14487935072E+02  0.28112660727E+01 -0.22990343584E+03  0.26214671730E+03  0.12509000000E+03 0.  0.
         25    1    3    3    0    0  0.75294322542E+02 -0.46821517179E+02 -0.55373008403E+03  0.57456592619E+03  0.12509000000E+03 0.  0.
         25    1    4    4    0    0 -0.60806387469E+02  0.44010251107E+02 -0.42051498263E+03  0.44510075003E+03  0.12509000000E+03 0.  0.
<mgrwt>
<rscale>  2 0.43939954E+03</rscale>
<asrwt>0</asrwt>
<pdfrwt beam="1">  1       21 0.57106536E-02 0.43939954E+03</pdfrwt>
<pdfrwt beam="2">  1       21 0.18279132E+00 0.43939954E+03</pdfrwt>
<totfact> 0.33536006E+04</totfact>
</mgrwt>
</event>
<event>
 7    0  0.4775379E-002  0.4455868E+03  0.7546771E-02  0.1029046E+00
         21   -1    0    0  502  501  0.00000000000E+00  0.00000000000E+00  0.90851750055E+03  0.90851750055E+03  0.00000000000E+00 0.  1.
         21   -1    0    0  501  502 -0.00000000000E+00 -0.00000000000E+00 -0.54635059420E+02  0.54635059420E+02  0.00000000000E+00 0.  1.
      99926    2    1    2    0    0  0.30531133177E-15  0.00000000000E+00  0.85388244113E+03  0.96315255997E+03  0.44558683834E+03 0.  0.
      99925    2    3    3    0    0 -0.14090534496E+00  0.90299958819E+02  0.65413048734E+03  0.71075911006E+03  0.26294051730E+03 0.  0.
         25    1    3    3    0    0  0.14090534496E+00 -0.90299958819E+02  0.19975195379E+03  0.25239344991E+03  0.12509000000E+03 0.  0.
         25    1    4    4    0    0  0.24223403475E+02  0.64151098479E+02  0.41032939034E+03  0.43441898369E+03  0.12509000000E+03 0.  0.
         25    1    4    4    0    0 -0.24364308820E+02  0.26148860339E+02  0.24380109700E+03  0.27634012636E+03  0.12509000000E+03 0.  0.
<mgrwt>
<rscale>  2 0.44558684E+03</rscale>
<asrwt>0</asrwt>
<pdfrwt beam="1">  1       21 0.13360551E+00 0.44558684E+03</pdfrwt>
<pdfrwt beam="2">  1       21 0.80345681E-02 0.44558684E+03</pdfrwt>
<totfact> 0.43744603E+04</totfact>
</mgrwt>
</event>
<event>
 7    0  0.4775379E-002  0.4686545E+03  0.7546771E-02  0.1022301E+00
         21   -1    0    0  502  501  0.00000000000E+00  0.00000000000E+00  0.22454259439E+04  0.22454259439E+04  0.00000000000E+00 0.  1.
         21   -1    0    0  501  502 -0.00000000000E+00 -0.00000000000E+00 -0.24453833317E+02  0.24453833317E+02  0.00000000000E+00 0.  1.
      99926    2    1    2    0    0  0.00000000000E+00  0.00000000000E+00  0.22209721106E+04  0.22698797772E+04  0.46865454978E+03 0.  0.
      99925    2    3    3    0    0  0.32586185585E+02 -0.11816071611E+03  0.12487179365E+04  0.12819782126E+04  0.26295976542E+03 0.  0.
         25    1    3    3    0    0 -0.32586185585E+02  0.11816071611E+03  0.97225417407E+03  0.98790156464E+03  0.12509000000E+03 0.  0.
         25    1    4    4    0    0 -0.11612368949E+02 -0.28921612941E+02  0.61872971195E+03  0.63201682838E+03  0.12509000000E+03 0.  0.
         25    1    4    4    0    0  0.44198554534E+02 -0.89239103165E+02  0.62998822457E+03  0.64996138420E+03  0.12509000000E+03 0.  0.
<mgrwt>
<rscale>  2 0.46865455E+03</rscale>
<asrwt>0</asrwt>
<pdfrwt beam="1">  1       21 0.33020956E+00 0.46865455E+03</pdfrwt>
<pdfrwt beam="2">  1       21 0.35961535E-02 0.46865455E+03</pdfrwt>
<totfact> 0.88104211E+03</totfact>
</mgrwt>
</event>
<event>
 7    0  0.4775379E-002  0.4452839E+03  0.7546771E-02  0.1029138E+00
         21   -1    0    0  502  501  0.00000000000E+00  0.00000000000E+00  0.13636312480E+03  0.13636312480E+03  0.00000000000E+00 0. -1.
         21   -1    0    0  501  502 -0.00000000000E+00 -0.00000000000E+00 -0.36351058161E+03  0.36351058161E+03  0.00000000000E+00 0. -1.
      99926    2    1    2    0    0  0.00000000000E+00  0.00000000000E+00 -0.22714745681E+03  0.49987370641E+03  0.44528390408E+03 0.  0.
      99925    2    3    3    0    0 -0.41937307189E+02  0.78656806197E+02 -0.20385616464E+03  0.34451726694E+03  0.26303836310E+03 0.  0.
         25    1    4    4    0    0  0.62739532955E+00  0.62769549078E+02 -0.72895603163E+02  0.15780268368E+03  0.12509000000E+03 0.  0.
         25    1    3    3    0    0  0.41937307189E+02 -0.78656806197E+02 -0.23291292168E+02  0.15535643947E+03  0.12509000000E+03 0.  0.
         25    1    4    4    0    0 -0.42564702518E+02  0.15887257118E+02 -0.13096056148E+03  0.18671458326E+03  0.12509000000E+03 0.  0.
<mgrwt>
<rscale>  2 0.44528390E+03</rscale>
<asrwt>0</asrwt>
<pdfrwt beam="1">  1       21 0.20053401E-01 0.44528390E+03</pdfrwt>
<pdfrwt beam="2">  1       21 0.53457437E-01 0.44528390E+03</pdfrwt>
<totfact> 0.70566492E+04</totfact>
</mgrwt>
</event>
<event>
 7    0  0.4775379E-002  0.4420178E+03  0.7546771E-02  0.1030129E+00
         21   -1    0    0  502  501  0.00000000000E+00  0.00000000000E+00  0.19880958084E+04  0.19880958084E+04  0.00000000000E+00 0. -1.
         21   -1    0    0  501  502 -0.00000000000E+00 -0.00000000000E+00 -0.24568703859E+02  0.24568703859E+02  0.00000000000E+00 0. -1.
      99926    2    1    2    0    0  0.00000000000E+00  0.00000000000E+00  0.19635271045E+04  0.20126645122E+04  0.44201781485E+03 0.  0.
      99925    2    3    3    0    0 -0.82566183433E+02 -0.20017493047E+02  0.10055603924E+04  0.10428368965E+04  0.26294336882E+03 0.  0.
         25    1    4    4    0    0 -0.65493513948E+02 -0.10957080532E+02  0.65472497178E+03  0.66986696795E+03  0.12509000000E+03 0.  0.
         25    1    3    3    0    0  0.82566183433E+02  0.20017493047E+02  0.95796671209E+03  0.96982761574E+03  0.12509000000E+03 0.  0.
         25    1    4    4    0    0 -0.17072669485E+02 -0.90604125151E+01  0.35083542066E+03  0.37296992855E+03  0.12509000000E+03 0.  0.
<mgrwt>
<rscale>  2 0.44201781E+03</rscale>
<asrwt>0</asrwt>
<pdfrwt beam="1">  1       21 0.29236692E+00 0.44201781E+03</pdfrwt>
<pdfrwt beam="2">  1       21 0.36130460E-02 0.44201781E+03</pdfrwt>
<totfact> 0.14955321E+04</totfact>
</mgrwt>
</event>
<event>
 7    0  0.4775379E-002  0.4420769E+03  0.7546771E-02  0.1030111E+00
         21   -1    0    0  502  501  0.00000000000E+00  0.00000000000E+00  0.24464400165E+03  0.24464400165E+03  0.00000000000E+00 0.  1.
         21   -1    0    0  501  502 -0.00000000000E+00 -0.00000000000E+00 -0.19971060644E+03  0.19971060644E+03  0.00000000000E+00 0.  1.
      99926    2    1    2    0    0  0.14210854715E-13  0.00000000000E+00  0.44933395211E+02  0.44435460810E+03  0.44207692513E+03 0.  0.
      99925    2    3    3    0    0 -0.76239534995E+02  0.10127746015E+02  0.93739459036E+02  0.28961425169E+03  0.26301005810E+03 0.  0.
         25    1    3    3    0    0  0.76239534995E+02 -0.10127746015E+02 -0.48806063825E+02  0.15474035641E+03  0.12509000000E+03 0.  0.
         25    1    4    4    0    0  0.26332494919E+01  0.50353138123E+01  0.31714178481E+02  0.12917269682E+03  0.12509000000E+03 0.  0.
         25    1    4    4    0    0 -0.78872784487E+02  0.50924322029E+01  0.62025280555E+02  0.16044155486E+03  0.12509000000E+03 0.  0.
<mgrwt>
<rscale>  2 0.44207693E+03</rscale>
<asrwt>0</asrwt>
<pdfrwt beam="1">  1       21 0.35977059E-01 0.44207693E+03</pdfrwt>
<pdfrwt beam="2">  1       21 0.29369207E-01 0.44207693E+03</pdfrwt>
<totfact> 0.76967817E+04</totfact>
</mgrwt>
</event>
<event>
 7    0  0.4775379E-002  0.4546074E+03  0.7546771E-02  0.1026357E+00
         21   -1    0    0  502  501  0.00000000000E+00  0.00000000000E+00  0.55989842098E+02  0.55989842098E+02  0.00000000000E+00 0. -1.
         21   -1    0    0  501  502 -0.00000000000E+00 -0.00000000000E+00 -0.92279202740E+03  0.92279202740E+03  0.00000000000E+00 0. -1.
      99926    2    1    2    0    0  0.00000000000E+00  0.00000000000E+00 -0.86680218530E+03  0.97878186950E+03  0.45460743462E+03 0.  0.
      99925    2    3    3    0    0  0.10343236810E+03  0.24075565506E+02 -0.62738647996E+03  0.68853150224E+03  0.26302841429E+03 0.  0.
         25    1    4    4    0    0  0.62372410845E+02  0.22181715930E+01 -0.22808374806E+03  0.26751624652E+03  0.12509000000E+03 0.  0.
         25    1    4    4    0    0  0.41059957253E+02  0.21857393913E+02 -0.39930273189E+03  0.42101525573E+03  0.12509000000E+03 0.  0.
         25    1    3    3    0    0 -0.10343236810E+03 -0.24075565506E+02 -0.23941570535E+03  0.29025036725E+03  0.12509000000E+03 0.  0.
<mgrwt>
<rscale>  2 0.45460743E+03</rscale>
<asrwt>0</asrwt>
<pdfrwt beam="1">  1       21 0.82338000E-02 0.45460743E+03</pdfrwt>
<pdfrwt beam="2">  1       21 0.13570471E+00 0.45460743E+03</pdfrwt>
<totfact> 0.40119667E+04</totfact>
</mgrwt>
</event>
<event>
 7    0  0.4775379E-002  0.4548103E+03  0.7546771E-02  0.1026297E+00
         21   -1    0    0  502  501  0.00000000000E+00  0.00000000000E+00  0.27361554025E+03  0.27361554025E+03  0.00000000000E+00 0. -1.
         21   -1    0    0  501  502 -0.00000000000E+00 -0.00000000000E+00 -0.18899916100E+03  0.18899916100E+03  0.00000000000E+00 0. -1.
      99926    2    1    2    0    0  0.00000000000E+00  0.17763568394E-14  0.84616379247E+02  0.46261470125E+03  0.45481032330E+03 0.  0.
      99925    2    3    3    0    0 -0.12929276131E+02  0.13918587276E+02 -0.60356167646E+02  0.27019474204E+03  0.26268124866E+03 0.  0.
         25    1    4    4    0    0 -0.21628151854E+02  0.32443842133E+02 -0.29796244476E+01  0.13106016217E+03  0.12509000000E+03 0.  0.
         25    1    3    3    0    0  0.12929276131E+02 -0.13918587276E+02  0.14497254689E+03  0.19241995922E+03  0.12509000000E+03 0.  0.
         25    1    4    4    0    0  0.86988757223E+01 -0.18525254857E+02 -0.57376543199E+02  0.13913457987E+03  0.12509000000E+03 0.  0.
<mgrwt>
<rscale>  2 0.45481032E+03</rscale>
<asrwt>0</asrwt>
<pdfrwt beam="1">  1       21 0.40237580E-01 0.45481032E+03</pdfrwt>
<pdfrwt beam="2">  1       21 0.27793994E-01 0.45481032E+03</pdfrwt>
<totfact> 0.68090191E+04</totfact>
</mgrwt>
</event>
<event>
 7    0  0.4775379E-002  0.4574512E+03  0.7546771E-02  0.1025523E+00
         21   -1    0    0  502  501  0.00000000000E+00  0.00000000000E+00  0.23871122507E+03  0.23871122507E+03  0.00000000000E+00 0.  1.
         21   -1    0    0  501  502 -0.00000000000E+00 -0.00000000000E+00 -0.21915772890E+03  0.21915772890E+03  0.00000000000E+00 0.  1.
      99926    2    1    2    0    0 -0.88817841970E-15  0.00000000000E+00  0.19553496163E+02  0.45786895397E+03  0.45745124308E+03 0.  0.
      99925    2    3    3    0    0  0.49733732779E+01  0.10654684298E+03 -0.31985632146E+02  0.28558792182E+03  0.26298368055E+03 0.  0.
         25    1    3    3    0    0 -0.49733732779E+01 -0.10654684298E+03  0.51539128309E+02  0.17228103215E+03  0.12509000000E+03 0.  0.
         25    1    4    4    0    0 -0.16218300070E+02  0.24561491038E+02  0.97383914413E+01  0.12887452994E+03  0.12509000000E+03 0.  0.
         25    1    4    4    0    0  0.21191673348E+02  0.81985351939E+02 -0.41724023587E+02  0.15671339189E+03  0.12509000000E+03 0.  0.
<mgrwt>
<rscale>  2 0.45745124E+03</rscale>
<asrwt>0</asrwt>
<pdfrwt beam="1">  1       21 0.35104592E-01 0.45745124E+03</pdfrwt>
<pdfrwt beam="2">  1       21 0.32229078E-01 0.45745124E+03</pdfrwt>
<totfact> 0.67015815E+04</totfact>
</mgrwt>
</event>
<event>
 7    0  0.4775379E-002  0.4601372E+03  0.7546771E-02  0.1024741E+00
         21   -1    0    0  502  501  0.00000000000E+00  0.00000000000E+00  0.45104548030E+03  0.45104548030E+03  0.00000000000E+00 0. -1.
         21   -1    0    0  501  502 -0.00000000000E+00 -0.00000000000E+00 -0.11735304842E+03  0.11735304842E+03  0.00000000000E+00 0. -1.
      99926    2    1    2    0    0  0.00000000000E+00  0.14210854715E-13  0.33369243188E+03  0.56839852871E+03  0.46013720601E+03 0.  0.
      99925    2    3    3    0    0  0.43470483457E+02 -0.10760196809E+03  0.18257593151E+03  0.34046965548E+03  0.26290254671E+03 0.  0.
         25    1    3    3    0    0 -0.43470483457E+02  0.10760196809E+03  0.15111650037E+03  0.22792887323E+03  0.12509000000E+03 0.  0.
         25    1    4    4    0    0  0.56120997568E+02 -0.78284979342E+02  0.10932591036E+03  0.19203584857E+03  0.12509000000E+03 0.  0.
         25    1    4    4    0    0 -0.12650514111E+02 -0.29316988752E+02  0.73250021150E+02  0.14843380691E+03  0.12509000000E+03 0.  0.
<mgrwt>
<rscale>  2 0.46013721E+03</rscale>
<asrwt>0</asrwt>
<pdfrwt beam="1">  1       21 0.66330217E-01 0.46013721E+03</pdfrwt>
<pdfrwt beam="2">  1       21 0.17257801E-01 0.46013721E+03</pdfrwt>
<totfact> 0.58263484E+04</totfact>
</mgrwt>
</event>
<event>
 7    0  0.4775379E-002  0.4545838E+03  0.7546771E-02  0.1026364E+00
         21   -1    0    0  502  501  0.00000000000E+00  0.00000000000E+00  0.45621975580E+03  0.45621975580E+03  0.00000000000E+00 0.  1.
         21   -1    0    0  501  502 -0.00000000000E+00 -0.00000000000E+00 -0.11323843024E+03  0.11323843024E+03  0.00000000000E+00 0.  1.
      99926    2    1    2    0    0  0.14210854715E-13  0.00000000000E+00  0.34298132556E+03  0.56945818604E+03  0.45458380522E+03 0.  0.
      99925    2    3    3    0    0 -0.10760582016E+03  0.33724961385E+02  0.21486351677E+03  0.35784990033E+03  0.26300919142E+03 0.  0.
         25    1    3    3    0    0  0.10760582016E+03 -0.33724961385E+02  0.12811780879E+03  0.21160828571E+03  0.12509000000E+03 0.  0.
         25    1    4    4    0    0 -0.88544013291E+02  0.15936592109E+02  0.14794141145E+03  0.21360755272E+03  0.12509000000E+03 0.  0.
         25    1    4    4    0    0 -0.19061806874E+02  0.17788369277E+02  0.66922105322E+02  0.14424234761E+03  0.12509000000E+03 0.  0.
<mgrwt>
<rscale>  2 0.45458381E+03</rscale>
<asrwt>0</asrwt>
<pdfrwt beam="1">  1       21 0.67091140E-01 0.45458381E+03</pdfrwt>
<pdfrwt beam="2">  1       21 0.16652711E-01 0.45458381E+03</pdfrwt>
<totfact> 0.60798572E+04</totfact>
</mgrwt>
</event>
<event>
 7    0  0.4775379E-002  0.4800543E+03  0.7546771E-02  0.1019120E+00
         21   -1    0    0  502  501  0.00000000000E+00  0.00000000000E+00  0.57465202401E+03  0.57465202401E+03  0.00000000000E+00 0. -1.
         21   -1    0    0  501  502 -0.00000000000E+00 -0.00000000000E+00 -0.10025723130E+03  0.10025723130E+03  0.00000000000E+00 0. -1.
      99926    2    1    2    0    0 -0.71054273576E-14  0.00000000000E+00  0.47439479271E+03  0.67490925531E+03  0.48005425064E+03 0.  0.
      99925    2    3    3    0    0 -0.58979046089E+02 -0.11679164006E+03  0.34043016725E+03  0.44971413094E+03  0.26311838730E+03 0.  0.
         25    1    3    3    0    0  0.58979046089E+02  0.11679164006E+03  0.13396462546E+03  0.22519512437E+03  0.12509000000E+03 0.  0.
         25    1    4    4    0    0 -0.66642207872E+02 -0.43399146793E+02  0.16036102203E+03  0.21837544573E+03  0.12509000000E+03 0.  0.
         25    1    4    4    0    0  0.76631617832E+01 -0.73392493265E+02  0.18006914522E+03  0.23133868521E+03  0.12509000000E+03 0.  0.
<mgrwt>
<rscale>  2 0.48005425E+03</rscale>
<asrwt>0</asrwt>
<pdfrwt beam="1">  1       21 0.84507649E-01 0.48005425E+03</pdfrwt>
<pdfrwt beam="2">  1       21 0.14743711E-01 0.48005425E+03</pdfrwt>
<totfact> 0.44767335E+04</totfact>
</mgrwt>
</event>
<event>
 7    0  0.4775379E-002  0.4580399E+03  0.7546771E-02  0.1025351E+00
         21   -1    0    0  502  501  0.00000000000E+00  0.00000000000E+00  0.89047802699E+02  0.89047802699E+02  0.00000000000E+00 0. -1.
         21   -1    0    0  501  502 -0.00000000000E+00 -0.00000000000E+00 -0.58901095094E+03  0.58901095094E+03  0.00000000000E+00 0. -1.
      99926    2    1    2    0    0  0.00000000000E+00 -0.39968028887E-14 -0.49996314824E+03  0.67805875364E+03  0.45803987139E+03 0.  0.
      99925    2    3    3    0    0 -0.88561955652E+02  0.33192535421E+01 -0.20313866627E+03  0.34398313551E+03  0.26306813252E+03 0.  0.
         25    1    3    3    0    0  0.88561955652E+02 -0.33192535421E+01 -0.29682448197E+03  0.33407561813E+03  0.12509000000E+03 0.  0.
         25    1    4    4    0    0 -0.33708335053E+02  0.39102266956E+02 -0.11453046475E+03  0.17728500949E+03  0.12509000000E+03 0.  0.
         25    1    4    4    0    0 -0.54853620599E+02 -0.35783013414E+02 -0.88608201521E+02  0.16669812602E+03  0.12509000000E+03 0.  0.
<mgrwt>
<rscale>  2 0.45803987E+03</rscale>
<asrwt>0</asrwt>
<pdfrwt beam="1">  1       21 0.13095265E-01 0.45803987E+03</pdfrwt>
<pdfrwt beam="2">  1       21 0.86619258E-01 0.45803987E+03</pdfrwt>
<totfact> 0.52833922E+04</totfact>
</mgrwt>
</event>
<event>
 7    0  0.4775379E-002  0.4586529E+03  0.7546771E-02  0.1025173E+00
         21   -1    0    0  502  501  0.00000000000E+00  0.00000000000E+00  0.64563251317E+02  0.64563251317E+02  0.00000000000E+00 0. -1.
         21   -1    0    0  501  502 -0.00000000000E+00 -0.00000000000E+00 -0.81455974598E+03  0.81455974598E+03  0.00000000000E+00 0. -1.
      99926    2    1    2    0    0 -0.71054273576E-14 -0.14210854715E-13 -0.74999649467E+03  0.87912299730E+03  0.45865292147E+03 0.  0.
      99925    2    3    3    0    0 -0.40933179854E+02  0.10202827179E+03 -0.54476609795E+03  0.61482710764E+03  0.26297714226E+03 0.  0.
         25    1    3    3    0    0  0.40933179854E+02 -0.10202827179E+03 -0.20523039672E+03  0.26429588966E+03  0.12509000000E+03 0.  0.
         25    1    4    4    0    0 -0.34273235551E+02  0.86777254738E+02 -0.34327599577E+03  0.37708203881E+03  0.12509000000E+03 0.  0.
         25    1    4    4    0    0 -0.66599443031E+01  0.15251017047E+02 -0.20149010218E+03  0.23774506883E+03  0.12509000000E+03 0.  0.
<mgrwt>
<rscale>  2 0.45865292E+03</rscale>
<asrwt>0</asrwt>
<pdfrwt beam="1">  1       21 0.94945963E-02 0.45865292E+03</pdfrwt>
<pdfrwt beam="2">  1       21 0.11978819E+00 0.45865292E+03</pdfrwt>
<totfact> 0.42907858E+04</totfact>
</mgrwt>
</event>
<event>
 7    0  0.4775379E-002  0.4527466E+03  0.7546771E-02  0.1026906E+00
         21   -1    0    0  502  501  0.00000000000E+00  0.00000000000E+00  0.33435881618E+02  0.33435881618E+02  0.00000000000E+00 0.  1.
         21   -1    0    0  501  502 -0.00000000000E+00 -0.00000000000E+00 -0.15326309053E+04  0.15326309053E+04  0.00000000000E+00 0.  1.
      99926    2    1    2    0    0 -0.71054273576E-14  0.00000000000E+00 -0.14991950237E+04  0.15660667869E+04  0.45274657598E+03 0.  0.
      99925    2    3    3    0    0 -0.32818362351E+02 -0.16227145778E+02 -0.13078574313E+04  0.13345544816E+04  0.26306698483E+03 0.  0.
         25    1    3    3    0    0  0.32818362351E+02  0.16227145778E+02 -0.19133759236E+03  0.23151230533E+03  0.12509000000E+03 0.  0.
         25    1    4    4    0    0 -0.87514060387E+01 -0.35727644538E+02 -0.51256406559E+03  0.52888796652E+03  0.12509000000E+03 0.  0.
         25    1    4    4    0    0 -0.24066956313E+02  0.19500498759E+02 -0.79529336574E+03  0.80566651508E+03  0.12509000000E+03 0.  0.
<mgrwt>
<rscale>  2 0.45274658E+03</rscale>
<asrwt>0</asrwt>
<pdfrwt beam="1">  1       21 0.49170427E-02 0.45274658E+03</pdfrwt>
<pdfrwt beam="2">  1       21 0.22538684E+00 0.45274658E+03</pdfrwt>
<totfact> 0.22598318E+04</totfact>
</mgrwt>
</event>
<event>
 7    0  0.4775379E-002  0.4597800E+03  0.7546771E-02  0.1024845E+00
         21   -1    0    0  502  501  0.00000000000E+00  0.00000000000E+00  0.57908836497E+02  0.57908836497E+02  0.00000000000E+00 0. -1.
         21   -1    0    0  501  502 -0.00000000000E+00 -0.00000000000E+00 -0.91263136481E+03  0.91263136481E+03  0.00000000000E+00 0. -1.
      99926    2    1    2    0    0  0.00000000000E+00  0.00000000000E+00 -0.85472252831E+03  0.97054020131E+03  0.45978003648E+03 0.  0.
      99925    2    3    3    0    0 -0.95243716953E+02  0.63726831870E+02 -0.47995903506E+03  0.55916730637E+03  0.26301126678E+03 0.  0.
         25    1    4    4    0    0 -0.87844367317E+02  0.43001249934E+02 -0.29070944042E+03  0.33124798447E+03  0.12509000000E+03 0.  0.
         25    1    4    4    0    0 -0.73993496365E+01  0.20725581935E+02 -0.18924959464E+03  0.22791932190E+03  0.12509000000E+03 0.  0.
         25    1    3    3    0    0  0.95243716953E+02 -0.63726831870E+02 -0.37476349325E+03  0.41137289494E+03  0.12509000000E+03 0.  0.
<mgrwt>
<rscale>  2 0.45978004E+03</rscale>
<asrwt>0</asrwt>
<pdfrwt beam="1">  1       21 0.85160061E-02 0.45978004E+03</pdfrwt>
<pdfrwt beam="2">  1       21 0.13421048E+00 0.45978004E+03</pdfrwt>
<totfact> 0.38847889E+04</totfact>
</mgrwt>
</event>
<event>
 7    0  0.4775379E-002  0.4590501E+03  0.7546771E-02  0.1025057E+00
         21   -1    0    0  502  501  0.00000000000E+00  0.00000000000E+00  0.23287873351E+03  0.23287873351E+03  0.00000000000E+00 0.  1.
         21   -1    0    0  501  502 -0.00000000000E+00 -0.00000000000E+00 -0.22621970614E+03  0.22621970614E+03  0.00000000000E+00 0.  1.
      99926    2    1    2    0    0  0.00000000000E+00  0.00000000000E+00  0.66590273709E+01  0.45909843966E+03  0.45905014394E+03 0.  0.
      99925    2    3    3    0    0  0.43020183957E+02 -0.54970821660E+01  0.11277845852E+03  0.28942287893E+03  0.26299366532E+03 0.  0.
         25    1    4    4    0    0  0.48539453046E+02 -0.32781542432E+01  0.91391579352E+02  0.16237842737E+03  0.12509000000E+03 0.  0.
         25    1    3    3    0    0 -0.43020183957E+02  0.54970821660E+01 -0.10611943115E+03  0.16967556073E+03  0.12509000000E+03 0.  0.
         25    1    4    4    0    0 -0.55192690896E+01 -0.22189279228E+01  0.21386879170E+02  0.12704445156E+03  0.12509000000E+03 0.  0.
<mgrwt>
<rscale>  2 0.45905014E+03</rscale>
<asrwt>0</asrwt>
<pdfrwt beam="1">  1       21 0.34246873E-01 0.45905014E+03</pdfrwt>
<pdfrwt beam="2">  1       21 0.33267604E-01 0.45905014E+03</pdfrwt>
<totfact> 0.66085025E+04</totfact>
</mgrwt>
</event>
<event>
 7    0  0.4775379E-002  0.4655035E+03  0.7546771E-02  0.1023197E+00
         21   -1    0    0  502  501  0.00000000000E+00  0.00000000000E+00  0.57630105802E+02  0.57630105802E+02  0.00000000000E+00 0. -1.
         21   -1    0    0  501  502 -0.00000000000E+00 -0.00000000000E+00 -0.94001875196E+03  0.94001875196E+03  0.00000000000E+00 0. -1.
      99926    2    1    2    0    0  0.00000000000E+00  0.00000000000E+00 -0.88238864616E+03  0.99764885776E+03  0.46550351290E+03 0.  0.
      99925    2    3    3    0    0  0.10020918930E+03 -0.53598737710E+02 -0.45106560016E+03  0.53439753892E+03  0.26307004324E+03 0.  0.
         25    1    3    3    0    0 -0.10020918930E+03  0.53598737710E+02 -0.43132304599E+03  0.46325131884E+03  0.12509000000E+03 0.  0.
         25    1    4    4    0    0  0.49826221536E+02 -0.48129380457E+02 -0.16668246882E+03  0.21961248400E+03  0.12509000000E+03 0.  0.
         25    1    4    4    0    0  0.50382967762E+02 -0.54693572532E+01 -0.28438313135E+03  0.31478505492E+03  0.12509000000E+03 0.  0.
<mgrwt>
<rscale>  2 0.46550351E+03</rscale>
<asrwt>0</asrwt>
<pdfrwt beam="1">  1       21 0.84750155E-02 0.46550351E+03</pdfrwt>
<pdfrwt beam="2">  1       21 0.13823805E+00 0.46550351E+03</pdfrwt>
<totfact> 0.36196567E+04</totfact>
</mgrwt>
</event>
<event>
 7    0  0.4775379E-002  0.4546165E+03  0.7546771E-02  0.1026354E+00
         21   -1    0    0  502  501  0.00000000000E+00  0.00000000000E+00  0.14879005674E+03  0.14879005674E+03  0.00000000000E+00 0.  1.
         21   -1    0    0  501  502 -0.00000000000E+00 -0.00000000000E+00 -0.34726144937E+03  0.34726144937E+03  0.00000000000E+00 0.  1.
      99926    2    1    2    0    0  0.00000000000E+00  0.00000000000E+00 -0.19847139263E+03  0.49605150611E+03  0.45461654504E+03 0.  0.
      99925    2    3    3    0    0 -0.55331758899E+02  0.33780747160E+02 -0.24181300273E+02  0.27193705585E+03  0.26298723285E+03 0.  0.
         25    1    4    4    0    0  0.56560569159E+01 -0.76607020661E+01 -0.59587316811E+01  0.12559335938E+03  0.12509000000E+03 0.  0.
         25    1    3    3    0    0  0.55331758899E+02 -0.33780747160E+02 -0.17429009236E+03  0.22411445026E+03  0.12509000000E+03 0.  0.
         25    1    4    4    0    0 -0.60987815815E+02  0.41441449226E+02 -0.18222568592E+02  0.14634369647E+03  0.12509000000E+03 0.  0.
<mgrwt>
<rscale>  2 0.45461655E+03</rscale>
<asrwt>0</asrwt>
<pdfrwt beam="1">  1       21 0.21880890E-01 0.45461655E+03</pdfrwt>
<pdfrwt beam="2">  1       21 0.51067861E-01 0.45461655E+03</pdfrwt>
<totfact> 0.65748864E+04</totfact>
</mgrwt>
</event>
<event>
 7    0  0.4775379E-002  0.4510865E+03  0.7546771E-02  0.1027399E+00
         21   -1    0    0  502  501  0.00000000000E+00  0.00000000000E+00  0.72230252929E+02  0.72230252929E+02  0.00000000000E+00 0. -1.
         21   -1    0    0  501  502 -0.00000000000E+00 -0.00000000000E+00 -0.70427203720E+03  0.70427203720E+03  0.00000000000E+00 0. -1.
      99926    2    1    2    0    0 -0.14210854715E-13  0.00000000000E+00 -0.63204178428E+03  0.77650229013E+03  0.45108645459E+03 0.  0.
      99925    2    3    3    0    0  0.71734443920E+02 -0.11181516799E+02 -0.53971538343E+03  0.60491403542E+03  0.26335800420E+03 0.  0.
         25    1    4    4    0    0  0.75643500369E+02 -0.14685988125E+02 -0.31779914620E+03  0.35011629899E+03  0.12509000000E+03 0.  0.
         25    1    4    4    0    0 -0.39090564486E+01  0.35044713257E+01 -0.22191623723E+03  0.25479773643E+03  0.12509000000E+03 0.  0.
         25    1    3    3    0    0 -0.71734443920E+02  0.11181516799E+02 -0.92326400843E+02  0.17158825471E+03  0.12509000000E+03 0.  0.
<mgrwt>
<rscale>  2 0.45108645E+03</rscale>
<asrwt>0</asrwt>
<pdfrwt beam="1">  1       21 0.10622096E-01 0.45108645E+03</pdfrwt>
<pdfrwt beam="2">  1       21 0.10356941E+00 0.45108645E+03</pdfrwt>
<totfact> 0.50454574E+04</totfact>
</mgrwt>
</event>
<event>
 7    0  0.4775379E-002  0.4523587E+03  0.7546771E-02  0.1027021E+00
         21   -1    0    0  502  501  0.00000000000E+00  0.00000000000E+00  0.28911492742E+03  0.28911492742E+03  0.00000000000E+00 0.  1.
         21   -1    0    0  501  502 -0.00000000000E+00 -0.00000000000E+00 -0.17694380397E+03  0.17694380397E+03  0.00000000000E+00 0.  1.
      99926    2    1    2    0    0  0.00000000000E+00  0.00000000000E+00  0.11217112345E+03  0.46605873138E+03  0.45235868529E+03 0.  0.
      99925    2    3    3    0    0  0.10081879824E+03  0.40269029341E+02  0.48539924313E+02  0.28862575134E+03  0.26298797555E+03 0.  0.
         25    1    4    4    0    0  0.10795626784E+02  0.28763482390E+02  0.91040992666E+01  0.12912891311E+03  0.12509000000E+03 0.  0.
         25    1    3    3    0    0 -0.10081879824E+03 -0.40269029341E+02  0.63631199137E+02  0.17743298004E+03  0.12509000000E+03 0.  0.
         25    1    4    4    0    0  0.90023171455E+02  0.11505546950E+02  0.39435825046E+02  0.15949683823E+03  0.12509000000E+03 0.  0.
<mgrwt>
<rscale>  2 0.45235869E+03</rscale>
<asrwt>0</asrwt>
<pdfrwt beam="1">  1       21 0.42516901E-01 0.45235869E+03</pdfrwt>
<pdfrwt beam="2">  1       21 0.26021148E-01 0.45235869E+03</pdfrwt>
<totfact> 0.69167956E+04</totfact>
</mgrwt>
</event>
<event>
 7    0  0.4775379E-002  0.4477822E+03  0.7546771E-02  0.1028385E+00
         21   -1    0    0  502  501  0.00000000000E+00  0.00000000000E+00  0.46874392390E+03  0.46874392390E+03  0.00000000000E+00 0. -1.
         21   -1    0    0  501  502 -0.00000000000E+00 -0.00000000000E+00 -0.10693947668E+03  0.10693947668E+03  0.00000000000E+00 0. -1.
      99926    2    1    2    0    0  0.00000000000E+00 -0.88817841970E-15  0.36180444722E+03  0.57568340057E+03  0.44778222348E+03 0.  0.
      99925    2    3    3    0    0  0.10372443796E+03 -0.55535018251E+01  0.25790732035E+03  0.38272816876E+03  0.26301152990E+03 0.  0.
         25    1    4    4    0    0  0.23912057804E+02 -0.33645603500E+02  0.11706835496E+03  0.17622803686E+03  0.12509000000E+03 0.  0.
         25    1    4    4    0    0  0.79812380152E+02  0.28092101675E+02  0.14083896539E+03  0.20650013190E+03  0.12509000000E+03 0.  0.
         25    1    3    3    0    0 -0.10372443796E+03  0.55535018251E+01  0.10389712687E+03  0.19295523181E+03  0.12509000000E+03 0.  0.
<mgrwt>
<rscale>  2 0.44778222E+03</rscale>
<asrwt>0</asrwt>
<pdfrwt beam="1">  1       21 0.68932929E-01 0.44778222E+03</pdfrwt>
<pdfrwt beam="2">  1       21 0.15726394E-01 0.44778222E+03</pdfrwt>
<totfact> 0.63762106E+04</totfact>
</mgrwt>
</event>
<event>
 7    0  0.4775379E-002  0.4598922E+03  0.7546771E-02  0.1024812E+00
         21   -1    0    0  502  501  0.00000000000E+00  0.00000000000E+00  0.25977312207E+02  0.25977312207E+02  0.00000000000E+00 0.  1.
         21   -1    0    0  501  502 -0.00000000000E+00 -0.00000000000E+00 -0.20354384419E+04  0.20354384419E+04  0.00000000000E+00 0.  1.
      99926    2    1    2    0    0  0.00000000000E+00  0.00000000000E+00 -0.20094611297E+04  0.20614157541E+04  0.45989224774E+03 0.  0.
      99925    2    3    3    0    0 -0.10949162385E+03  0.40456205295E+02 -0.11910577032E+04  0.12253195893E+04  0.26299148899E+03 0.  0.
         25    1    3    3    0    0  0.10949162385E+03 -0.40456205295E+02 -0.81840342648E+03  0.83609616481E+03  0.12509000000E+03 0.  0.
         25    1    4    4    0    0 -0.84658714914E+02  0.46683656035E+02 -0.72892630770E+03  0.74587367021E+03  0.12509000000E+03 0.  0.
         25    1    4    4    0    0 -0.24832908940E+02 -0.62274507398E+01 -0.46213139552E+03  0.47944591909E+03  0.12509000000E+03 0.  0.
<mgrwt>
<rscale>  2 0.45989225E+03</rscale>
<asrwt>0</asrwt>
<pdfrwt beam="1">  1       21 0.38201929E-02 0.45989225E+03</pdfrwt>
<pdfrwt beam="2">  1       21 0.29932919E+00 0.45989225E+03</pdfrwt>
<totfact> 0.12260584E+04</totfact>
</mgrwt>
</event>
<event>
 7    0  0.4775379E-002  0.4339531E+03  0.7546771E-02  0.1032618E+00
         21   -1    0    0  502  501  0.00000000000E+00  0.00000000000E+00  0.52766618982E+02  0.52766618982E+02  0.00000000000E+00 0.  1.
         21   -1    0    0  501  502 -0.00000000000E+00 -0.00000000000E+00 -0.89220834618E+03  0.89220834618E+03  0.00000000000E+00 0.  1.
      99926    2    1    2    0    0  0.00000000000E+00  0.14210854715E-13 -0.83944172720E+03  0.94497496517E+03  0.43395307514E+03 0.  0.
      99925    2    3    3    0    0  0.84284344970E+01  0.70066861509E+02 -0.40985271317E+03  0.49201289979E+03  0.26290120479E+03 0.  0.
         25    1    4    4    0    0  0.93811131150E+01  0.72348593546E+02 -0.25134972589E+03  0.29008019077E+03  0.12509000000E+03 0.  0.
         25    1    3    3    0    0 -0.84284344970E+01 -0.70066861509E+02 -0.42958901403E+03  0.45296206537E+03  0.12509000000E+03 0.  0.
         25    1    4    4    0    0 -0.95267861797E+00 -0.22817320368E+01 -0.15850298728E+03  0.20193270903E+03  0.12509000000E+03 0.  0.
<mgrwt>
<rscale>  2 0.43395308E+03</rscale>
<asrwt>0</asrwt>
<pdfrwt beam="1">  1       21 0.77597981E-02 0.43395308E+03</pdfrwt>
<pdfrwt beam="2">  1       21 0.13120709E+00 0.43395308E+03</pdfrwt>
<totfact> 0.48912749E+04</totfact>
</mgrwt>
</event>
<event>
 7    0  0.4775379E-002  0.4361817E+03  0.7546771E-02  0.1031925E+00
         21   -1    0    0  502  501  0.00000000000E+00  0.00000000000E+00  0.14540508322E+03  0.14540508322E+03  0.00000000000E+00 0. -1.
         21   -1    0    0  501  502 -0.00000000000E+00 -0.00000000000E+00 -0.32711118004E+03  0.32711118004E+03  0.00000000000E+00 0. -1.
      99926    2    1    2    0    0  0.00000000000E+00  0.00000000000E+00 -0.18170609682E+03  0.47251626326E+03  0.43618174357E+03 0.  0.
      99925    2    3    3    0    0 -0.13618293488E+02  0.33309832614E+02 -0.21083810775E+03  0.33913266222E+03  0.26317912538E+03 0.  0.
         25    1    4    4    0    0  0.29141919998E+02  0.19818215082E+02 -0.12875973442E+03  0.18294422772E+03  0.12509000000E+03 0.  0.
         25    1    3    3    0    0  0.13618293488E+02 -0.33309832614E+02  0.29132010928E+02  0.13338360104E+03  0.12509000000E+03 0.  0.
         25    1    4    4    0    0 -0.42760213486E+02  0.13491617532E+02 -0.82078373329E+02  0.15618843449E+03  0.12509000000E+03 0.  0.
<mgrwt>
<rscale>  2 0.43618174E+03</rscale>
<asrwt>0</asrwt>
<pdfrwt beam="1">  1       21 0.21383101E-01 0.43618174E+03</pdfrwt>
<pdfrwt beam="2">  1       21 0.48104584E-01 0.43618174E+03</pdfrwt>
<totfact> 0.78308927E+04</totfact>
</mgrwt>
</event>
<event>
 7    0  0.4775379E-002  0.4491436E+03  0.7546771E-02  0.1027978E+00
         21   -1    0    0  502  501  0.00000000000E+00  0.00000000000E+00  0.16654896195E+03  0.16654896195E+03  0.00000000000E+00 0.  1.
         21   -1    0    0  501  502 -0.00000000000E+00 -0.00000000000E+00 -0.30280884329E+03  0.30280884329E+03  0.00000000000E+00 0.  1.
      99926    2    1    2    0    0  0.00000000000E+00  0.00000000000E+00 -0.13625988134E+03  0.46935780525E+03  0.44914362300E+03 0.  0.
      99925    2    3    3    0    0 -0.57525811450E+02 -0.90513591089E+02 -0.77943082945E+02  0.29457140352E+03  0.26304991624E+03 0.  0.
         25    1    3    3    0    0  0.57525811450E+02  0.90513591089E+02 -0.58316798395E+02  0.17478640173E+03  0.12509000000E+03 0.  0.
         25    1    4    4    0    0 -0.16437393491E+02 -0.31776171220E+02 -0.75402450862E+02  0.15037603086E+03  0.12509000000E+03 0.  0.
         25    1    4    4    0    0 -0.41088417959E+02 -0.58737419869E+02 -0.25406320832E+01  0.14419537265E+03  0.12509000000E+03 0.  0.
<mgrwt>
<rscale>  2 0.44914362E+03</rscale>
<asrwt>0</asrwt>
<pdfrwt beam="1">  1       21 0.24492494E-01 0.44914362E+03</pdfrwt>
<pdfrwt beam="2">  1       21 0.44530712E-01 0.44914362E+03</pdfrwt>
<totfact> 0.70712659E+04</totfact>
</mgrwt>
</event>
<event>
 7    0  0.4775379E-002  0.4582265E+03  0.7546771E-02  0.1025297E+00
         21   -1    0    0  502  501  0.00000000000E+00  0.00000000000E+00  0.46180075574E+03  0.46180075574E+03  0.00000000000E+00 0.  1.
         21   -1    0    0  501  502 -0.00000000000E+00 -0.00000000000E+00 -0.11366995843E+03  0.11366995843E+03  0.00000000000E+00 0.  1.
      99926    2    1    2    0    0  0.00000000000E+00  0.00000000000E+00  0.34813079731E+03  0.57547071417E+03  0.45822646238E+03 0.  0.
      99925    2    3    3    0    0 -0.39695846392E+02  0.10713178786E+03  0.24472596256E+03  0.37699389401E+03  0.26302208876E+03 0.  0.
         25    1    3    3    0    0  0.39695846392E+02 -0.10713178786E+03  0.10340483475E+03  0.19847682016E+03  0.12509000000E+03 0.  0.
         25    1    4    4    0    0 -0.56983459537E+02  0.43473213283E+02  0.10646131023E+03  0.17921649927E+03  0.12509000000E+03 0.  0.
         25    1    4    4    0    0  0.17287613145E+02  0.63658574575E+02  0.13826465233E+03  0.19777739474E+03  0.12509000000E+03 0.  0.
<mgrwt>
<rscale>  2 0.45822646E+03</rscale>
<asrwt>0</asrwt>
<pdfrwt beam="1">  1       21 0.67911875E-01 0.45822646E+03</pdfrwt>
<pdfrwt beam="2">  1       21 0.16716171E-01 0.45822646E+03</pdfrwt>
<totfact> 0.58702161E+04</totfact>
</mgrwt>
</event>
<event>
 7    0  0.4775379E-002  0.4258731E+03  0.7546771E-02  0.1035172E+00
         21   -1    0    0  502  501  0.00000000000E+00  0.00000000000E+00  0.96852538897E+03  0.96852538897E+03  0.00000000000E+00 0.  1.
         21   -1    0    0  501  502 -0.00000000000E+00 -0.00000000000E+00 -0.46815478147E+02  0.46815478147E+02  0.00000000000E+00 0.  1.
      99926    2    1    2    0    0  0.00000000000E+00  0.00000000000E+00  0.92170991083E+03  0.10153408671E+04  0.42587312281E+03 0.  0.
      99925    2    3    3    0    0 -0.47983712688E+02  0.43776320132E+02  0.47436552380E+03  0.54631708138E+03  0.26309865136E+03 0.  0.
         25    1    4    4    0    0 -0.18308973487E+02 -0.13608671938E+02  0.26624530649E+03  0.29504997168E+03  0.12509000000E+03 0.  0.
         25    1    4    4    0    0 -0.29674739201E+02  0.57384992071E+02  0.20812021731E+03  0.25126710970E+03  0.12509000000E+03 0.  0.
         25    1    3    3    0    0  0.47983712688E+02 -0.43776320132E+02  0.44734438702E+03  0.46902378574E+03  0.12509000000E+03 0.  0.
<mgrwt>
<rscale>  2 0.42587312E+03</rscale>
<asrwt>0</asrwt>
<pdfrwt beam="1">  1       21 0.14243019E+00 0.42587312E+03</pdfrwt>
<pdfrwt beam="2">  1       21 0.68846297E-02 0.42587312E+03</pdfrwt>
<totfact> 0.48755239E+04</totfact>
</mgrwt>
</event>
<event>
 7    0  0.4775379E-002  0.4517430E+03  0.7546771E-02  0.1027204E+00
         21   -1    0    0  502  501  0.00000000000E+00  0.00000000000E+00  0.24949534240E+03  0.24949534240E+03  0.00000000000E+00 0.  1.
         21   -1    0    0  501  502 -0.00000000000E+00 -0.00000000000E+00 -0.20448452818E+03  0.20448452818E+03  0.00000000000E+00 0.  1.
      99926    2    1    2    0    0  0.00000000000E+00 -0.14210854715E-13  0.45010814217E+02  0.45397987057E+03  0.45174301266E+03 0.  0.
      99925    2    3    3    0    0 -0.39572600016E+02  0.80844842626E+02  0.92950941209E+02  0.29258704816E+03  0.26242222472E+03 0.  0.
         25    1    3    3    0    0  0.39572600016E+02 -0.80844842626E+02 -0.47940126992E+02  0.16139282242E+03  0.12509000000E+03 0.  0.
         25    1    4    4    0    0 -0.18991549626E+02  0.68531589028E+02  0.18554930640E+02  0.14508291148E+03  0.12509000000E+03 0.  0.
         25    1    4    4    0    0 -0.20581050391E+02  0.12313253598E+02  0.74396010568E+02  0.14750413668E+03  0.12509000000E+03 0.  0.
<mgrwt>
<rscale>  2 0.45174301E+03</rscale>
<asrwt>0</asrwt>
<pdfrwt beam="1">  1       21 0.36690491E-01 0.45174301E+03</pdfrwt>
<pdfrwt beam="2">  1       21 0.30071254E-01 0.45174301E+03</pdfrwt>
<totfact> 0.70433146E+04</totfact>
</mgrwt>
</event>
<event>
 7    0  0.4775379E-002  0.4593797E+03  0.7546771E-02  0.1024961E+00
         21   -1    0    0  502  501  0.00000000000E+00  0.00000000000E+00  0.11712739963E+04  0.11712739963E+04  0.00000000000E+00 0. -1.
         21   -1    0    0  501  502 -0.00000000000E+00 -0.00000000000E+00 -0.45042771574E+02  0.45042771574E+02  0.00000000000E+00 0. -1.
      99926    2    1    2    0    0  0.00000000000E+00  0.00000000000E+00  0.11262312247E+04  0.12163167679E+04  0.45937969945E+03 0.  0.
      99925    2    3    3    0    0 -0.78357682883E+02  0.62817254332E+02  0.86613641183E+03  0.91073084918E+03  0.26296855676E+03 0.  0.
         25    1    3    3    0    0  0.78357682883E+02 -0.62817254332E+02  0.26009481291E+03  0.30558591870E+03  0.12509000000E+03 0.  0.
         25    1    4    4    0    0 -0.44068160302E+02  0.54545440370E+02  0.34467589684E+03  0.37331781338E+03  0.12509000000E+03 0.  0.
         25    1    4    4    0    0 -0.34289522581E+02  0.82718139620E+01  0.52146051499E+03  0.53741303581E+03  0.12509000000E+03 0.  0.
<mgrwt>
<rscale>  2 0.45937970E+03</rscale>
<asrwt>0</asrwt>
<pdfrwt beam="1">  1       21 0.17224616E+00 0.45937970E+03</pdfrwt>
<pdfrwt beam="2">  1       21 0.66239377E-02 0.45937970E+03</pdfrwt>
<totfact> 0.30586267E+04</totfact>
</mgrwt>
</event>
<event>
 7    0  0.4775379E-002  0.4552497E+03  0.7546771E-02  0.1026168E+00
         21   -1    0    0  502  501  0.00000000000E+00  0.00000000000E+00  0.45767088032E+03  0.45767088032E+03  0.00000000000E+00 0.  1.
         21   -1    0    0  501  502 -0.00000000000E+00 -0.00000000000E+00 -0.11321034672E+03  0.11321034672E+03  0.00000000000E+00 0.  1.
      99926    2    1    2    0    0  0.00000000000E+00  0.00000000000E+00  0.34446053360E+03  0.57088122704E+03  0.45524972947E+03 0.  0.
      99925    2    3    3    0    0  0.91003623028E+02  0.41489776106E+02  0.14973124238E+03  0.31875017802E+03  0.26301933411E+03 0.  0.
         25    1    3    3    0    0 -0.91003623028E+02 -0.41489776106E+02  0.19472929121E+03  0.25213104902E+03  0.12509000000E+03 0.  0.
         25    1    4    4    0    0  0.67102402123E+01  0.33123039062E+01  0.57544468463E+02  0.13789442567E+03  0.12509000000E+03 0.  0.
         25    1    4    4    0    0  0.84293382816E+02  0.38177472200E+02  0.92186773921E+02  0.18085575234E+03  0.12509000000E+03 0.  0.
<mgrwt>
<rscale>  2 0.45524973E+03</rscale>
<asrwt>0</asrwt>
<pdfrwt beam="1">  1       21 0.67304541E-01 0.45524973E+03</pdfrwt>
<pdfrwt beam="2">  1       21 0.16648581E-01 0.45524973E+03</pdfrwt>
<totfact> 0.60388046E+04</totfact>
</mgrwt>
</event>
<event>
 7    0  0.4775379E-002  0.4544798E+03  0.7546771E-02  0.1026394E+00
         21   -1    0    0  502  501  0.00000000000E+00  0.00000000000E+00  0.87344352224E+03  0.87344352224E+03  0.00000000000E+00 0.  1.
         21   -1    0    0  501  502 -0.00000000000E+00 -0.00000000000E+00 -0.59119986961E+02  0.59119986961E+02  0.00000000000E+00 0.  1.
      99926    2    1    2    0    0 -0.14210854715E-13  0.44408920985E-15  0.81432353528E+03  0.93256350920E+03  0.45447978897E+03 0.  0.
      99925    2    3    3    0    0  0.67239711247E+02  0.26487552002E+01  0.32728180662E+03  0.42523191327E+03  0.26302206076E+03 0.  0.
         25    1    4    4    0    0  0.88602559408E+01  0.64633499075E+01  0.20694560368E+03  0.24206253326E+03  0.12509000000E+03 0.  0.
         25    1    3    3    0    0 -0.67239711247E+02 -0.26487552002E+01  0.48704172866E+03  0.50733159593E+03  0.12509000000E+03 0.  0.
         25    1    4    4    0    0  0.58379455306E+02 -0.38145947073E+01  0.12033620294E+03  0.18316938001E+03  0.12509000000E+03 0.  0.
<mgrwt>
<rscale>  2 0.45447979E+03</rscale>
<asrwt>0</asrwt>
<pdfrwt beam="1">  1       21 0.12844757E+00 0.45447979E+03</pdfrwt>
<pdfrwt beam="2">  1       21 0.86941162E-02 0.45447979E+03</pdfrwt>
<totfact> 0.42025791E+04</totfact>
</mgrwt>
</event>
<event>
 7    0  0.4775379E-002  0.4504577E+03  0.7546771E-02  0.1027586E+00
         21   -1    0    0  502  501  0.00000000000E+00  0.00000000000E+00  0.10447230688E+03  0.10447230688E+03  0.00000000000E+00 0. -1.
         21   -1    0    0  501  502 -0.00000000000E+00 -0.00000000000E+00 -0.48556437324E+03  0.48556437324E+03  0.00000000000E+00 0. -1.
      99926    2    1    2    0    0 -0.14210854715E-13 -0.17763568394E-14 -0.38109206636E+03  0.59003668012E+03  0.45045767930E+03 0.  0.
      99925    2    3    3    0    0  0.68439245641E+02  0.41289083356E+01 -0.35122220697E+03  0.44429480272E+03  0.26332461872E+03 0.  0.
         25    1    3    3    0    0 -0.68439245641E+02 -0.41289083356E+01 -0.29869859386E+02  0.14574187740E+03  0.12509000000E+03 0.  0.
         25    1    4    4    0    0  0.67104310421E+02 -0.13977011201E+02 -0.21916230754E+03  0.26149181720E+03  0.12509000000E+03 0.  0.
         25    1    4    4    0    0  0.13349352204E+01  0.18105919536E+02 -0.13205989944E+03  0.18280298552E+03  0.12509000000E+03 0.  0.
<mgrwt>
<rscale>  2 0.45045768E+03</rscale>
<asrwt>0</asrwt>
<pdfrwt beam="1">  1       21 0.15363574E-01 0.45045768E+03</pdfrwt>
<pdfrwt beam="2">  1       21 0.71406527E-01 0.45045768E+03</pdfrwt>
<totfact> 0.61473078E+04</totfact>
</mgrwt>
</event>
<event>
 7    0  0.4775379E-002  0.4639317E+03  0.7546771E-02  0.1023647E+00
         21   -1    0    0  502  501  0.00000000000E+00  0.00000000000E+00  0.83370908312E+02  0.83370908312E+02  0.00000000000E+00 0.  1.
         21   -1    0    0  501  502 -0.00000000000E+00 -0.00000000000E+00 -0.64540691860E+03  0.64540691860E+03  0.00000000000E+00 0.  1.
      99926    2    1    2    0    0  0.00000000000E+00  0.00000000000E+00 -0.56203601029E+03  0.72877782691E+03  0.46393172357E+03 0.  0.
      99925    2    3    3    0    0 -0.57926232771E+01 -0.11637644539E+03 -0.29845290362E+03  0.41461132050E+03  0.26315656914E+03 0.  0.
         25    1    4    4    0    0  0.18881761504E+02 -0.71504216832E+02 -0.10793712569E+03  0.18101741669E+03  0.12509000000E+03 0.  0.
         25    1    4    4    0    0 -0.24674384781E+02 -0.44872228562E+02 -0.19051577792E+03  0.23359390381E+03  0.12509000000E+03 0.  0.
         25    1    3    3    0    0  0.57926232771E+01  0.11637644539E+03 -0.26358310667E+03  0.31416650641E+03  0.12509000000E+03 0.  0.
<mgrwt>
<rscale>  2 0.46393172E+03</rscale>
<asrwt>0</asrwt>
<pdfrwt beam="1">  1       21 0.12260427E-01 0.46393172E+03</pdfrwt>
<pdfrwt beam="2">  1       21 0.94912784E-01 0.46393172E+03</pdfrwt>
<totfact> 0.47913154E+04</totfact>
</mgrwt>
</event>
<event>
 7    0  0.4775379E-002  0.4359411E+03  0.7546771E-02  0.1031999E+00
         21   -1    0    0  502  501  0.00000000000E+00  0.00000000000E+00  0.61222888617E+03  0.61222888617E+03  0.00000000000E+00 0. -1.
         21   -1    0    0  501  502 -0.00000000000E+00 -0.00000000000E+00 -0.77603582575E+02  0.77603582575E+02  0.00000000000E+00 0. -1.
      99926    2    1    2    0    0 -0.35527136788E-14  0.00000000000E+00  0.53462530359E+03  0.68983246874E+03  0.43594107364E+03 0.  0.
      99925    2    3    3    0    0  0.22427683467E+02 -0.57590960170E+02  0.45509367649E+03  0.52923200956E+03  0.26297632191E+03 0.  0.
         25    1    4    4    0    0  0.38425441563E+02 -0.31849479322E+02  0.29123218809E+03  0.32086539136E+03  0.12509000000E+03 0.  0.
         25    1    3    3    0    0 -0.22427683467E+02  0.57590960170E+02  0.79531627099E+02  0.16060045918E+03  0.12509000000E+03 0.  0.
         25    1    4    4    0    0 -0.15997758096E+02 -0.25741480848E+02  0.16386148840E+03  0.20836661820E+03  0.12509000000E+03 0.  0.
<mgrwt>
<rscale>  2 0.43594107E+03</rscale>
<asrwt>0</asrwt>
<pdfrwt beam="1">  1       21 0.90033657E-01 0.43594107E+03</pdfrwt>
<pdfrwt beam="2">  1       21 0.11412292E-01 0.43594107E+03</pdfrwt>
<totfact> 0.62290977E+04</totfact>
</mgrwt>
</event>
<event>
 7    0  0.4775379E-002  0.4219493E+03  0.7546771E-02  0.1036434E+00
         21   -1    0    0  502  501  0.00000000000E+00  0.00000000000E+00  0.23693353056E+03  0.23693353056E+03  0.00000000000E+00 0.  1.
         21   -1    0    0  501  502 -0.00000000000E+00 -0.00000000000E+00 -0.18785985753E+03  0.18785985753E+03  0.00000000000E+00 0.  1.
      99926    2    1    2    0    0  0.71054273576E-14  0.35527136788E-14  0.49073673024E+02  0.42479338809E+03  0.42194928271E+03 0.  0.
      99925    2    3    3    0    0  0.49319607540E+02 -0.21567494791E+02  0.89102464623E+02  0.28285187627E+03  0.26299877222E+03 0.  0.
         25    1    4    4    0    0  0.53385545886E+02 -0.40704302875E+01  0.16382101352E+02  0.13704913811E+03  0.12509000000E+03 0.  0.
         25    1    4    4    0    0 -0.40659383460E+01 -0.17497064503E+02  0.72720363271E+02  0.14580273816E+03  0.12509000000E+03 0.  0.
         25    1    3    3    0    0 -0.49319607540E+02  0.21567494791E+02 -0.40028791599E+02  0.14194151181E+03  0.12509000000E+03 0.  0.
<mgrwt>
<rscale>  2 0.42194928E+03</rscale>
<asrwt>0</asrwt>
<pdfrwt beam="1">  1       21 0.34843166E-01 0.42194928E+03</pdfrwt>
<pdfrwt beam="2">  1       21 0.27626450E-01 0.42194928E+03</pdfrwt>
<totfact> 0.93034548E+04</totfact>
</mgrwt>
</event>
<event>
 7    0  0.4775379E-002  0.4221135E+03  0.7546771E-02  0.1036381E+00
         21   -1    0    0  502  501  0.00000000000E+00  0.00000000000E+00  0.22676011416E+03  0.22676011416E+03  0.00000000000E+00 0. -1.
         21   -1    0    0  501  502 -0.00000000000E+00 -0.00000000000E+00 -0.19644088398E+03  0.19644088398E+03  0.00000000000E+00 0. -1.
      99926    2    1    2    0    0  0.00000000000E+00 -0.35527136788E-14  0.30319230179E+02  0.42320099813E+03  0.42211352632E+03 0.  0.
      99925    2    3    3    0    0  0.50463609098E+02  0.24613739575E+02  0.74704963042E+02  0.27908294444E+03  0.26297156948E+03 0.  0.
         25    1    4    4    0    0  0.39371138475E+02  0.26723055285E+02  0.75136608123E+02  0.15348363499E+03  0.12509000000E+03 0.  0.
         25    1    3    3    0    0 -0.50463609098E+02 -0.24613739575E+02 -0.44385732864E+02  0.14411805370E+03  0.12509000000E+03 0.  0.
         25    1    4    4    0    0  0.11092470624E+02 -0.21093157098E+01 -0.43164508049E+00  0.12559930945E+03  0.12509000000E+03 0.  0.
<mgrwt>
<rscale>  2 0.42211353E+03</rscale>
<asrwt>0</asrwt>
<pdfrwt beam="1">  1       21 0.33347076E-01 0.42211353E+03</pdfrwt>
<pdfrwt beam="2">  1       21 0.28888365E-01 0.42211353E+03</pdfrwt>
<totfact> 0.93067122E+04</totfact>
</mgrwt>
</event>
<event>
 7    0  0.4775379E-002  0.4576592E+03  0.7546771E-02  0.1025462E+00
         21   -1    0    0  502  501  0.00000000000E+00  0.00000000000E+00  0.21494560105E+03  0.21494560105E+03  0.00000000000E+00 0. -1.
         21   -1    0    0  501  502 -0.00000000000E+00 -0.00000000000E+00 -0.24361036270E+03  0.24361036270E+03  0.00000000000E+00 0. -1.
      99926    2    1    2    0    0  0.00000000000E+00  0.00000000000E+00 -0.28664761649E+02  0.45855596375E+03  0.45765915629E+03 0.  0.
      99925    2    3    3    0    0 -0.11491167796E+03 -0.96940580565E+01 -0.26986257341E+02  0.28841192486E+03  0.26297245450E+03 0.  0.
         25    1    3    3    0    0  0.11491167796E+03  0.96940580565E+01 -0.16785043084E+01  0.17014403889E+03  0.12509000000E+03 0.  0.
         25    1    4    4    0    0 -0.54668873871E+02 -0.41649867812E+01  0.27217017269E+02  0.13926344464E+03  0.12509000000E+03 0.  0.
         25    1    4    4    0    0 -0.60242804086E+02 -0.55290712753E+01 -0.54203274610E+02  0.14914848022E+03  0.12509000000E+03 0.  0.
<mgrwt>
<rscale>  2 0.45765916E+03</rscale>
<asrwt>0</asrwt>
<pdfrwt beam="1">  1       21 0.31609648E-01 0.45765916E+03</pdfrwt>
<pdfrwt beam="2">  1       21 0.35825053E-01 0.45765916E+03</pdfrwt>
<totfact> 0.66856320E+04</totfact>
</mgrwt>
</event>
<event>
 7    0  0.4775379E-002  0.4487238E+03  0.7546771E-02  0.1028103E+00
         21   -1    0    0  502  501  0.00000000000E+00  0.00000000000E+00  0.15009235758E+03  0.15009235758E+03  0.00000000000E+00 0. -1.
         21   -1    0    0  501  502 -0.00000000000E+00 -0.00000000000E+00 -0.33538184854E+03  0.33538184854E+03  0.00000000000E+00 0. -1.
      99926    2    1    2    0    0  0.00000000000E+00  0.14210854715E-13 -0.18528949097E+03  0.48547420612E+03  0.44872375616E+03 0.  0.
      99925    2    3    3    0    0  0.29728325848E+02  0.86856061556E+02 -0.17708601987E+03  0.33009546296E+03  0.26301294160E+03 0.  0.
         25    1    4    4    0    0  0.10170234726E+02  0.95653560987E+01 -0.11053886219E+03  0.16751500788E+03  0.12509000000E+03 0.  0.
         25    1    3    3    0    0 -0.29728325848E+02 -0.86856061556E+02 -0.82034710935E+01  0.15537874316E+03  0.12509000000E+03 0.  0.
         25    1    4    4    0    0  0.19558091122E+02  0.77290705457E+02 -0.66547157687E+02  0.16258045508E+03  0.12509000000E+03 0.  0.
<mgrwt>
<rscale>  2 0.44872376E+03</rscale>
<asrwt>0</asrwt>
<pdfrwt beam="1">  1       21 0.22072406E-01 0.44872376E+03</pdfrwt>
<pdfrwt beam="2">  1       21 0.49320859E-01 0.44872376E+03</pdfrwt>
<totfact> 0.69712954E+04</totfact>
</mgrwt>
</event>
<event>
 7    0  0.4775379E-002  0.4583463E+03  0.7546771E-02  0.1025262E+00
         21   -1    0    0  502  501  0.00000000000E+00  0.00000000000E+00  0.18738572817E+03  0.18738572817E+03  0.00000000000E+00 0. -1.
         21   -1    0    0  501  502 -0.00000000000E+00 -0.00000000000E+00 -0.28027930075E+03  0.28027930075E+03  0.00000000000E+00 0. -1.
      99926    2    1    2    0    0 -0.14210854715E-13 -0.35527136788E-14 -0.92893572575E+02  0.46766502892E+03  0.45834633570E+03 0.  0.
      99925    2    3    3    0    0 -0.10065473878E+03  0.10072953100E+02  0.37710362563E+00  0.28170866855E+03  0.26291974233E+03 0.  0.
         25    1    3    3    0    0  0.10065473878E+03 -0.10072953100E+02 -0.93270676200E+02  0.18595636037E+03  0.12509000000E+03 0.  0.
         25    1    4    4    0    0 -0.42563276568E+02 -0.33286825455E+02  0.11246889077E+02  0.13672470836E+03  0.12509000000E+03 0.  0.
         25    1    4    4    0    0 -0.58091462208E+02  0.43359778555E+02 -0.10869785452E+02  0.14498396019E+03  0.12509000000E+03 0.  0.
<mgrwt>
<rscale>  2 0.45834634E+03</rscale>
<asrwt>0</asrwt>
<pdfrwt beam="1">  1       21 0.27556725E-01 0.45834634E+03</pdfrwt>
<pdfrwt beam="2">  1       21 0.41217544E-01 0.45834634E+03</pdfrwt>
<totfact> 0.65843889E+04</totfact>
</mgrwt>
</event>
<event>
 7    0  0.4775379E-002  0.4639402E+03  0.7546771E-02  0.1023645E+00
         21   -1    0    0  502  501  0.00000000000E+00  0.00000000000E+00  0.42180302304E+02  0.42180302304E+02  0.00000000000E+00 0.  1.
         21   -1    0    0  501  502 -0.00000000000E+00 -0.00000000000E+00 -0.12757170254E+04  0.12757170254E+04  0.00000000000E+00 0.  1.
      99926    2    1    2    0    0  0.00000000000E+00 -0.71054273576E-14 -0.12335367231E+04  0.13178973277E+04  0.46394021074E+03 0.  0.
      99925    2    3    3    0    0 -0.65058509268E+02 -0.44978207724E+02 -0.10317041444E+04  0.10676183899E+04  0.26294473947E+03 0.  0.
         25    1    4    4    0    0 -0.26460427008E+02  0.18330479156E+02 -0.48282746426E+03  0.49980599136E+03  0.12509000000E+03 0.  0.
         25    1    3    3    0    0  0.65058509268E+02  0.44978207724E+02 -0.20183257866E+03  0.25027893780E+03  0.12509000000E+03 0.  0.
         25    1    4    4    0    0 -0.38598082261E+02 -0.63308686879E+02 -0.54887668016E+03  0.56781239851E+03  0.12509000000E+03 0.  0.
<mgrwt>
<rscale>  2 0.46394021E+03</rscale>
<asrwt>0</asrwt>
<pdfrwt beam="1">  1       21 0.62029860E-02 0.46394021E+03</pdfrwt>
<pdfrwt beam="2">  1       21 0.18760543E+00 0.46394021E+03</pdfrwt>
<totfact> 0.26694423E+04</totfact>
</mgrwt>
</event>
<event>
 7    0  0.4775379E-002  0.4557657E+03  0.7546771E-02  0.1026016E+00
         21   -1    0    0  502  501  0.00000000000E+00  0.00000000000E+00  0.42149074403E+03  0.42149074403E+03  0.00000000000E+00 0. -1.
         21   -1    0    0  501  502 -0.00000000000E+00 -0.00000000000E+00 -0.12320695545E+03  0.12320695545E+03  0.00000000000E+00 0. -1.
      99926    2    1    2    0    0  0.00000000000E+00  0.88817841970E-15  0.29828378858E+03  0.54469769948E+03  0.45576569122E+03 0.  0.
      99925    2    3    3    0    0 -0.36484495238E+02  0.76620585240E+01  0.58821290238E+02  0.27197142326E+03  0.26290432737E+03 0.  0.
         25    1    3    3    0    0  0.36484495238E+02 -0.76620585240E+01  0.23946249834E+03  0.27272627623E+03  0.12509000000E+03 0.  0.
         25    1    4    4    0    0 -0.22968242204E+02  0.26478114619E+02 -0.42499256695E+01  0.12997769298E+03  0.12509000000E+03 0.  0.
         25    1    4    4    0    0 -0.13516253034E+02 -0.18816056095E+02  0.63071215907E+02  0.14199373028E+03  0.12509000000E+03 0.  0.
<mgrwt>
<rscale>  2 0.45576569E+03</rscale>
<asrwt>0</asrwt>
<pdfrwt beam="1">  1       21 0.61983932E-01 0.45576569E+03</pdfrwt>
<pdfrwt beam="2">  1       21 0.18118670E-01 0.45576569E+03</pdfrwt>
<totfact> 0.61842707E+04</totfact>
</mgrwt>
</event>
<event>
 7    0  0.4775379E-002  0.4465468E+03  0.7546771E-02  0.1028757E+00
         21   -1    0    0  502  501  0.00000000000E+00  0.00000000000E+00  0.94444785074E+03  0.94444785074E+03  0.00000000000E+00 0.  1.
         21   -1    0    0  501  502 -0.00000000000E+00 -0.00000000000E+00 -0.52783231206E+02  0.52783231206E+02  0.00000000000E+00 0.  1.
      99926    2    1    2    0    0  0.00000000000E+00  0.00000000000E+00  0.89166461953E+03  0.99723108194E+03  0.44654679158E+03 0.  0.
      99925    2    3    3    0    0  0.95978153622E+01 -0.92324269440E+02  0.45542459369E+03  0.53401541183E+03  0.26295438911E+03 0.  0.
         25    1    4    4    0    0  0.83859678636E+00 -0.10929667125E+02  0.16472768926E+03  0.20713010543E+03  0.12509000000E+03 0.  0.
         25    1    4    4    0    0  0.87592185759E+01 -0.81394602316E+02  0.29069690443E+03  0.32688530640E+03  0.12509000000E+03 0.  0.
         25    1    3    3    0    0 -0.95978153622E+01  0.92324269440E+02  0.43624002584E+03  0.46321567011E+03  0.12509000000E+03 0.  0.
<mgrwt>
<rscale>  2 0.44654679E+03</rscale>
<asrwt>0</asrwt>
<pdfrwt beam="1">  1       21 0.13888938E+00 0.44654679E+03</pdfrwt>
<pdfrwt beam="2">  1       21 0.77622405E-02 0.44654679E+03</pdfrwt>
<totfact> 0.41978328E+04</totfact>
</mgrwt>
</event>
<event>
 7    0  0.4775379E-002  0.4550959E+03  0.7546771E-02  0.1026213E+00
         21   -1    0    0  502  501  0.00000000000E+00  0.00000000000E+00  0.13532132976E+04  0.13532132976E+04  0.00000000000E+00 0. -1.
         21   -1    0    0  501  502 -0.00000000000E+00 -0.00000000000E+00 -0.38263059241E+02  0.38263059241E+02  0.00000000000E+00 0. -1.
      99926    2    1    2    0    0  0.00000000000E+00 -0.14210854715E-13  0.13149502384E+04  0.13914763569E+04  0.45509594845E+03 0.  0.
      99925    2    3    3    0    0 -0.88930485500E+01 -0.79675119690E+02  0.59085283587E+03  0.65229318103E+03  0.26448461081E+03 0.  0.
         25    1    3    3    0    0  0.88930485500E+01  0.79675119690E+02  0.72409740252E+03  0.73918317584E+03  0.12509000000E+03 0.  0.
         25    1    4    4    0    0 -0.13667771340E+02  0.37312185488E+01  0.27573614860E+03  0.30311493152E+03  0.12509000000E+03 0.  0.
         25    1    4    4    0    0  0.47747227903E+01 -0.83406338239E+02  0.31511668727E+03  0.34917824951E+03  0.12509000000E+03 0.  0.
<mgrwt>
<rscale>  2 0.45509595E+03</rscale>
<asrwt>0</asrwt>
<pdfrwt beam="1">  1       21 0.19900192E+00 0.45509595E+03</pdfrwt>
<pdfrwt beam="2">  1       21 0.56269214E-02 0.45509595E+03</pdfrwt>
<totfact> 0.26540236E+04</totfact>
</mgrwt>
</event>
<event>
 7    0  0.4775379E-002  0.4546204E+03  0.7546771E-02  0.1026353E+00
         21   -1    0    0  502  501  0.00000000000E+00  0.00000000000E+00  0.39050221257E+03  0.39050221257E+03  0.00000000000E+00 0. -1.
         21   -1    0    0  501  502 -0.00000000000E+00 -0.00000000000E+00 -0.13231663348E+03  0.13231663348E+03  0.00000000000E+00 0. -1.
      99926    2    1    2    0    0  0.17763568394E-14  0.00000000000E+00  0.25818557909E+03  0.52281884606E+03  0.45462044888E+03 0.  0.
      99925    2    3    3    0    0 -0.10904032732E+02 -0.11157305673E+03  0.14847877336E+03  0.32219348314E+03  0.26304989931E+03 0.  0.
         25    1    3    3    0    0  0.10904032732E+02  0.11157305673E+03  0.10970680574E+03  0.20062536291E+03  0.12509000000E+03 0.  0.
         25    1    4    4    0    0  0.22953165199E+02 -0.72641394720E+02  0.10447390572E+03  0.17990532259E+03  0.12509000000E+03 0.  0.
         25    1    4    4    0    0 -0.33857197931E+02 -0.38931662014E+02  0.44004867638E+02  0.14228816056E+03  0.12509000000E+03 0.  0.
<mgrwt>
<rscale>  2 0.45462045E+03</rscale>
<asrwt>0</asrwt>
<pdfrwt beam="1">  1       21 0.57426796E-01 0.45462045E+03</pdfrwt>
<pdfrwt beam="2">  1       21 0.19458329E-01 0.45462045E+03</pdfrwt>
<totfact> 0.63887238E+04</totfact>
</mgrwt>
</event>
<event>
 7    0  0.4775379E-002  0.4325115E+03  0.7546771E-02  0.1033070E+00
         21   -1    0    0  502  501  0.00000000000E+00  0.00000000000E+00  0.33496047585E+03  0.33496047585E+03  0.00000000000E+00 0.  1.
         21   -1    0    0  501  502 -0.00000000000E+00 -0.00000000000E+00 -0.13961810857E+03  0.13961810857E+03  0.00000000000E+00 0.  1.
      99926    2    1    2    0    0  0.00000000000E+00 -0.35527136788E-14  0.19534236728E+03  0.47457858442E+03  0.43251149387E+03 0.  0.
      99925    2    3    3    0    0 -0.38699475194E+02  0.26117590917E+02  0.21065364108E+03  0.34018468150E+03  0.26300358000E+03 0.  0.
         25    1    4    4    0    0  0.30554563747E+01 -0.21273613892E+02  0.96493980123E+02  0.15943807187E+03  0.12509000000E+03 0.  0.
         25    1    3    3    0    0  0.38699475194E+02 -0.26117590917E+02 -0.15311273797E+02  0.13439390292E+03  0.12509000000E+03 0.  0.
         25    1    4    4    0    0 -0.41754931569E+02  0.47391204809E+02  0.11415966095E+03  0.18074660963E+03  0.12509000000E+03 0.  0.
<mgrwt>
<rscale>  2 0.43251149E+03</rscale>
<asrwt>0</asrwt>
<pdfrwt beam="1">  1       21 0.49258894E-01 0.43251149E+03</pdfrwt>
<pdfrwt beam="2">  1       21 0.20532075E-01 0.43251149E+03</pdfrwt>
<totfact> 0.80543338E+04</totfact>
</mgrwt>
</event>
<event>
 7    0  0.4775379E-002  0.4489591E+03  0.7546771E-02  0.1028033E+00
         21   -1    0    0  502  501  0.00000000000E+00  0.00000000000E+00  0.84483157595E+02  0.84483157595E+02  0.00000000000E+00 0.  1.
         21   -1    0    0  501  502 -0.00000000000E+00 -0.00000000000E+00 -0.59646279020E+03  0.59646279020E+03  0.00000000000E+00 0.  1.
      99926    2    1    2    0    0  0.14210854715E-13  0.00000000000E+00 -0.51197963261E+03  0.68094594780E+03  0.44895906230E+03 0.  0.
      99925    2    3    3    0    0  0.81704777971E+02  0.31380059380E+01 -0.21836324119E+03  0.35148637329E+03  0.26301073682E+03 0.  0.
         25    1    4    4    0    0  0.78694629608E+02  0.11301914080E+02 -0.98076371938E+02  0.17772749034E+03  0.12509000000E+03 0.  0.
         25    1    3    3    0    0 -0.81704777971E+02 -0.31380059380E+01 -0.29361639142E+03  0.32945957451E+03  0.12509000000E+03 0.  0.
         25    1    4    4    0    0  0.30101483634E+01 -0.81639081423E+01 -0.12028686925E+03  0.17375888295E+03  0.12509000000E+03 0.  0.
<mgrwt>
<rscale>  2 0.44895906E+03</rscale>
<asrwt>0</asrwt>
<pdfrwt beam="1">  1       21 0.12423994E-01 0.44895906E+03</pdfrwt>
<pdfrwt beam="2">  1       21 0.87715116E-01 0.44895906E+03</pdfrwt>
<totfact> 0.56594373E+04</totfact>
</mgrwt>
</event>
<event>
 7    0  0.4775379E-002  0.4133193E+03  0.7546771E-02  0.1039263E+00
         21   -1    0    0  502  501  0.00000000000E+00  0.00000000000E+00  0.60908228746E+03  0.60908228746E+03  0.00000000000E+00 0. -1.
         21   -1    0    0  501  502 -0.00000000000E+00 -0.00000000000E+00 -0.70118942502E+02  0.70118942502E+02  0.00000000000E+00 0. -1.
      99926    2    1    2    0    0  0.00000000000E+00  0.35527136788E-14  0.53896334496E+03  0.67920122996E+03  0.41331927559E+03 0.  0.
      99925    2    3    3    0    0  0.12169619456E+02 -0.21701444593E+02  0.45611353925E+03  0.52711358832E+03  0.26304015276E+03 0.  0.
         25    1    4    4    0    0  0.22100540245E+02  0.26510930157E+02  0.22054310344E+03  0.25588675595E+03  0.12509000000E+03 0.  0.
         25    1    3    3    0    0 -0.12169619456E+02  0.21701444593E+02  0.82849805707E+02  0.15208764164E+03  0.12509000000E+03 0.  0.
         25    1    4    4    0    0 -0.99309207886E+01 -0.48212374750E+02  0.23557043581E+03  0.27122683236E+03  0.12509000000E+03 0.  0.
<mgrwt>
<rscale>  2 0.41331928E+03</rscale>
<asrwt>0</asrwt>
<pdfrwt beam="1">  1       21 0.89570922E-01 0.41331928E+03</pdfrwt>
<pdfrwt beam="2">  1       21 0.10311610E-01 0.41331928E+03</pdfrwt>
<totfact> 0.76119352E+04</totfact>
</mgrwt>
</event>
<event>
 7    0  0.4775379E-002  0.4577909E+03  0.7546771E-02  0.1025424E+00
         21   -1    0    0  502  501  0.00000000000E+00  0.00000000000E+00  0.61746988195E+02  0.61746988195E+02  0.00000000000E+00 0.  1.
         21   -1    0    0  501  502 -0.00000000000E+00 -0.00000000000E+00 -0.84851303142E+03  0.84851303142E+03  0.00000000000E+00 0.  1.
      99926    2    1    2    0    0  0.00000000000E+00  0.17763568394E-14 -0.78676604323E+03  0.91026001962E+03  0.45779088735E+03 0.  0.
      99925    2    3    3    0    0  0.11328480609E+03  0.14096867111E+02 -0.45429968425E+03  0.53714668978E+03  0.26288057037E+03 0.  0.
         25    1    4    4    0    0  0.31445280428E+02  0.43357874175E+01 -0.14931113591E+03  0.19735482796E+03  0.12509000000E+03 0.  0.
         25    1    4    4    0    0  0.81839525658E+02  0.97610796940E+01 -0.30498854835E+03  0.33979186182E+03  0.12509000000E+03 0.  0.
         25    1    3    3    0    0 -0.11328480609E+03 -0.14096867111E+02 -0.33246635897E+03  0.37311332984E+03  0.12509000000E+03 0.  0.
<mgrwt>
<rscale>  2 0.45779089E+03</rscale>
<asrwt>0</asrwt>
<pdfrwt beam="1">  1       21 0.90804396E-02 0.45779089E+03</pdfrwt>
<pdfrwt beam="2">  1       21 0.12478133E+00 0.45779089E+03</pdfrwt>
<totfact> 0.41870785E+04</totfact>
</mgrwt>
</event>
<event>
 7    0  0.4775379E-002  0.4588191E+03  0.7546771E-02  0.1025124E+00
         21   -1    0    0  502  501  0.00000000000E+00  0.00000000000E+00  0.52276025440E+03  0.52276025440E+03  0.00000000000E+00 0.  1.
         21   -1    0    0  501  502 -0.00000000000E+00 -0.00000000000E+00 -0.10067470422E+03  0.10067470422E+03  0.00000000000E+00 0.  1.
      99926    2    1    2    0    0 -0.14210854715E-13 -0.17763568394E-14  0.42208555018E+03  0.62343495861E+03  0.45881906668E+03 0.  0.
      99925    2    3    3    0    0  0.79898593629E+02  0.55696316365E+01  0.38004674989E+03  0.46906664940E+03  0.26300795313E+03 0.  0.
         25    1    4    4    0    0  0.49947079225E+01 -0.14836238787E+02  0.14995137610E+03  0.19590299738E+03  0.12509000000E+03 0.  0.
         25    1    3    3    0    0 -0.79898593629E+02 -0.55696316365E+01  0.42038800283E+02  0.15436830921E+03  0.12509000000E+03 0.  0.
         25    1    4    4    0    0  0.74903885707E+02  0.20405870424E+02  0.23009537379E+03  0.27316365202E+03  0.12509000000E+03 0.  0.
<mgrwt>
<rscale>  2 0.45881907E+03</rscale>
<asrwt>0</asrwt>
<pdfrwt beam="1">  1       21 0.76876507E-01 0.45881907E+03</pdfrwt>
<pdfrwt beam="2">  1       21 0.14805104E-01 0.45881907E+03</pdfrwt>
<totfact> 0.55563906E+04</totfact>
</mgrwt>
</event>
<event>
 7    0  0.4775379E-002  0.4569798E+03  0.7546771E-02  0.1025661E+00
         21   -1    0    0  502  501  0.00000000000E+00  0.00000000000E+00  0.28816767449E+03  0.28816767449E+03  0.00000000000E+00 0.  1.
         21   -1    0    0  501  502 -0.00000000000E+00 -0.00000000000E+00 -0.18117103122E+03  0.18117103122E+03  0.00000000000E+00 0.  1.
      99926    2    1    2    0    0 -0.14210854715E-13  0.00000000000E+00  0.10699664327E+03  0.46933870571E+03  0.45697980153E+03 0.  0.
      99925    2    3    3    0    0  0.10922094093E+03 -0.30712475475E+02  0.47873668081E+02  0.29040993669E+03  0.26300869405E+03 0.  0.
         25    1    4    4    0    0  0.11165919161E+02 -0.10648521692E+02  0.26419632502E+02  0.12877722565E+03  0.12509000000E+03 0.  0.
         25    1    3    3    0    0 -0.10922094093E+03  0.30712475475E+02  0.59122975191E+02  0.17892876902E+03  0.12509000000E+03 0.  0.
         25    1    4    4    0    0  0.98055021767E+02 -0.20063953783E+02  0.21454035579E+02  0.16163271104E+03  0.12509000000E+03 0.  0.
<mgrwt>
<rscale>  2 0.45697980E+03</rscale>
<asrwt>0</asrwt>
<pdfrwt beam="1">  1       21 0.42377599E-01 0.45697980E+03</pdfrwt>
<pdfrwt beam="2">  1       21 0.26642799E-01 0.45697980E+03</pdfrwt>
<totfact> 0.66435607E+04</totfact>
</mgrwt>
</event>
<event>
 7    0  0.4775379E-002  0.4545208E+03  0.7546771E-02  0.1026382E+00
         21   -1    0    0  502  501  0.00000000000E+00  0.00000000000E+00  0.20299030781E+03  0.20299030781E+03  0.00000000000E+00 0.  1.
         21   -1    0    0  501  502 -0.00000000000E+00 -0.00000000000E+00 -0.25443223840E+03  0.25443223840E+03  0.00000000000E+00 0.  1.
      99926    2    1    2    0    0  0.00000000000E+00  0.00000000000E+00 -0.51441930582E+02  0.45742254621E+03  0.45452075152E+03 0.  0.
      99925    2    3    3    0    0  0.33266413138E+02 -0.93454802357E+02 -0.86038229582E+02  0.29406751466E+03  0.26312102140E+03 0.  0.
         25    1    4    4    0    0  0.47430657014E+02 -0.55540379136E+02 -0.72254082880E+02  0.16187205297E+03  0.12509000000E+03 0.  0.
         25    1    4    4    0    0 -0.14164243876E+02 -0.37914423221E+02 -0.13784146702E+02  0.13219546170E+03  0.12509000000E+03 0.  0.
         25    1    3    3    0    0 -0.33266413138E+02  0.93454802357E+02  0.34596299000E+02  0.16335503155E+03  0.12509000000E+03 0.  0.
<mgrwt>
<rscale>  2 0.45452075E+03</rscale>
<asrwt>0</asrwt>
<pdfrwt beam="1">  1       21 0.29851516E-01 0.45452075E+03</pdfrwt>
<pdfrwt beam="2">  1       21 0.37416505E-01 0.45452075E+03</pdfrwt>
<totfact> 0.68630655E+04</totfact>
</mgrwt>
</event>
<event>
 7    0  0.4775379E-002  0.4538639E+03  0.7546771E-02  0.1026576E+00
         21   -1    0    0  502  501  0.00000000000E+00  0.00000000000E+00  0.10693861047E+03  0.10693861047E+03  0.00000000000E+00 0. -1.
         21   -1    0    0  501  502 -0.00000000000E+00 -0.00000000000E+00 -0.48156697951E+03  0.48156697951E+03  0.00000000000E+00 0. -1.
      99926    2    1    2    0    0  0.00000000000E+00  0.00000000000E+00 -0.37462836904E+03  0.58850558999E+03  0.45386387227E+03 0.  0.
      99925    2    3    3    0    0 -0.81789564213E+02 -0.69951683082E+02 -0.27686147926E+03  0.39670193096E+03  0.26293986488E+03 0.  0.
         25    1    4    4    0    0 -0.23414164255E+02 -0.82921585487E+01 -0.16546163673E+03  0.20890678378E+03  0.12509000000E+03 0.  0.
         25    1    3    3    0    0  0.81789564213E+02  0.69951683082E+02 -0.97766889781E+02  0.19180365903E+03  0.12509000000E+03 0.  0.
         25    1    4    4    0    0 -0.58375399958E+02 -0.61659524533E+02 -0.11139984253E+03  0.18779514717E+03  0.12509000000E+03 0.  0.
<mgrwt>
<rscale>  2 0.45386387E+03</rscale>
<asrwt>0</asrwt>
<pdfrwt beam="1">  1       21 0.15726266E-01 0.45386387E+03</pdfrwt>
<pdfrwt beam="2">  1       21 0.70818673E-01 0.45386387E+03</pdfrwt>
<totfact> 0.59927739E+04</totfact>
</mgrwt>
</event>
<event>
 7    0  0.4775379E-002  0.4470663E+03  0.7546771E-02  0.1028601E+00
         21   -1    0    0  502  501  0.00000000000E+00  0.00000000000E+00  0.42697236533E+03  0.42697236533E+03  0.00000000000E+00 0.  1.
         21   -1    0    0  501  502 -0.00000000000E+00 -0.00000000000E+00 -0.11702648102E+03  0.11702648102E+03  0.00000000000E+00 0.  1.
      99926    2    1    2    0    0  0.71054273576E-14  0.00000000000E+00  0.30994588431E+03  0.54399884635E+03  0.44706631905E+03 0.  0.
      99925    2    3    3    0    0 -0.43264580725E+02  0.94954499304E+02  0.17326350605E+03  0.33135416264E+03  0.26246363117E+03 0.  0.
         25    1    4    4    0    0  0.15955457212E+02  0.59470236677E+02  0.90896347083E+02  0.16643599274E+03  0.12509000000E+03 0.  0.
         25    1    3    3    0    0  0.43264580725E+02 -0.94954499304E+02  0.13668237826E+03  0.21264468371E+03  0.12509000000E+03 0.  0.
         25    1    4    4    0    0 -0.59220037937E+02  0.35484262626E+02  0.82367158969E+02  0.16491816990E+03  0.12509000000E+03 0.  0.
<mgrwt>
<rscale>  2 0.44706632E+03</rscale>
<asrwt>0</asrwt>
<pdfrwt beam="1">  1       21 0.62790053E-01 0.44706632E+03</pdfrwt>
<pdfrwt beam="2">  1       21 0.17209777E-01 0.44706632E+03</pdfrwt>
<totfact> 0.66332050E+04</totfact>
</mgrwt>
</event>
<event>
 7    0  0.4775379E-002  0.4720248E+03  0.7546771E-02  0.1021350E+00
         21   -1    0    0  502  501  0.00000000000E+00  0.00000000000E+00  0.52077726595E+02  0.52077726595E+02  0.00000000000E+00 0. -1.
         21   -1    0    0  501  502 -0.00000000000E+00 -0.00000000000E+00 -0.10695907419E+04  0.10695907419E+04  0.00000000000E+00 0. -1.
      99926    2    1    2    0    0 -0.71054273576E-14  0.71054273576E-14 -0.10175130153E+04  0.11216684685E+04  0.47202480539E+03 0.  0.
      99925    2    3    3    0    0  0.61082732784E+02  0.62126611250E+02 -0.40670567374E+03  0.49212583080E+03  0.26303519197E+03 0.  0.
         25    1    4    4    0    0  0.67588391816E+02  0.49405276799E+02 -0.23834106557E+03  0.28189190077E+03  0.12509000000E+03 0.  0.
         25    1    4    4    0    0 -0.65056590313E+01  0.12721334451E+02 -0.16836460817E+03  0.21023393003E+03  0.12509000000E+03 0.  0.
         25    1    3    3    0    0 -0.61082732784E+02 -0.62126611250E+02 -0.61080734161E+03  0.62954263774E+03  0.12509000000E+03 0.  0.
<mgrwt>
<rscale>  2 0.47202481E+03</rscale>
<asrwt>0</asrwt>
<pdfrwt beam="1">  1       21 0.76584905E-02 0.47202481E+03</pdfrwt>
<pdfrwt beam="2">  1       21 0.15729273E+00 0.47202481E+03</pdfrwt>
<totfact> 0.30490087E+04</totfact>
</mgrwt>
</event>
<event>
 7    0  0.4775379E-002  0.4546921E+03  0.7546771E-02  0.1026332E+00
         21   -1    0    0  502  501  0.00000000000E+00  0.00000000000E+00  0.13800306923E+03  0.13800306923E+03  0.00000000000E+00 0. -1.
         21   -1    0    0  501  502 -0.00000000000E+00 -0.00000000000E+00 -0.37452951208E+03  0.37452951208E+03  0.00000000000E+00 0. -1.
      99926    2    1    2    0    0  0.00000000000E+00  0.00000000000E+00 -0.23652644285E+03  0.51253258132E+03  0.45469208124E+03 0.  0.
      99925    2    3    3    0    0 -0.46889824780E+02 -0.10251051140E+03 -0.15548125082E+03  0.32565590576E+03  0.26300245053E+03 0.  0.
         25    1    4    4    0    0 -0.47238436288E+02 -0.34398119646E+02 -0.10875476723E+03  0.17575496577E+03  0.12509000000E+03 0.  0.
         25    1    3    3    0    0  0.46889824780E+02  0.10251051140E+03 -0.81045192037E+02  0.18687667556E+03  0.12509000000E+03 0.  0.
         25    1    4    4    0    0  0.34861150833E+00 -0.68112391752E+02 -0.46726483585E+02  0.14990093999E+03  0.12509000000E+03 0.  0.
<mgrwt>
<rscale>  2 0.45469208E+03</rscale>
<asrwt>0</asrwt>
<pdfrwt beam="1">  1       21 0.20294569E-01 0.45469208E+03</pdfrwt>
<pdfrwt beam="2">  1       21 0.55077869E-01 0.45469208E+03</pdfrwt>
<totfact> 0.64556478E+04</totfact>
</mgrwt>
</event>
<event>
 6    0  0.4775379E-002  0.4431807E+03  0.7546771E-02  0.1029775E+00
         21   -1    0    0  502  501  0.00000000000E+00  0.00000000000E+00  0.19795776657E+03  0.19795776657E+03  0.00000000000E+00 0.  1.
         21   -1    0    0  501  502 -0.00000000000E+00 -0.00000000000E+00 -0.24804423313E+03  0.24804423313E+03  0.00000000000E+00 0.  1.
      99926    2    1    2    0    0  0.00000000000E+00  0.71054273576E-14 -0.50086466560E+02  0.44600199971E+03  0.44318069634E+03 0.  0.
         25    1    3    3    0    0 -0.76877226439E+02 -0.41308985621E+02  0.37486571132E+02  0.15706460885E+03  0.12509000000E+03 0.  0.
         25    1    3    3    0    0  0.77207157892E+02  0.17888723307E+02 -0.47175988785E+02  0.15541568026E+03  0.12509000000E+03 0.  0.
         25    1    3    3    0    0 -0.32993145299E+00  0.23420262314E+02 -0.40397048907E+02  0.13352171060E+03  0.12509000000E+03 0.  0.
<mgrwt>
<rscale>  2 0.44318070E+03</rscale>
<asrwt>0</asrwt>
<pdfrwt beam="1">  1       21 0.29111436E-01 0.44318070E+03</pdfrwt>
<pdfrwt beam="2">  1       21 0.36477093E-01 0.44318070E+03</pdfrwt>
<totfact> 0.76140668E+04</totfact>
</mgrwt>
</event>
<event>
 7    0  0.4775379E-002  0.4674502E+03  0.7546771E-02  0.1022642E+00
         21   -1    0    0  502  501  0.00000000000E+00  0.00000000000E+00  0.38383351384E+02  0.38383351384E+02  0.00000000000E+00 0.  1.
         21   -1    0    0  501  502 -0.00000000000E+00 -0.00000000000E+00 -0.14232060665E+04  0.14232060665E+04  0.00000000000E+00 0.  1.
      99926    2    1    2    0    0  0.00000000000E+00  0.00000000000E+00 -0.13848227151E+04  0.14615894179E+04  0.46745018363E+03 0.  0.
      99925    2    3    3    0    0 -0.38183338914E+02 -0.48950036939E+02 -0.52468753687E+03  0.59019162902E+03  0.26301154752E+03 0.  0.
         25    1    4    4    0    0  0.83990169483E+01 -0.17395422419E+02 -0.31662236215E+03  0.34098441683E+03  0.12509000000E+03 0.  0.
         25    1    3    3    0    0  0.38183338914E+02  0.48950036939E+02 -0.86013517825E+03  0.87139778887E+03  0.12509000000E+03 0.  0.
         25    1    4    4    0    0 -0.46582355862E+02 -0.31554614520E+02 -0.20806517471E+03  0.24920721218E+03  0.12509000000E+03 0.  0.
<mgrwt>
<rscale>  2 0.46745018E+03</rscale>
<asrwt>0</asrwt>
<pdfrwt beam="1">  1       21 0.56446113E-02 0.46745018E+03</pdfrwt>
<pdfrwt beam="2">  1       21 0.20929498E+00 0.46745018E+03</pdfrwt>
<totfact> 0.22481394E+04</totfact>
</mgrwt>
</event>
<event>
 7    0  0.4775379E-002  0.4584397E+03  0.7546771E-02  0.1025235E+00
         21   -1    0    0  502  501  0.00000000000E+00  0.00000000000E+00  0.20485002045E+02  0.20485002045E+02  0.00000000000E+00 0. -1.
         21   -1    0    0  501  502 -0.00000000000E+00 -0.00000000000E+00 -0.25648885466E+04  0.25648885466E+04  0.00000000000E+00 0. -1.
      99926    2    1    2    0    0  0.00000000000E+00  0.00000000000E+00 -0.25444035445E+04  0.25853735486E+04  0.45843973267E+03 0.  0.
      99925    2    3    3    0    0  0.36497378310E+02 -0.29669203913E+02 -0.99432349954E+03  0.10295432320E+04  0.26280739038E+03 0.  0.
         25    1    4    4    0    0 -0.49236640959E+01  0.13145729309E+02 -0.54478096555E+03  0.55913402793E+03  0.12509000000E+03 0.  0.
         25    1    3    3    0    0 -0.36497378310E+02  0.29669203913E+02 -0.15500800450E+04  0.15558303167E+04  0.12509000000E+03 0.  0.
         25    1    4    4    0    0  0.41421042406E+02 -0.42814933221E+02 -0.44954253399E+03  0.47040920402E+03  0.12509000000E+03 0.  0.
<mgrwt>
<rscale>  2 0.45843973E+03</rscale>
<asrwt>0</asrwt>
<pdfrwt beam="1">  1       21 0.30125004E-02 0.45843973E+03</pdfrwt>
<pdfrwt beam="2">  1       21 0.37718948E+00 0.45843973E+03</pdfrwt>
<totfact> 0.61315907E+03</totfact>
</mgrwt>
</event>
<event>
 7    0  0.4775379E-002  0.4076252E+03  0.7546771E-02  0.1041171E+00
         21   -1    0    0  502  501  0.00000000000E+00  0.00000000000E+00  0.46536181143E+02  0.46536181143E+02  0.00000000000E+00 0.  1.
         21   -1    0    0  501  502 -0.00000000000E+00 -0.00000000000E+00 -0.89262950536E+03  0.89262950536E+03  0.00000000000E+00 0.  1.
      99926    2    1    2    0    0  0.00000000000E+00  0.00000000000E+00 -0.84609332421E+03  0.93916568650E+03  0.40762516289E+03 0.  0.
      99925    2    3    3    0    0  0.27761024817E+02 -0.51645843369E+02 -0.55931113835E+03  0.62084274064E+03  0.26301861432E+03 0.  0.
         25    1    4    4    0    0  0.17966181688E+02 -0.32001488869E+01 -0.34911479482E+03  0.37129728346E+03  0.12509000000E+03 0.  0.
         25    1    4    4    0    0  0.97948431285E+01 -0.48445694483E+02 -0.21019634353E+03  0.24954545718E+03  0.12509000000E+03 0.  0.
         25    1    3    3    0    0 -0.27761024817E+02  0.51645843369E+02 -0.28678218586E+03  0.31832294586E+03  0.12509000000E+03 0.  0.
<mgrwt>
<rscale>  2 0.40762516E+03</rscale>
<asrwt>0</asrwt>
<pdfrwt beam="1">  1       21 0.68435564E-02 0.40762516E+03</pdfrwt>
<pdfrwt beam="2">  1       21 0.13126904E+00 0.40762516E+03</pdfrwt>
<totfact> 0.61351754E+04</totfact>
</mgrwt>
</event>
<event>
 7    0  0.4775379E-002  0.4395095E+03  0.7546771E-02  0.1030897E+00
         21   -1    0    0  502  501  0.00000000000E+00  0.00000000000E+00  0.26760287683E+02  0.26760287683E+02  0.00000000000E+00 0. -1.
         21   -1    0    0  501  502 -0.00000000000E+00 -0.00000000000E+00 -0.18046197631E+04  0.18046197631E+04  0.00000000000E+00 0. -1.
      99926    2    1    2    0    0  0.00000000000E+00 -0.14210854715E-13 -0.17778594755E+04  0.18313800508E+04  0.43950947212E+03 0.  0.
      99925    2    3    3    0    0 -0.27627850903E+01  0.87904328895E+02 -0.95571095570E+03  0.99513218047E+03  0.26300156227E+03 0.  0.
         25    1    4    4    0    0 -0.10661965968E+02  0.80721456631E+02 -0.45170400631E+03  0.47572434087E+03  0.12509000000E+03 0.  0.
         25    1    4    4    0    0  0.78991808779E+01  0.71828722635E+01 -0.50400694939E+03  0.51940783960E+03  0.12509000000E+03 0.  0.
         25    1    3    3    0    0  0.27627850903E+01 -0.87904328895E+02 -0.82214851976E+03  0.83624787035E+03  0.12509000000E+03 0.  0.
<mgrwt>
<rscale>  2 0.43950947E+03</rscale>
<asrwt>0</asrwt>
<pdfrwt beam="1">  1       21 0.39353367E-02 0.43950947E+03</pdfrwt>
<pdfrwt beam="2">  1       21 0.26538524E+00 0.43950947E+03</pdfrwt>
<totfact> 0.18827958E+04</totfact>
</mgrwt>
</event>
<event>
 7    0  0.4775379E-002  0.4469984E+03  0.7546771E-02  0.1028621E+00
         21   -1    0    0  502  501  0.00000000000E+00  0.00000000000E+00  0.22323543698E+03  0.22323543698E+03  0.00000000000E+00 0.  1.
         21   -1    0    0  501  502 -0.00000000000E+00 -0.00000000000E+00 -0.22376328125E+03  0.22376328125E+03  0.00000000000E+00 0.  1.
      99926    2    1    2    0    0  0.00000000000E+00  0.00000000000E+00 -0.52784427544E+00  0.44699871823E+03  0.44699840658E+03 0.  0.
      99925    2    3    3    0    0 -0.65094567684E+02  0.34613800108E+02 -0.75921984306E+02  0.28339186523E+03  0.26289044044E+03 0.  0.
         25    1    4    4    0    0 -0.33116586032E+01  0.32181304979E+02 -0.61548838775E+02  0.14311663470E+03  0.12509000000E+03 0.  0.
         25    1    3    3    0    0  0.65094567684E+02 -0.34613800108E+02  0.75394140031E+02  0.16360685301E+03  0.12509000000E+03 0.  0.
         25    1    4    4    0    0 -0.61782909081E+02  0.24324951289E+01 -0.14373145532E+02  0.14027523053E+03  0.12509000000E+03 0.  0.
<mgrwt>
<rscale>  2 0.44699841E+03</rscale>
<asrwt>0</asrwt>
<pdfrwt beam="1">  1       21 0.32828741E-01 0.44699841E+03</pdfrwt>
<pdfrwt beam="2">  1       21 0.32906365E-01 0.44699841E+03</pdfrwt>
<totfact> 0.73732111E+04</totfact>
</mgrwt>
</event>
<event>
 7    0  0.4775379E-002  0.4503120E+03  0.7546771E-02  0.1027629E+00
         21   -1    0    0  502  501  0.00000000000E+00  0.00000000000E+00  0.32927502733E+02  0.32927502733E+02  0.00000000000E+00 0. -1.
         21   -1    0    0  501  502 -0.00000000000E+00 -0.00000000000E+00 -0.15396011645E+04  0.15396011645E+04  0.00000000000E+00 0. -1.
      99926    2    1    2    0    0  0.14210854715E-13  0.35527136788E-14 -0.15066736617E+04  0.15725286672E+04  0.45031198763E+03 0.  0.
      99925    2    3    3    0    0 -0.97121365360E+02 -0.26466612649E+02 -0.10961178503E+04  0.11316923897E+04  0.26290736366E+03 0.  0.
         25    1    4    4    0    0 -0.13940989369E+02  0.10465444575E+02 -0.45847906173E+03  0.47555697330E+03  0.12509000000E+03 0.  0.
         25    1    3    3    0    0  0.97121365360E+02  0.26466612649E+02 -0.41055581139E+03  0.44083627750E+03  0.12509000000E+03 0.  0.
         25    1    4    4    0    0 -0.83180375991E+02 -0.36932057224E+02 -0.63763878861E+03  0.65613541639E+03  0.12509000000E+03 0.  0.
<mgrwt>
<rscale>  2 0.45031199E+03</rscale>
<asrwt>0</asrwt>
<pdfrwt beam="1">  1       21 0.48422811E-02 0.45031199E+03</pdfrwt>
<pdfrwt beam="2">  1       21 0.22641188E+00 0.45031199E+03</pdfrwt>
<totfact> 0.22877897E+04</totfact>
</mgrwt>
</event>
<event>
 7    0  0.4775379E-002  0.4593337E+03  0.7546771E-02  0.1024975E+00
         21   -1    0    0  502  501  0.00000000000E+00  0.00000000000E+00  0.11299031419E+03  0.11299031419E+03  0.00000000000E+00 0.  1.
         21   -1    0    0  501  502 -0.00000000000E+00 -0.00000000000E+00 -0.46682639282E+03  0.46682639282E+03  0.00000000000E+00 0.  1.
      99926    2    1    2    0    0  0.00000000000E+00  0.00000000000E+00 -0.35383607863E+03  0.57981670701E+03  0.45933369481E+03 0.  0.
      99925    2    3    3    0    0  0.77533560160E+02  0.34107443573E+02 -0.32395862401E+03  0.42582014519E+03  0.26305671503E+03 0.  0.
         25    1    4    4    0    0  0.38513860135E+02 -0.73053192329E+01 -0.10801150942E+03  0.16985487741E+03  0.12509000000E+03 0.  0.
         25    1    4    4    0    0  0.39019700026E+02  0.41412762806E+02 -0.21594711459E+03  0.25596526778E+03  0.12509000000E+03 0.  0.
         25    1    3    3    0    0 -0.77533560160E+02 -0.34107443573E+02 -0.29877454623E+02  0.15399656182E+03  0.12509000000E+03 0.  0.
<mgrwt>
<rscale>  2 0.45933369E+03</rscale>
<asrwt>0</asrwt>
<pdfrwt beam="1">  1       21 0.16616223E-01 0.45933369E+03</pdfrwt>
<pdfrwt beam="2">  1       21 0.68650938E-01 0.45933369E+03</pdfrwt>
<totfact> 0.57927768E+04</totfact>
</mgrwt>
</event>
<event>
 7    0  0.4775379E-002  0.4486657E+03  0.7546771E-02  0.1028121E+00
         21   -1    0    0  502  501  0.00000000000E+00  0.00000000000E+00  0.17154703330E+03  0.17154703330E+03  0.00000000000E+00 0.  1.
         21   -1    0    0  501  502 -0.00000000000E+00 -0.00000000000E+00 -0.29336117054E+03  0.29336117054E+03  0.00000000000E+00 0.  1.
      99926    2    1    2    0    0  0.71054273576E-14 -0.71054273576E-14 -0.12181413724E+03  0.46490820384E+03  0.44866574860E+03 0.  0.
      99925    2    3    3    0    0 -0.57984382905E+02  0.43515797487E+02  0.45743179580E+01  0.27287340752E+03  0.26302691660E+03 0.  0.
         25    1    4    4    0    0 -0.53310312492E+02  0.60932228020E+01  0.30948111275E+02  0.13958656982E+03  0.12509000000E+03 0.  0.
         25    1    4    4    0    0 -0.46740704125E+01  0.37422574685E+02 -0.26373793317E+02  0.13328683770E+03  0.12509000000E+03 0.  0.
         25    1    3    3    0    0  0.57984382905E+02 -0.43515797487E+02 -0.12638845520E+03  0.19203479633E+03  0.12509000000E+03 0.  0.
<mgrwt>
<rscale>  2 0.44866575E+03</rscale>
<asrwt>0</asrwt>
<pdfrwt beam="1">  1       21 0.25227505E-01 0.44866575E+03</pdfrwt>
<pdfrwt beam="2">  1       21 0.43141348E-01 0.44866575E+03</pdfrwt>
<totfact> 0.71333951E+04</totfact>
</mgrwt>
</event>
<event>
 7    0  0.4775379E-002  0.4537886E+03  0.7546771E-02  0.1026598E+00
         21   -1    0    0  502  501  0.00000000000E+00  0.00000000000E+00  0.46012479316E+02  0.46012479316E+02  0.00000000000E+00 0.  1.
         21   -1    0    0  501  502 -0.00000000000E+00 -0.00000000000E+00 -0.11188490304E+04  0.11188490304E+04  0.00000000000E+00 0.  1.
      99926    2    1    2    0    0 -0.14210854715E-13 -0.35527136788E-14 -0.10728365511E+04  0.11648615097E+04  0.45378857574E+03 0.  0.
      99925    2    3    3    0    0  0.99674123280E+02 -0.14725860446E+02 -0.54994918413E+03  0.61786014917E+03  0.26297390934E+03 0.  0.
         25    1    4    4    0    0  0.66163326440E+02  0.24072822221E+02 -0.32712864156E+03  0.35723625623E+03  0.12509000000E+03 0.  0.
         25    1    4    4    0    0  0.33510796840E+02 -0.38798682667E+02 -0.22282054257E+03  0.26062389294E+03  0.12509000000E+03 0.  0.
         25    1    3    3    0    0 -0.99674123280E+02  0.14725860446E+02 -0.52288736696E+03  0.54700136055E+03  0.12509000000E+03 0.  0.
<mgrwt>
<rscale>  2 0.45378858E+03</rscale>
<asrwt>0</asrwt>
<pdfrwt beam="1">  1       21 0.67665408E-02 0.45378858E+03</pdfrwt>
<pdfrwt beam="2">  1       21 0.16453663E+00 0.45378858E+03</pdfrwt>
<totfact> 0.33606153E+04</totfact>
</mgrwt>
</event>
<event>
 7    0  0.4775379E-002  0.4400887E+03  0.7546771E-02  0.1030720E+00
         21   -1    0    0  502  501  0.00000000000E+00  0.00000000000E+00  0.27692035143E+03  0.27692035143E+03  0.00000000000E+00 0. -1.
         21   -1    0    0  501  502 -0.00000000000E+00 -0.00000000000E+00 -0.17484995865E+03  0.17484995865E+03  0.00000000000E+00 0. -1.
      99926    2    1    2    0    0  0.00000000000E+00  0.00000000000E+00  0.10207039278E+03  0.45177031008E+03  0.44008868196E+03 0.  0.
      99925    2    3    3    0    0 -0.79707197597E+02  0.23570984724E+02  0.11165254405E+02  0.27621382073E+03  0.26317405492E+03 0.  0.
         25    1    4    4    0    0 -0.55356887811E+02  0.12024367860E+02  0.43841202092E+02  0.14414759641E+03  0.12509000000E+03 0.  0.
         25    1    3    3    0    0  0.79707197597E+02 -0.23570984724E+02  0.90905138376E+02  0.17555648935E+03  0.12509000000E+03 0.  0.
         25    1    4    4    0    0 -0.24350309787E+02  0.11546616864E+02 -0.32675947687E+02  0.13206622432E+03  0.12509000000E+03 0.  0.
<mgrwt>
<rscale>  2 0.44008868E+03</rscale>
<asrwt>0</asrwt>
<pdfrwt beam="1">  1       21 0.40723581E-01 0.44008868E+03</pdfrwt>
<pdfrwt beam="2">  1       21 0.25713229E-01 0.44008868E+03</pdfrwt>
<totfact> 0.77595336E+04</totfact>
</mgrwt>
</event>
<event>
 7    0  0.4775379E-002  0.4584675E+03  0.7546771E-02  0.1025227E+00
         21   -1    0    0  502  501  0.00000000000E+00  0.00000000000E+00  0.21815443167E+03  0.21815443167E+03  0.00000000000E+00 0.  1.
         21   -1    0    0  501  502 -0.00000000000E+00 -0.00000000000E+00 -0.24087579875E+03  0.24087579875E+03  0.00000000000E+00 0.  1.
      99926    2    1    2    0    0 -0.17763568394E-14 -0.14210854715E-13 -0.22721367075E+02  0.45903023042E+03  0.45846754729E+03 0.  0.
      99925    2    3    3    0    0  0.12967468644E+01  0.11610047122E+03 -0.83629748525E+01  0.28775655324E+03  0.26315944523E+03 0.  0.
         25    1    4    4    0    0 -0.19257328813E+02  0.86882226385E+02  0.19399967250E+02  0.15473601004E+03  0.12509000000E+03 0.  0.
         25    1    4    4    0    0  0.20554075677E+02  0.29218244830E+02 -0.27762942103E+02  0.13302054320E+03  0.12509000000E+03 0.  0.
         25    1    3    3    0    0 -0.12967468644E+01 -0.11610047122E+03 -0.14358392223E+02  0.17127367718E+03  0.12509000000E+03 0.  0.
<mgrwt>
<rscale>  2 0.45846755E+03</rscale>
<asrwt>0</asrwt>
<pdfrwt beam="1">  1       21 0.32081534E-01 0.45846755E+03</pdfrwt>
<pdfrwt beam="2">  1       21 0.35422912E-01 0.45846755E+03</pdfrwt>
<totfact> 0.66395499E+04</totfact>
</mgrwt>
</event>
<event>
 6    0  0.4775379E-002  0.4351666E+03  0.7546771E-02  0.1032240E+00
         21   -1    0    0  502  501  0.00000000000E+00  0.00000000000E+00  0.47815011086E+03  0.47815011086E+03  0.00000000000E+00 0. -1.
         21   -1    0    0  501  502 -0.00000000000E+00 -0.00000000000E+00 -0.99011774201E+02  0.99011774201E+02  0.00000000000E+00 0. -1.
      99926    2    1    2    0    0  0.00000000000E+00  0.35527136788E-14  0.37913833666E+03  0.57716188506E+03  0.43516659252E+03 0.  0.
         25    1    3    3    0    0  0.57798052375E+02 -0.17067383365E+02  0.17910640558E+03  0.22662418903E+03  0.12509000000E+03 0.  0.
         25    1    3    3    0    0  0.34937573569E+02 -0.54511030809E+01  0.79914830345E+02  0.15259173235E+03  0.12509000000E+03 0.  0.
         25    1    3    3    0    0 -0.92735625943E+02  0.22518486446E+02  0.12011710074E+03  0.19794596369E+03  0.12509000000E+03 0.  0.
<mgrwt>
<rscale>  2 0.43516659E+03</rscale>
<asrwt>0</asrwt>
<pdfrwt beam="1">  1       21 0.70316192E-01 0.43516659E+03</pdfrwt>
<pdfrwt beam="2">  1       21 0.14560555E-01 0.43516659E+03</pdfrwt>
<totfact> 0.70532306E+04</totfact>
</mgrwt>
</event>
<event>
 6    0  0.4775379E-002  0.4472511E+03  0.7546771E-02  0.1028545E+00
         21   -1    0    0  502  501  0.00000000000E+00  0.00000000000E+00  0.22777721414E+03  0.22777721414E+03  0.00000000000E+00 0. -1.
         21   -1    0    0  501  502 -0.00000000000E+00 -0.00000000000E+00 -0.21954955587E+03  0.21954955587E+03  0.00000000000E+00 0. -1.
      99926    2    1    2    0    0  0.00000000000E+00  0.00000000000E+00  0.82276582721E+01  0.44732677000E+03  0.44725109815E+03 0.  0.
         25    1    3    3    0    0 -0.27664291549E+02 -0.98552855007E+02 -0.11485501036E+02  0.16204136228E+03  0.12509000000E+03 0.  0.
         25    1    3    3    0    0  0.98967826868E+01  0.76192416758E+02 -0.25980630118E+02  0.14908296992E+03  0.12509000000E+03 0.  0.
         25    1    3    3    0    0  0.17767508862E+02  0.22360438250E+02  0.45693789425E+02  0.13620243780E+03  0.12509000000E+03 0.  0.
<mgrwt>
<rscale>  2 0.44725110E+03</rscale>
<asrwt>0</asrwt>
<pdfrwt beam="1">  1       21 0.33496649E-01 0.44725110E+03</pdfrwt>
<pdfrwt beam="2">  1       21 0.32286700E-01 0.44725110E+03</pdfrwt>
<totfact> 0.73555290E+04</totfact>
</mgrwt>
</event>
<event>
 7    0  0.4775379E-002  0.4506657E+03  0.7546771E-02  0.1027524E+00
         21   -1    0    0  502  501  0.00000000000E+00  0.00000000000E+00  0.17952285692E+03  0.17952285692E+03  0.00000000000E+00 0.  1.
         21   -1    0    0  501  502 -0.00000000000E+00 -0.00000000000E+00 -0.28283242941E+03  0.28283242941E+03  0.00000000000E+00 0.  1.
      99926    2    1    2    0    0  0.14210854715E-13 -0.14210854715E-13 -0.10330957249E+03  0.46235528633E+03  0.45066566657E+03 0.  0.
      99925    2    3    3    0    0 -0.79286207646E+02  0.74628841953E+02 -0.59502099173E+02  0.29082578568E+03  0.26302731994E+03 0.  0.
         25    1    4    4    0    0 -0.26441711522E+02  0.57277160081E+02 -0.63618384495E+02  0.15386566908E+03  0.12509000000E+03 0.  0.
         25    1    3    3    0    0  0.79286207646E+02 -0.74628841953E+02 -0.43807473315E+02  0.17152950065E+03  0.12509000000E+03 0.  0.
         25    1    4    4    0    0 -0.52844496124E+02  0.17351681873E+02  0.41162853219E+01  0.13696011660E+03  0.12509000000E+03 0.  0.
<mgrwt>
<rscale>  2 0.45066567E+03</rscale>
<asrwt>0</asrwt>
<pdfrwt beam="1">  1       21 0.26400420E-01 0.45066567E+03</pdfrwt>
<pdfrwt beam="2">  1       21 0.41593004E-01 0.45066567E+03</pdfrwt>
<totfact> 0.70398209E+04</totfact>
</mgrwt>
</event>
<event>
 7    0  0.4775379E-002  0.4527543E+03  0.7546771E-02  0.1026904E+00
         21   -1    0    0  502  501  0.00000000000E+00  0.00000000000E+00  0.57601129463E+03  0.57601129463E+03  0.00000000000E+00 0.  1.
         21   -1    0    0  501  502 -0.00000000000E+00 -0.00000000000E+00 -0.88968076097E+02  0.88968076097E+02  0.00000000000E+00 0.  1.
      99926    2    1    2    0    0  0.00000000000E+00 -0.71054273576E-14  0.48704321854E+03  0.66497937073E+03  0.45275431171E+03 0.  0.
      99925    2    3    3    0    0 -0.43331694469E+02  0.53927495145E+02  0.43482324695E+03  0.51279447000E+03  0.26287088446E+03 0.  0.
         25    1    3    3    0    0  0.43331694469E+02 -0.53927495145E+02  0.52219971591E+02  0.15218490073E+03  0.12509000000E+03 0.  0.
         25    1    4    4    0    0 -0.40592947218E+02 -0.46807984640E+01  0.18069637053E+03  0.22353609029E+03  0.12509000000E+03 0.  0.
         25    1    4    4    0    0 -0.27387472506E+01  0.58608293609E+02  0.25412687641E+03  0.28925837971E+03  0.12509000000E+03 0.  0.
<mgrwt>
<rscale>  2 0.45275431E+03</rscale>
<asrwt>0</asrwt>
<pdfrwt beam="1">  1       21 0.84707541E-01 0.45275431E+03</pdfrwt>
<pdfrwt beam="2">  1       21 0.13083541E-01 0.45275431E+03</pdfrwt>
<totfact> 0.55827619E+04</totfact>
</mgrwt>
</event>
<event>
 7    0  0.4775379E-002  0.4584885E+03  0.7546771E-02  0.1025221E+00
         21   -1    0    0  502  501  0.00000000000E+00  0.00000000000E+00  0.60405191232E+02  0.60405191232E+02  0.00000000000E+00 0. -1.
         21   -1    0    0  501  502 -0.00000000000E+00 -0.00000000000E+00 -0.87000676148E+03  0.87000676148E+03  0.00000000000E+00 0. -1.
      99926    2    1    2    0    0  0.00000000000E+00  0.00000000000E+00 -0.80960157025E+03  0.93041195271E+03  0.45848849408E+03 0.  0.
      99925    2    3    3    0    0  0.44405263534E+02  0.37271078472E+02 -0.30310781987E+03  0.40548873166E+03  0.26303193784E+03 0.  0.
         25    1    4    4    0    0  0.76375038977E+01  0.52496460856E+02 -0.18000164165E+03  0.22552673670E+03  0.12509000000E+03 0.  0.
         25    1    3    3    0    0 -0.44405263534E+02 -0.37271078472E+02 -0.50649375038E+03  0.52492322105E+03  0.12509000000E+03 0.  0.
         25    1    4    4    0    0  0.36767759636E+02 -0.15225382384E+02 -0.12310617821E+03  0.17996199497E+03  0.12509000000E+03 0.  0.
<mgrwt>
<rscale>  2 0.45848849E+03</rscale>
<asrwt>0</asrwt>
<pdfrwt beam="1">  1       21 0.88831170E-02 0.45848849E+03</pdfrwt>
<pdfrwt beam="2">  1       21 0.12794216E+00 0.45848849E+03</pdfrwt>
<totfact> 0.40819156E+04</totfact>
</mgrwt>
</event>
<event>
 7    0  0.4775379E-002  0.4519303E+03  0.7546771E-02  0.1027148E+00
         21   -1    0    0  502  501  0.00000000000E+00  0.00000000000E+00  0.37081921302E+03  0.37081921302E+03  0.00000000000E+00 0.  1.
         21   -1    0    0  501  502 -0.00000000000E+00 -0.00000000000E+00 -0.13769580311E+03  0.13769580311E+03  0.00000000000E+00 0.  1.
      99926    2    1    2    0    0  0.35527136788E-14  0.71054273576E-14  0.23312340991E+03  0.50851501613E+03  0.45193030147E+03 0.  0.
      99925    2    3    3    0    0 -0.18871644698E+02 -0.33456244316E+02  0.26317572003E+03  0.37425367136E+03  0.26330380106E+03 0.  0.
         25    1    3    3    0    0  0.18871644698E+02  0.33456244316E+02 -0.30052310123E+02  0.13426134478E+03  0.12509000000E+03 0.  0.
         25    1    4    4    0    0  0.26460741619E+02 -0.39414300070E+01  0.10524555265E+03  0.16564975150E+03  0.12509000000E+03 0.  0.
         25    1    4    4    0    0 -0.45332386317E+02 -0.29514814309E+02  0.15793016738E+03  0.20860391986E+03  0.12509000000E+03 0.  0.
<mgrwt>
<rscale>  2 0.45193030E+03</rscale>
<asrwt>0</asrwt>
<pdfrwt beam="1">  1       21 0.54532237E-01 0.45193030E+03</pdfrwt>
<pdfrwt beam="2">  1       21 0.20249383E-01 0.45193030E+03</pdfrwt>
<totfact> 0.66276457E+04</totfact>
</mgrwt>
</event>
<event>
 7    0  0.4775379E-002  0.4522009E+03  0.7546771E-02  0.1027068E+00
         21   -1    0    0  502  501  0.00000000000E+00  0.00000000000E+00  0.38328914974E+02  0.38328914974E+02  0.00000000000E+00 0. -1.
         21   -1    0    0  501  502 -0.00000000000E+00 -0.00000000000E+00 -0.13337561001E+04  0.13337561001E+04  0.00000000000E+00 0. -1.
      99926    2    1    2    0    0  0.00000000000E+00  0.00000000000E+00 -0.12954271851E+04  0.13720850151E+04  0.45220094717E+03 0.  0.
      99925    2    3    3    0    0  0.77627009382E+02 -0.71036117769E+02 -0.92003968559E+03  0.96265203457E+03  0.26297116571E+03 0.  0.
         25    1    4    4    0    0  0.24328871312E+02 -0.65272171980E+02 -0.39107769719E+03  0.41646323218E+03  0.12509000000E+03 0.  0.
         25    1    3    3    0    0 -0.77627009382E+02  0.71036117769E+02 -0.37538749953E+03  0.40943298049E+03  0.12509000000E+03 0.  0.
         25    1    4    4    0    0  0.53298138070E+02 -0.57639457891E+01 -0.52896198840E+03  0.54618880240E+03  0.12509000000E+03 0.  0.
<mgrwt>
<rscale>  2 0.45220095E+03</rscale>
<asrwt>0</asrwt>
<pdfrwt beam="1">  1       21 0.56366048E-02 0.45220095E+03</pdfrwt>
<pdfrwt beam="2">  1       21 0.19614062E+00 0.45220095E+03</pdfrwt>
<totfact> 0.27682846E+04</totfact>
</mgrwt>
</event>
<event>
 7    0  0.4775379E-002  0.4555832E+03  0.7546771E-02  0.1026070E+00
         21   -1    0    0  502  501  0.00000000000E+00  0.00000000000E+00  0.65922229215E+02  0.65922229215E+02  0.00000000000E+00 0.  1.
         21   -1    0    0  501  502 -0.00000000000E+00 -0.00000000000E+00 -0.78712467600E+03  0.78712467600E+03  0.00000000000E+00 0.  1.
      99926    2    1    2    0    0  0.00000000000E+00  0.00000000000E+00 -0.72120244679E+03  0.85304690522E+03  0.45558320124E+03 0.  0.
      99925    2    3    3    0    0  0.32355806829E+02  0.28954709870E+02 -0.25694956903E+03  0.37028038187E+03  0.26305742094E+03 0.  0.
         25    1    4    4    0    0  0.20596358626E+02  0.11798512658E+02 -0.72715117308E+02  0.14662336538E+03  0.12509000000E+03 0.  0.
         25    1    4    4    0    0  0.11759448202E+02  0.17156197213E+02 -0.18423445172E+03  0.22365701649E+03  0.12509000000E+03 0.  0.
         25    1    3    3    0    0 -0.32355806829E+02 -0.28954709870E+02 -0.46425287776E+03  0.48276652335E+03  0.12509000000E+03 0.  0.
<mgrwt>
<rscale>  2 0.45558320E+03</rscale>
<asrwt>0</asrwt>
<pdfrwt beam="1">  1       21 0.96944455E-02 0.45558320E+03</pdfrwt>
<pdfrwt beam="2">  1       21 0.11575363E+00 0.45558320E+03</pdfrwt>
<totfact> 0.45096719E+04</totfact>
</mgrwt>
</event>
<event>
 7    0  0.4775379E-002  0.4485894E+03  0.7546771E-02  0.1028144E+00
         21   -1    0    0  502  501  0.00000000000E+00  0.00000000000E+00  0.48102776523E+02  0.48102776523E+02  0.00000000000E+00 0.  1.
         21   -1    0    0  501  502 -0.00000000000E+00 -0.00000000000E+00 -0.10458464058E+04  0.10458464058E+04  0.00000000000E+00 0.  1.
      99926    2    1    2    0    0  0.00000000000E+00 -0.35527136788E-14 -0.99774362925E+03  0.10939491823E+04  0.44858941554E+03 0.  0.
      99925    2    3    3    0    0 -0.10200881438E+03 -0.21123460008E+02 -0.69158483306E+03  0.74720328779E+03  0.26300413150E+03 0.  0.
         25    1    3    3    0    0  0.10200881438E+03  0.21123460008E+02 -0.30615879618E+03  0.34674589450E+03  0.12509000000E+03 0.  0.
         25    1    4    4    0    0 -0.57565023177E+02  0.20151098265E+02 -0.41377476587E+03  0.43655110082E+03  0.12509000000E+03 0.  0.
         25    1    4    4    0    0 -0.44443791203E+02 -0.41274558273E+02 -0.27781006719E+03  0.31065218697E+03  0.12509000000E+03 0.  0.
<mgrwt>
<rscale>  2 0.44858942E+03</rscale>
<asrwt>0</asrwt>
<pdfrwt beam="1">  1       21 0.70739380E-02 0.44858942E+03</pdfrwt>
<pdfrwt beam="2">  1       21 0.15380094E+00 0.44858942E+03</pdfrwt>
<totfact> 0.37547768E+04</totfact>
</mgrwt>
</event>
<event>
 7    0  0.4775379E-002  0.4808780E+03  0.7546771E-02  0.1018894E+00
         21   -1    0    0  502  501  0.00000000000E+00  0.00000000000E+00  0.57609663419E+02  0.57609663419E+02  0.00000000000E+00 0. -1.
         21   -1    0    0  501  502 -0.00000000000E+00 -0.00000000000E+00 -0.10034933766E+04  0.10034933766E+04  0.00000000000E+00 0. -1.
      99926    2    1    2    0    0  0.00000000000E+00  0.14210854715E-13 -0.94588371322E+03  0.10611030401E+04  0.48087801227E+03 0.  0.
      99925    2    3    3    0    0 -0.23338657233E+02 -0.12538280403E+03 -0.47854861483E+03  0.56078799656E+03  0.26307576828E+03 0.  0.
         25    1    4    4    0    0 -0.11294337386E+01 -0.10562119143E+03 -0.27389655349E+03  0.31909863963E+03  0.12509000000E+03 0.  0.
         25    1    4    4    0    0 -0.22209223494E+02 -0.19761612596E+02 -0.20465206134E+03  0.24168935693E+03  0.12509000000E+03 0.  0.
         25    1    3    3    0    0  0.23338657233E+02  0.12538280403E+03 -0.46733509839E+03  0.50031504350E+03  0.12509000000E+03 0.  0.
<mgrwt>
<rscale>  2 0.48087801E+03</rscale>
<asrwt>0</asrwt>
<pdfrwt beam="1">  1       21 0.84720086E-02 0.48087801E+03</pdfrwt>
<pdfrwt beam="2">  1       21 0.14757257E+00 0.48087801E+03</pdfrwt>
<totfact> 0.30278980E+04</totfact>
</mgrwt>
</event>
<event>
 7    0  0.4775379E-002  0.4602293E+03  0.7546771E-02  0.1024715E+00
         21   -1    0    0  502  501  0.00000000000E+00  0.00000000000E+00  0.72996689566E+03  0.72996689566E+03  0.00000000000E+00 0.  1.
         21   -1    0    0  501  502 -0.00000000000E+00 -0.00000000000E+00 -0.72541302909E+02  0.72541302909E+02  0.00000000000E+00 0.  1.
      99926    2    1    2    0    0  0.17763568394E-14  0.00000000000E+00  0.65742559275E+03  0.80250819857E+03  0.46022928934E+03 0.  0.
      99925    2    3    3    0    0 -0.10255629539E+02 -0.80509552310E+02  0.26238856132E+03  0.38026569686E+03  0.26299672459E+03 0.  0.
         25    1    4    4    0    0  0.27220555759E+02 -0.65226710121E+02  0.13232412078E+03  0.19532706779E+03  0.12509000000E+03 0.  0.
         25    1    3    3    0    0  0.10255629539E+02  0.80509552310E+02  0.39503703143E+03  0.42224250171E+03  0.12509000000E+03 0.  0.
         25    1    4    4    0    0 -0.37476185298E+02 -0.15282842189E+02  0.13006444053E+03  0.18493862907E+03  0.12509000000E+03 0.  0.
<mgrwt>
<rscale>  2 0.46022929E+03</rscale>
<asrwt>0</asrwt>
<pdfrwt beam="1">  1       21 0.10734807E+00 0.46022929E+03</pdfrwt>
<pdfrwt beam="2">  1       21 0.10667839E-01 0.46022929E+03</pdfrwt>
<totfact> 0.45737682E+04</totfact>
</mgrwt>
</event>
<event>
 7    0  0.4775379E-002  0.4509055E+03  0.7546771E-02  0.1027452E+00
         21   -1    0    0  502  501  0.00000000000E+00  0.00000000000E+00  0.50481114745E+03  0.50481114745E+03  0.00000000000E+00 0.  1.
         21   -1    0    0  501  502 -0.00000000000E+00 -0.00000000000E+00 -0.10068902178E+03  0.10068902178E+03  0.00000000000E+00 0.  1.
      99926    2    1    2    0    0 -0.14210854715E-13 -0.71054273576E-14  0.40412212567E+03  0.60550016923E+03  0.45090549174E+03 0.  0.
      99925    2    3    3    0    0  0.65998565441E+02  0.54239402545E+02  0.34616643261E+03  0.44331480032E+03  0.26343706970E+03 0.  0.
         25    1    3    3    0    0 -0.65998565441E+02 -0.54239402545E+02  0.57955693061E+02  0.16218536891E+03  0.12509000000E+03 0.  0.
         25    1    4    4    0    0  0.73872578111E+02  0.18526666174E+02  0.19078556340E+03  0.24051410449E+03  0.12509000000E+03 0.  0.
         25    1    4    4    0    0 -0.78740126694E+01  0.35712736371E+02  0.15538086921E+03  0.20280069584E+03  0.12509000000E+03 0.  0.
<mgrwt>
<rscale>  2 0.45090549E+03</rscale>
<asrwt>0</asrwt>
<pdfrwt beam="1">  1       21 0.74236932E-01 0.45090549E+03</pdfrwt>
<pdfrwt beam="2">  1       21 0.14807209E-01 0.45090549E+03</pdfrwt>
<totfact> 0.60266844E+04</totfact>
</mgrwt>
</event>
<event>
 7    0  0.4775379E-002  0.4505132E+03  0.7546771E-02  0.1027569E+00
         21   -1    0    0  502  501  0.00000000000E+00  0.00000000000E+00  0.18322245405E+03  0.18322245405E+03  0.00000000000E+00 0.  1.
         21   -1    0    0  501  502 -0.00000000000E+00 -0.00000000000E+00 -0.27693406266E+03  0.27693406266E+03  0.00000000000E+00 0.  1.
      99926    2    1    2    0    0  0.00000000000E+00  0.00000000000E+00 -0.93711608615E+02  0.46015651671E+03  0.45051321210E+03 0.  0.
      99925    2    3    3    0    0  0.36089958979E+02 -0.82635562506E+02 -0.12164627961E+03  0.30344348192E+03  0.26296198974E+03 0.  0.
         25    1    3    3    0    0 -0.36089958979E+02  0.82635562506E+02  0.27934670991E+02  0.15671303479E+03  0.12509000000E+03 0.  0.
         25    1    4    4    0    0  0.24591269418E+02 -0.77852279971E+02 -0.44136898619E+02  0.15576033496E+03  0.12509000000E+03 0.  0.
         25    1    4    4    0    0  0.11498689561E+02 -0.47832825353E+01 -0.77509380987E+02  0.14768314695E+03  0.12509000000E+03 0.  0.
<mgrwt>
<rscale>  2 0.45051321E+03</rscale>
<asrwt>0</asrwt>
<pdfrwt beam="1">  1       21 0.26944479E-01 0.45051321E+03</pdfrwt>
<pdfrwt beam="2">  1       21 0.40725597E-01 0.45051321E+03</pdfrwt>
<totfact> 0.70656930E+04</totfact>
</mgrwt>
</event>
<event>
 7    0  0.4775379E-002  0.4554761E+03  0.7546771E-02  0.1026102E+00
         21   -1    0    0  502  501  0.00000000000E+00  0.00000000000E+00  0.45543029878E+02  0.45543029878E+02  0.00000000000E+00 0.  1.
         21   -1    0    0  501  502 -0.00000000000E+00 -0.00000000000E+00 -0.11388045290E+04  0.11388045290E+04  0.00000000000E+00 0.  1.
      99926    2    1    2    0    0  0.71054273576E-14  0.00000000000E+00 -0.10932614991E+04  0.11843475588E+04  0.45547605288E+03 0.  0.
      99925    2    3    3    0    0  0.62018537565E+02 -0.33333907019E+02 -0.45602266720E+03  0.53114140048E+03  0.26305335190E+03 0.  0.
         25    1    4    4    0    0  0.12531853113E+01 -0.19172280491E+02 -0.16194213789E+03  0.20552837015E+03  0.12509000000E+03 0.  0.
         25    1    4    4    0    0  0.60765352253E+02 -0.14161626529E+02 -0.29408052931E+03  0.32561303033E+03  0.12509000000E+03 0.  0.
         25    1    3    3    0    0 -0.62018537565E+02  0.33333907019E+02 -0.63723883188E+03  0.65320615836E+03  0.12509000000E+03 0.  0.
<mgrwt>
<rscale>  2 0.45547605E+03</rscale>
<asrwt>0</asrwt>
<pdfrwt beam="1">  1       21 0.66975045E-02 0.45547605E+03</pdfrwt>
<pdfrwt beam="2">  1       21 0.16747125E+00 0.45547605E+03</pdfrwt>
<totfact> 0.32535180E+04</totfact>
</mgrwt>
</event>
<event>
 7    0  0.4775379E-002  0.4576643E+03  0.7546771E-02  0.1025461E+00
         21   -1    0    0  502  501  0.00000000000E+00  0.00000000000E+00  0.25255772689E+03  0.25255772689E+03  0.00000000000E+00 0.  1.
         21   -1    0    0  501  502 -0.00000000000E+00 -0.00000000000E+00 -0.20733539480E+03  0.20733539480E+03  0.00000000000E+00 0.  1.
      99926    2    1    2    0    0  0.00000000000E+00  0.00000000000E+00  0.45222332092E+02  0.45989312169E+03  0.45766431372E+03 0.  0.
      99925    2    3    3    0    0  0.57813344665E+02 -0.30054080405E+02  0.12435409998E+03  0.29816812251E+03  0.26304877214E+03 0.  0.
         25    1    4    4    0    0  0.10449540365E+02 -0.40443351047E+02  0.33274604965E+02  0.13601310589E+03  0.12509000000E+03 0.  0.
         25    1    4    4    0    0  0.47363804300E+02  0.10389270641E+02  0.91079495019E+02  0.16215501662E+03  0.12509000000E+03 0.  0.
         25    1    3    3    0    0 -0.57813344665E+02  0.30054080405E+02 -0.79131767891E+02  0.16172499918E+03  0.12509000000E+03 0.  0.
<mgrwt>
<rscale>  2 0.45766431E+03</rscale>
<asrwt>0</asrwt>
<pdfrwt beam="1">  1       21 0.37140842E-01 0.45766431E+03</pdfrwt>
<pdfrwt beam="2">  1       21 0.30490499E-01 0.45766431E+03</pdfrwt>
<totfact> 0.66758360E+04</totfact>
</mgrwt>
</event>
<event>
 7    0  0.4775379E-002  0.4588183E+03  0.7546771E-02  0.1025124E+00
         21   -1    0    0  502  501  0.00000000000E+00  0.00000000000E+00  0.12305578050E+03  0.12305578050E+03  0.00000000000E+00 0.  1.
         21   -1    0    0  501  502 -0.00000000000E+00 -0.00000000000E+00 -0.42768051637E+03  0.42768051637E+03  0.00000000000E+00 0.  1.
      99926    2    1    2    0    0  0.14210854715E-13 -0.35527136788E-14 -0.30462473587E+03  0.55073629687E+03  0.45881830716E+03 0.  0.
      99925    2    3    3    0    0  0.78751206845E+02 -0.28908600052E+02 -0.93486054247E+02  0.29138227104E+03  0.26291923818E+03 0.  0.
         25    1    4    4    0    0  0.47632631738E+02 -0.36446626563E+02 -0.13240509547E+02  0.13935581576E+03  0.12509000000E+03 0.  0.
         25    1    4    4    0    0  0.31118575108E+02  0.75380265114E+01 -0.80245544700E+02  0.15202645528E+03  0.12509000000E+03 0.  0.
         25    1    3    3    0    0 -0.78751206845E+02  0.28908600052E+02 -0.21113868162E+03  0.25935402583E+03  0.12509000000E+03 0.  0.
<mgrwt>
<rscale>  2 0.45881831E+03</rscale>
<asrwt>0</asrwt>
<pdfrwt beam="1">  1       21 0.18096438E-01 0.45881831E+03</pdfrwt>
<pdfrwt beam="2">  1       21 0.62894194E-01 0.45881831E+03</pdfrwt>
<totfact> 0.59985103E+04</totfact>
</mgrwt>
</event>
<event>
 7    0  0.4775379E-002  0.4470318E+03  0.7546771E-02  0.1028611E+00
         21   -1    0    0  502  501  0.00000000000E+00  0.00000000000E+00  0.43367004931E+03  0.43367004931E+03  0.00000000000E+00 0.  1.
         21   -1    0    0  501  502 -0.00000000000E+00 -0.00000000000E+00 -0.11520133003E+03  0.11520133003E+03  0.00000000000E+00 0.  1.
      99926    2    1    2    0    0 -0.14210854715E-13  0.00000000000E+00  0.31846871928E+03  0.54887137934E+03  0.44703183992E+03 0.  0.
      99925    2    3    3    0    0 -0.10552257945E+03  0.38884688615E+01  0.20303803757E+03  0.34856689776E+03  0.26291501012E+03 0.  0.
         25    1    4    4    0    0 -0.87130561032E+02 -0.15798065392E+02  0.13165556965E+03  0.20204457591E+03  0.12509000000E+03 0.  0.
         25    1    3    3    0    0  0.10552257945E+03 -0.38884688615E+01  0.11543068171E+03  0.20030448158E+03  0.12509000000E+03 0.  0.
         25    1    4    4    0    0 -0.18392018415E+02  0.19686534254E+02  0.71382467925E+02  0.14652232185E+03  0.12509000000E+03 0.  0.
<mgrwt>
<rscale>  2 0.44703184E+03</rscale>
<asrwt>0</asrwt>
<pdfrwt beam="1">  1       21 0.63775007E-01 0.44703184E+03</pdfrwt>
<pdfrwt beam="2">  1       21 0.16941372E-01 0.44703184E+03</pdfrwt>
<totfact> 0.66005006E+04</totfact>
</mgrwt>
</event>
<event>
 7    0  0.4775379E-002  0.4485301E+03  0.7546771E-02  0.1028161E+00
         21   -1    0    0  502  501  0.00000000000E+00  0.00000000000E+00  0.73472093659E+02  0.73472093659E+02  0.00000000000E+00 0. -1.
         21   -1    0    0  501  502 -0.00000000000E+00 -0.00000000000E+00 -0.68454309249E+03  0.68454309249E+03  0.00000000000E+00 0. -1.
      99926    2    1    2    0    0  0.00000000000E+00  0.00000000000E+00 -0.61107099883E+03  0.75801518614E+03  0.44853010693E+03 0.  0.
      99925    2    3    3    0    0 -0.95978878009E+02  0.46928610004E+02 -0.37907847338E+03  0.47361708590E+03  0.26305591728E+03 0.  0.
         25    1    4    4    0    0 -0.19874935103E+02  0.51631404197E+02 -0.19904785696E+03  0.24151267545E+03  0.12509000000E+03 0.  0.
         25    1    3    3    0    0  0.95978878009E+02 -0.46928610004E+02 -0.23199252545E+03  0.28439810025E+03  0.12509000000E+03 0.  0.
         25    1    4    4    0    0 -0.76103942906E+02 -0.47027941926E+01 -0.18003061642E+03  0.23210441045E+03  0.12509000000E+03 0.  0.
<mgrwt>
<rscale>  2 0.44853011E+03</rscale>
<asrwt>0</asrwt>
<pdfrwt beam="1">  1       21 0.10804720E-01 0.44853011E+03</pdfrwt>
<pdfrwt beam="2">  1       21 0.10066810E+00 0.44853011E+03</pdfrwt>
<totfact> 0.52477488E+04</totfact>
</mgrwt>
</event>
<event>
 7    0  0.4775379E-002  0.4618164E+03  0.7546771E-02  0.1024256E+00
         21   -1    0    0  502  501  0.00000000000E+00  0.00000000000E+00  0.14161490727E+03  0.14161490727E+03  0.00000000000E+00 0.  1.
         21   -1    0    0  501  502 -0.00000000000E+00 -0.00000000000E+00 -0.37650415112E+03  0.37650415112E+03  0.00000000000E+00 0.  1.
      99926    2    1    2    0    0  0.00000000000E+00  0.00000000000E+00 -0.23488924385E+03  0.51811905839E+03  0.46181641568E+03 0.  0.
      99925    2    3    3    0    0  0.33867434013E+02  0.69055811063E+02 -0.24938018373E+03  0.37056159986E+03  0.26307739380E+03 0.  0.
         25    1    3    3    0    0 -0.33867434013E+02 -0.69055811063E+02  0.14490939880E+02  0.14755745853E+03  0.12509000000E+03 0.  0.
         25    1    4    4    0    0  0.50796397982E+02  0.49600116254E+02 -0.10684862098E+03  0.17917751389E+03  0.12509000000E+03 0.  0.
         25    1    4    4    0    0 -0.16928963969E+02  0.19455694809E+02 -0.14253156275E+03  0.19138408597E+03  0.12509000000E+03 0.  0.
<mgrwt>
<rscale>  2 0.46181642E+03</rscale>
<asrwt>0</asrwt>
<pdfrwt beam="1">  1       21 0.20825722E-01 0.46181642E+03</pdfrwt>
<pdfrwt beam="2">  1       21 0.55368256E-01 0.46181642E+03</pdfrwt>
<totfact> 0.60667093E+04</totfact>
</mgrwt>
</event>
<event>
 7    0  0.4775379E-002  0.4587568E+03  0.7546771E-02  0.1025142E+00
         21   -1    0    0  502  501  0.00000000000E+00  0.00000000000E+00  0.15955224227E+03  0.15955224227E+03  0.00000000000E+00 0.  1.
         21   -1    0    0  501  502 -0.00000000000E+00 -0.00000000000E+00 -0.32976322384E+03  0.32976322384E+03  0.00000000000E+00 0.  1.
      99926    2    1    2    0    0  0.00000000000E+00 -0.17763568394E-14 -0.17021098156E+03  0.48931546611E+03  0.45875684968E+03 0.  0.
      99925    2    3    3    0    0 -0.10821426540E+03 -0.84582970062E+01 -0.62312984599E+02  0.29165070983E+03  0.26342998780E+03 0.  0.
         25    1    3    3    0    0  0.10821426540E+03  0.84582970062E+01 -0.10789799696E+03  0.19766475628E+03  0.12509000000E+03 0.  0.
         25    1    4    4    0    0 -0.22567823763E+02  0.25012556646E+02 -0.32514027710E+02  0.13356498328E+03  0.12509000000E+03 0.  0.
         25    1    4    4    0    0 -0.85646441642E+02 -0.33470853653E+02 -0.29798956889E+02  0.15808572656E+03  0.12509000000E+03 0.  0.
<mgrwt>
<rscale>  2 0.45875685E+03</rscale>
<asrwt>0</asrwt>
<pdfrwt beam="1">  1       21 0.23463565E-01 0.45875685E+03</pdfrwt>
<pdfrwt beam="2">  1       21 0.48494591E-01 0.45875685E+03</pdfrwt>
<totfact> 0.64095001E+04</totfact>
</mgrwt>
</event>
<event>
 7    0  0.4775379E-002  0.4213870E+03  0.7546771E-02  0.1036616E+00
         21   -1    0    0  502  501  0.00000000000E+00  0.00000000000E+00  0.13197752363E+03  0.13197752363E+03  0.00000000000E+00 0. -1.
         21   -1    0    0  501  502 -0.00000000000E+00 -0.00000000000E+00 -0.33635848351E+03  0.33635848351E+03  0.00000000000E+00 0. -1.
      99926    2    1    2    0    0  0.35527136788E-14  0.00000000000E+00 -0.20438095989E+03  0.46833600714E+03  0.42138704159E+03 0.  0.
      99925    2    3    3    0    0  0.31199908238E+02 -0.18305238072E+02 -0.56899165831E+02  0.27159530547E+03  0.26309309924E+03 0.  0.
         25    1    4    4    0    0 -0.19136661300E+02 -0.13949886284E+02 -0.61596026859E+01  0.12746081727E+03  0.12509000000E+03 0.  0.
         25    1    4    4    0    0  0.50336569538E+02 -0.43553517879E+01 -0.50739563146E+02  0.14413448821E+03  0.12509000000E+03 0.  0.
         25    1    3    3    0    0 -0.31199908238E+02  0.18305238072E+02 -0.14748179406E+03  0.19674070167E+03  0.12509000000E+03 0.  0.
<mgrwt>
<rscale>  2 0.42138704E+03</rscale>
<asrwt>0</asrwt>
<pdfrwt beam="1">  1       21 0.19408460E-01 0.42138704E+03</pdfrwt>
<pdfrwt beam="2">  1       21 0.49464482E-01 0.42138704E+03</pdfrwt>
<totfact> 0.89051366E+04</totfact>
</mgrwt>
</event>
<event>
 7    0  0.4775379E-002  0.4573956E+03  0.7546771E-02  0.1025539E+00
         21   -1    0    0  502  501  0.00000000000E+00  0.00000000000E+00  0.19172000616E+03  0.19172000616E+03  0.00000000000E+00 0.  1.
         21   -1    0    0  501  502 -0.00000000000E+00 -0.00000000000E+00 -0.27280765870E+03  0.27280765870E+03  0.00000000000E+00 0.  1.
      99926    2    1    2    0    0  0.26645352591E-14 -0.35527136788E-14 -0.81087652542E+02  0.46452766486E+03  0.45739560998E+03 0.  0.
      99925    2    3    3    0    0 -0.55782593636E+01  0.25337552963E+02 -0.16509963665E+03  0.31162694498E+03  0.26302158513E+03 0.  0.
         25    1    4    4    0    0 -0.33584182594E+02 -0.12499511180E+00 -0.54894754317E+02  0.14067286553E+03  0.12509000000E+03 0.  0.
         25    1    3    3    0    0  0.55782593636E+01 -0.25337552963E+02  0.84011984109E+02  0.15290071989E+03  0.12509000000E+03 0.  0.
         25    1    4    4    0    0  0.28005923230E+02  0.25462548075E+02 -0.11020488233E+03  0.17095407945E+03  0.12509000000E+03 0.  0.
<mgrwt>
<rscale>  2 0.45739561E+03</rscale>
<asrwt>0</asrwt>
<pdfrwt beam="1">  1       21 0.28194119E-01 0.45739561E+03</pdfrwt>
<pdfrwt beam="2">  1       21 0.40118773E-01 0.45739561E+03</pdfrwt>
<totfact> 0.66568436E+04</totfact>
</mgrwt>
</event>
<event>
 7    0  0.4775379E-002  0.4546274E+03  0.7546771E-02  0.1026351E+00
         21   -1    0    0  502  501  0.00000000000E+00  0.00000000000E+00  0.29268010910E+03  0.29268010910E+03  0.00000000000E+00 0. -1.
         21   -1    0    0  501  502 -0.00000000000E+00 -0.00000000000E+00 -0.17654607873E+03  0.17654607873E+03  0.00000000000E+00 0. -1.
      99926    2    1    2    0    0  0.71054273576E-14  0.35527136788E-14  0.11613403037E+03  0.46922618784E+03  0.45462743246E+03 0.  0.
      99925    2    3    3    0    0 -0.39621182759E+02 -0.27473010548E+02  0.17837798933E+03  0.32142083286E+03  0.26299817545E+03 0.  0.
         25    1    3    3    0    0  0.39621182759E+02  0.27473010548E+02 -0.62243958961E+02  0.14780535497E+03  0.12509000000E+03 0.  0.
         25    1    4    4    0    0 -0.27495553608E+02  0.13108885447E+02  0.12351242566E+03  0.17841153477E+03  0.12509000000E+03 0.  0.
         25    1    4    4    0    0 -0.12125629151E+02 -0.40581895995E+02  0.54865563671E+02  0.14300929810E+03  0.12509000000E+03 0.  0.
<mgrwt>
<rscale>  2 0.45462743E+03</rscale>
<asrwt>0</asrwt>
<pdfrwt beam="1">  1       21 0.43041193E-01 0.45462743E+03</pdfrwt>
<pdfrwt beam="2">  1       21 0.25962659E-01 0.45462743E+03</pdfrwt>
<totfact> 0.67693171E+04</totfact>
</mgrwt>
</event>
<event>
 7    0  0.4775379E-002  0.4533616E+03  0.7546771E-02  0.1026724E+00
         21   -1    0    0  502  501  0.00000000000E+00  0.00000000000E+00  0.20569908830E+03  0.20569908830E+03  0.00000000000E+00 0. -1.
         21   -1    0    0  501  502 -0.00000000000E+00 -0.00000000000E+00 -0.24980270177E+03  0.24980270177E+03  0.00000000000E+00 0. -1.
      99926    2    1    2    0    0  0.00000000000E+00  0.00000000000E+00 -0.44103613471E+02  0.45550179008E+03  0.45336161289E+03 0.  0.
      99925    2    3    3    0    0 -0.32101806163E+02  0.16346432378E+02  0.78378015757E+02  0.27676458240E+03  0.26297868527E+03 0.  0.
         25    1    4    4    0    0 -0.55694279743E+02  0.57997229991E+01  0.50248740248E+02  0.14597237266E+03  0.12509000000E+03 0.  0.
         25    1    3    3    0    0  0.32101806163E+02 -0.16346432378E+02 -0.12248162923E+03  0.17873720768E+03  0.12509000000E+03 0.  0.
         25    1    4    4    0    0  0.23592473580E+02  0.10546709378E+02  0.28129275509E+02  0.13079220974E+03  0.12509000000E+03 0.  0.
<mgrwt>
<rscale>  2 0.45336161E+03</rscale>
<asrwt>0</asrwt>
<pdfrwt beam="1">  1       21 0.30249866E-01 0.45336161E+03</pdfrwt>
<pdfrwt beam="2">  1       21 0.36735691E-01 0.45336161E+03</pdfrwt>
<totfact> 0.69411973E+04</totfact>
</mgrwt>
</event>
<event>
 7    0  0.4775379E-002  0.4527378E+03  0.7546771E-02  0.1026909E+00
         21   -1    0    0  502  501  0.00000000000E+00  0.00000000000E+00  0.42218825399E+03  0.42218825399E+03  0.00000000000E+00 0. -1.
         21   -1    0    0  501  502 -0.00000000000E+00 -0.00000000000E+00 -0.12137448427E+03  0.12137448427E+03  0.00000000000E+00 0. -1.
      99926    2    1    2    0    0  0.00000000000E+00  0.14210854715E-13  0.30081376971E+03  0.54356273826E+03  0.45273781195E+03 0.  0.
      99925    2    3    3    0    0 -0.33039046947E+02 -0.10574867780E+03  0.19874511548E+03  0.34775701884E+03  0.26298471770E+03 0.  0.
         25    1    3    3    0    0  0.33039046947E+02  0.10574867780E+03  0.10206865423E+03  0.19580571942E+03  0.12509000000E+03 0.  0.
         25    1    4    4    0    0  0.10912528897E+02 -0.83634445585E+02  0.10925763882E+03  0.18627545065E+03  0.12509000000E+03 0.  0.
         25    1    4    4    0    0 -0.43951575843E+02 -0.22114232215E+02  0.89487476660E+02  0.16148156819E+03  0.12509000000E+03 0.  0.
<mgrwt>
<rscale>  2 0.45273781E+03</rscale>
<asrwt>0</asrwt>
<pdfrwt beam="1">  1       21 0.62086507E-01 0.45273781E+03</pdfrwt>
<pdfrwt beam="2">  1       21 0.17849189E-01 0.45273781E+03</pdfrwt>
<totfact> 0.63421619E+04</totfact>
</mgrwt>
</event>
<event>
 7    0  0.4775379E-002  0.4482401E+03  0.7546771E-02  0.1028248E+00
         21   -1    0    0  502  501  0.00000000000E+00  0.00000000000E+00  0.37414571890E+03  0.37414571890E+03  0.00000000000E+00 0. -1.
         21   -1    0    0  501  502 -0.00000000000E+00 -0.00000000000E+00 -0.13425195480E+03  0.13425195480E+03  0.00000000000E+00 0. -1.
      99926    2    1    2    0    0  0.00000000000E+00  0.14210854715E-13  0.23989376410E+03  0.50839767371E+03  0.44824008810E+03 0.  0.
      99925    2    3    3    0    0 -0.40725393784E+02  0.97895777713E+02  0.13857935931E+03  0.31564327632E+03  0.26302908217E+03 0.  0.
         25    1    4    4    0    0 -0.52979429608E+01  0.80421231315E+01  0.57243000931E+02  0.13790218707E+03  0.12509000000E+03 0.  0.
         25    1    4    4    0    0 -0.35427450823E+02  0.89853654582E+02  0.81336358377E+02  0.17774108925E+03  0.12509000000E+03 0.  0.
         25    1    3    3    0    0  0.40725393784E+02 -0.97895777713E+02  0.10131440479E+03  0.19275439738E+03  0.12509000000E+03 0.  0.
<mgrwt>
<rscale>  2 0.44824009E+03</rscale>
<asrwt>0</asrwt>
<pdfrwt beam="1">  1       21 0.55021429E-01 0.44824009E+03</pdfrwt>
<pdfrwt beam="2">  1       21 0.19742935E-01 0.44824009E+03</pdfrwt>
<totfact> 0.68274348E+04</totfact>
</mgrwt>
</event>
<event>
 7    0  0.4775379E-002  0.4493937E+03  0.7546771E-02  0.1027903E+00
         21   -1    0    0  502  501  0.00000000000E+00  0.00000000000E+00  0.14377470280E+04  0.14377470280E+04  0.00000000000E+00 0.  1.
         21   -1    0    0  501  502 -0.00000000000E+00 -0.00000000000E+00 -0.35116516976E+02  0.35116516976E+02  0.00000000000E+00 0.  1.
      99926    2    1    2    0    0  0.17763568394E-14  0.00000000000E+00  0.14026305111E+04  0.14728635450E+04  0.44939367115E+03 0.  0.
      99925    2    3    3    0    0 -0.12090021481E+02  0.91893487550E+02  0.10673451351E+04  0.11031956222E+04  0.26310522970E+03 0.  0.
         25    1    3    3    0    0  0.12090021481E+02 -0.91893487550E+02  0.33528537598E+03  0.36966792277E+03  0.12509000000E+03 0.  0.
         25    1    4    4    0    0 -0.10983312771E+02  0.43419584654E+01  0.51856720071E+03  0.53357186537E+03  0.12509000000E+03 0.  0.
         25    1    4    4    0    0 -0.11067087101E+01  0.87551529084E+02  0.54877793436E+03  0.56962375687E+03  0.12509000000E+03 0.  0.
<mgrwt>
<rscale>  2 0.44939367E+03</rscale>
<asrwt>0</asrwt>
<pdfrwt beam="1">  1       21 0.21143335E+00 0.44939367E+03</pdfrwt>
<pdfrwt beam="2">  1       21 0.51641946E-02 0.44939367E+03</pdfrwt>
<totfact> 0.25546689E+04</totfact>
</mgrwt>
</event>
<event>
 7    0  0.4775379E-002  0.4502675E+03  0.7546771E-02  0.1027642E+00
         21   -1    0    0  502  501  0.00000000000E+00  0.00000000000E+00  0.67389028236E+02  0.67389028236E+02  0.00000000000E+00 0. -1.
         21   -1    0    0  501  502 -0.00000000000E+00 -0.00000000000E+00 -0.75212841990E+03  0.75212841990E+03  0.00000000000E+00 0. -1.
      99926    2    1    2    0    0  0.00000000000E+00  0.00000000000E+00 -0.68473939166E+03  0.81951744813E+03  0.45026749083E+03 0.  0.
      99925    2    3    3    0    0 -0.10446100188E+03  0.21949260216E+02 -0.39522620679E+03  0.48656210089E+03  0.26295446860E+03 0.  0.
         25    1    3    3    0    0  0.10446100188E+03 -0.21949260216E+02 -0.28951318488E+03  0.33295534724E+03  0.12509000000E+03 0.  0.
         25    1    4    4    0    0 -0.57214317051E+02  0.32002682717E+02 -0.26142020836E+03  0.29712906828E+03  0.12509000000E+03 0.  0.
         25    1    4    4    0    0 -0.47246684832E+02 -0.10053422501E+02 -0.13380599843E+03  0.18943303262E+03  0.12509000000E+03 0.  0.
<mgrwt>
<rscale>  2 0.45026749E+03</rscale>
<asrwt>0</asrwt>
<pdfrwt beam="1">  1       21 0.99101513E-02 0.45026749E+03</pdfrwt>
<pdfrwt beam="2">  1       21 0.11060712E+00 0.45026749E+03</pdfrwt>
<totfact> 0.48615556E+04</totfact>
</mgrwt>
</event>
<event>
 7    0  0.4775379E-002  0.4537267E+03  0.7546771E-02  0.1026617E+00
         21   -1    0    0  502  501  0.00000000000E+00  0.00000000000E+00  0.37204378540E+03  0.37204378540E+03  0.00000000000E+00 0.  1.
         21   -1    0    0  501  502 -0.00000000000E+00 -0.00000000000E+00 -0.13833580180E+03  0.13833580180E+03  0.00000000000E+00 0.  1.
      99926    2    1    2    0    0  0.17763568394E-14  0.00000000000E+00  0.23370798359E+03  0.51037958720E+03  0.45372668142E+03 0.  0.
      99925    2    3    3    0    0 -0.13340777800E+02  0.39566233167E+02  0.30448144533E+02  0.26808733921E+03  0.26305943964E+03 0.  0.
         25    1    4    4    0    0 -0.26650280477E+02  0.36574380753E+02 -0.15943555568E+02  0.13397622118E+03  0.12509000000E+03 0.  0.
         25    1    3    3    0    0  0.13340777800E+02 -0.39566233167E+02  0.20325983906E+03  0.24229224799E+03  0.12509000000E+03 0.  0.
         25    1    4    4    0    0  0.13309502678E+02  0.29918524141E+01  0.46391700101E+02  0.13411111804E+03  0.12509000000E+03 0.  0.
<mgrwt>
<rscale>  2 0.45372668E+03</rscale>
<asrwt>0</asrwt>
<pdfrwt beam="1">  1       21 0.54712321E-01 0.45372668E+03</pdfrwt>
<pdfrwt beam="2">  1       21 0.20343500E-01 0.45372668E+03</pdfrwt>
<totfact> 0.65203847E+04</totfact>
</mgrwt>
</event>
<event>
 6    0  0.4775379E-002  0.4625809E+03  0.7546771E-02  0.1024035E+00
         21   -1    0    0  502  501  0.00000000000E+00  0.00000000000E+00  0.20452948496E+04  0.20452948496E+04  0.00000000000E+00 0. -1.
         21   -1    0    0  501  502 -0.00000000000E+00 -0.00000000000E+00 -0.26155289334E+02  0.26155289334E+02  0.00000000000E+00 0. -1.
      99926    2    1    2    0    0 -0.14210854715E-13  0.00000000000E+00  0.20191395603E+04  0.20714501390E+04  0.46258092726E+03 0.  0.
         25    1    3    3    0    0 -0.10083793155E+03 -0.42193032260E+02  0.55253295030E+03  0.57696508532E+03  0.12509000000E+03 0.  0.
         25    1    3    3    0    0  0.63485674372E+02 -0.19533100330E+02  0.79670084218E+03  0.80919201237E+03  0.12509000000E+03 0.  0.
         25    1    3    3    0    0  0.37352257178E+02  0.61726132590E+02  0.66990576782E+03  0.68529304127E+03  0.12509000000E+03 0.  0.
<mgrwt>
<rscale>  2 0.46258093E+03</rscale>
<asrwt>0</asrwt>
<pdfrwt beam="1">  1       21 0.30077855E+00 0.46258093E+03</pdfrwt>
<pdfrwt beam="2">  1       21 0.38463675E-02 0.46258093E+03</pdfrwt>
<totfact> 0.11864434E+04</totfact>
</mgrwt>
</event>
<event>
 7    0  0.4775379E-002  0.4549490E+03  0.7546771E-02  0.1026256E+00
         21   -1    0    0  502  501  0.00000000000E+00  0.00000000000E+00  0.85052626265E+02  0.85052626265E+02  0.00000000000E+00 0. -1.
         21   -1    0    0  501  502 -0.00000000000E+00 -0.00000000000E+00 -0.60838389753E+03  0.60838389753E+03  0.00000000000E+00 0. -1.
      99926    2    1    2    0    0  0.00000000000E+00  0.35527136788E-14 -0.52333127127E+03  0.69343652380E+03  0.45494900049E+03 0.  0.
      99925    2    3    3    0    0 -0.28043985040E+02 -0.30364468009E+02 -0.48950332631E+03  0.55742070128E+03  0.26343095061E+03 0.  0.
         25    1    4    4    0    0 -0.44195427438E+02 -0.44026656929E+02 -0.25482532608E+03  0.29064589665E+03  0.12509000000E+03 0.  0.
         25    1    3    3    0    0  0.28043985040E+02  0.30364468009E+02 -0.33827944962E+02  0.13601582252E+03  0.12509000000E+03 0.  0.
         25    1    4    4    0    0  0.16151442398E+02  0.13662188920E+02 -0.23467800022E+03  0.26677480463E+03  0.12509000000E+03 0.  0.
<mgrwt>
<rscale>  2 0.45494900E+03</rscale>
<asrwt>0</asrwt>
<pdfrwt beam="1">  1       21 0.12507739E-01 0.45494900E+03</pdfrwt>
<pdfrwt beam="2">  1       21 0.89468219E-01 0.45494900E+03</pdfrwt>
<totfact> 0.53282197E+04</totfact>
</mgrwt>
</event>
<event>
 7    0  0.4775379E-002  0.3972889E+03  0.7546771E-02  0.1044722E+00
         21   -1    0    0  502  501  0.00000000000E+00  0.00000000000E+00  0.58633300589E+03  0.58633300589E+03  0.00000000000E+00 0.  1.
         21   -1    0    0  501  502 -0.00000000000E+00 -0.00000000000E+00 -0.67298992399E+02  0.67298992399E+02  0.00000000000E+00 0.  1.
      99926    2    1    2    0    0  0.00000000000E+00 -0.35527136788E-14  0.51903401349E+03  0.65363199829E+03  0.39728891506E+03 0.  0.
      99925    2    3    3    0    0  0.29935433768E+02 -0.85785338001E+01  0.38833669696E+03  0.47005907522E+03  0.26302171498E+03 0.  0.
         25    1    4    4    0    0  0.71962385404E+01  0.35129908389E+02  0.18007181932E+03  0.22216945003E+03  0.12509000000E+03 0.  0.
         25    1    3    3    0    0 -0.29935433768E+02  0.85785338001E+01  0.13069731654E+03  0.18357292308E+03  0.12509000000E+03 0.  0.
         25    1    4    4    0    0  0.22739195228E+02 -0.43708442190E+02  0.20826487764E+03  0.24788962519E+03  0.12509000000E+03 0.  0.
<mgrwt>
<rscale>  2 0.39728892E+03</rscale>
<asrwt>0</asrwt>
<pdfrwt beam="1">  1       21 0.86225439E-01 0.39728892E+03</pdfrwt>
<pdfrwt beam="2">  1       21 0.98969109E-02 0.39728892E+03</pdfrwt>
<totfact> 0.89937689E+04</totfact>
</mgrwt>
</event>
<event>
 7    0  0.4775379E-002  0.4535568E+03  0.7546771E-02  0.1026667E+00
         21   -1    0    0  502  501  0.00000000000E+00  0.00000000000E+00  0.61565766519E+02  0.61565766519E+02  0.00000000000E+00 0.  1.
         21   -1    0    0  501  502 -0.00000000000E+00 -0.00000000000E+00 -0.83534139218E+03  0.83534139218E+03  0.00000000000E+00 0.  1.
      99926    2    1    2    0    0  0.00000000000E+00  0.00000000000E+00 -0.77377562566E+03  0.89690715870E+03  0.45355675770E+03 0.  0.
      99925    2    3    3    0    0  0.94427271658E+02 -0.12810530945E+02 -0.60318773064E+03  0.66489776802E+03  0.26300757439E+03 0.  0.
         25    1    4    4    0    0  0.86844531088E+02  0.38571147932E+01 -0.30166452382E+03  0.33794354994E+03  0.12509000000E+03 0.  0.
         25    1    4    4    0    0  0.75827405696E+01 -0.16667645738E+02 -0.30152320681E+03  0.32695421807E+03  0.12509000000E+03 0.  0.
         25    1    3    3    0    0 -0.94427271658E+02  0.12810530945E+02 -0.17058789502E+03  0.23200939068E+03  0.12509000000E+03 0.  0.
<mgrwt>
<rscale>  2 0.45355676E+03</rscale>
<asrwt>0</asrwt>
<pdfrwt beam="1">  1       21 0.90537901E-02 0.45355676E+03</pdfrwt>
<pdfrwt beam="2">  1       21 0.12284431E+00 0.45355676E+03</pdfrwt>
<totfact> 0.43861229E+04</totfact>
</mgrwt>
</event>
<event>
 7    0  0.4775379E-002  0.4551007E+03  0.7546771E-02  0.1026212E+00
         21   -1    0    0  502  501  0.00000000000E+00  0.00000000000E+00  0.55807232611E+03  0.55807232611E+03  0.00000000000E+00 0.  1.
         21   -1    0    0  501  502 -0.00000000000E+00 -0.00000000000E+00 -0.92782189910E+02  0.92782189910E+02  0.00000000000E+00 0.  1.
      99926    2    1    2    0    0  0.00000000000E+00  0.00000000000E+00  0.46529013620E+03  0.65085451602E+03  0.45510074728E+03 0.  0.
      99925    2    3    3    0    0  0.55965804675E+01 -0.74283369662E+02  0.17056419567E+03  0.32212935902E+03  0.26291793088E+03 0.  0.
         25    1    4    4    0    0  0.39483114657E+02 -0.22420351851E+02  0.72577256124E+02  0.15158019240E+03  0.12509000000E+03 0.  0.
         25    1    3    3    0    0 -0.55965804675E+01  0.74283369662E+02  0.29472594053E+03  0.32872515699E+03  0.12509000000E+03 0.  0.
         25    1    4    4    0    0 -0.33886534189E+02 -0.51863017812E+02  0.97986939549E+02  0.17054916663E+03  0.12509000000E+03 0.  0.
<mgrwt>
<rscale>  2 0.45510075E+03</rscale>
<asrwt>0</asrwt>
<pdfrwt beam="1">  1       21 0.82069458E-01 0.45510075E+03</pdfrwt>
<pdfrwt beam="2">  1       21 0.13644440E-01 0.45510075E+03</pdfrwt>
<totfact> 0.55608081E+04</totfact>
</mgrwt>
</event>
<event>
 7    0  0.4775379E-002  0.4545145E+03  0.7546771E-02  0.1026384E+00
         21   -1    0    0  502  501  0.00000000000E+00  0.00000000000E+00  0.46806185646E+03  0.46806185646E+03  0.00000000000E+00 0. -1.
         21   -1    0    0  501  502 -0.00000000000E+00 -0.00000000000E+00 -0.11033979682E+03  0.11033979682E+03  0.00000000000E+00 0. -1.
      99926    2    1    2    0    0  0.00000000000E+00  0.00000000000E+00  0.35772205964E+03  0.57840165328E+03  0.45451446683E+03 0.  0.
      99925    2    3    3    0    0 -0.11186694531E+03 -0.12512259693E+02  0.21910326107E+03  0.36037998116E+03  0.26305269760E+03 0.  0.
         25    1    3    3    0    0  0.11186694531E+03  0.12512259693E+02  0.13861879857E+03  0.21802167212E+03  0.12509000000E+03 0.  0.
         25    1    4    4    0    0 -0.52358851090E+02 -0.16045415547E+02  0.15830056500E+03  0.20905856028E+03  0.12509000000E+03 0.  0.
         25    1    4    4    0    0 -0.59508094216E+02  0.35331558537E+01  0.60802696066E+02  0.15132142088E+03  0.12509000000E+03 0.  0.
<mgrwt>
<rscale>  2 0.45451447E+03</rscale>
<asrwt>0</asrwt>
<pdfrwt beam="1">  1       21 0.68832625E-01 0.45451447E+03</pdfrwt>
<pdfrwt beam="2">  1       21 0.16226441E-01 0.45451447E+03</pdfrwt>
<totfact> 0.60258773E+04</totfact>
</mgrwt>
</event>
<event>
 7    0  0.4775379E-002  0.4568392E+03  0.7546771E-02  0.1025702E+00
         21   -1    0    0  502  501  0.00000000000E+00  0.00000000000E+00  0.10926534938E+03  0.10926534938E+03  0.00000000000E+00 0.  1.
         21   -1    0    0  501  502 -0.00000000000E+00 -0.00000000000E+00 -0.47751205785E+03  0.47751205785E+03  0.00000000000E+00 0.  1.
      99926    2    1    2    0    0  0.13322676296E-14  0.14210854715E-13 -0.36824670847E+03  0.58677740724E+03  0.45683923578E+03 0.  0.
      99925    2    3    3    0    0 -0.19955435482E+01  0.94005596494E+02 -0.31617355755E+03  0.42185271074E+03  0.26296949767E+03 0.  0.
         25    1    4    4    0    0  0.29143791873E+02  0.75317527008E+02 -0.17491107100E+03  0.22970302857E+03  0.12509000000E+03 0.  0.
         25    1    3    3    0    0  0.19955435482E+01 -0.94005596494E+02 -0.52073150927E+02  0.16492469649E+03  0.12509000000E+03 0.  0.
         25    1    4    4    0    0 -0.31139335421E+02  0.18688069486E+02 -0.14126248655E+03  0.19214968217E+03  0.12509000000E+03 0.  0.
<mgrwt>
<rscale>  2 0.45683924E+03</rscale>
<asrwt>0</asrwt>
<pdfrwt beam="1">  1       21 0.16068434E-01 0.45683924E+03</pdfrwt>
<pdfrwt beam="2">  1       21 0.70222362E-01 0.45683924E+03</pdfrwt>
<totfact> 0.58642426E+04</totfact>
</mgrwt>
</event>
<event>
 7    0  0.4775379E-002  0.4579246E+03  0.7546771E-02  0.1025385E+00
         21   -1    0    0  502  501  0.00000000000E+00  0.00000000000E+00  0.42686262103E+03  0.42686262103E+03  0.00000000000E+00 0.  1.
         21   -1    0    0  501  502 -0.00000000000E+00 -0.00000000000E+00 -0.12281172613E+03  0.12281172613E+03  0.00000000000E+00 0.  1.
      99926    2    1    2    0    0  0.00000000000E+00  0.17763568394E-14  0.30405089490E+03  0.54967434717E+03  0.45792460214E+03 0.  0.
      99925    2    3    3    0    0  0.11187647184E+03 -0.45559950312E+01  0.15473183815E+03  0.32499504049E+03  0.26295005716E+03 0.  0.
         25    1    3    3    0    0 -0.11187647184E+03  0.45559950312E+01  0.14931905675E+03  0.22467930668E+03  0.12509000000E+03 0.  0.
         25    1    4    4    0    0  0.27800098909E+02  0.17480464815E+02  0.98721601714E+02  0.16270179745E+03  0.12509000000E+03 0.  0.
         25    1    4    4    0    0  0.84076372933E+02 -0.22036459846E+02  0.56010236437E+02  0.16229324303E+03  0.12509000000E+03 0.  0.
<mgrwt>
<rscale>  2 0.45792460E+03</rscale>
<asrwt>0</asrwt>
<pdfrwt beam="1">  1       21 0.62773914E-01 0.45792460E+03</pdfrwt>
<pdfrwt beam="2">  1       21 0.18060548E-01 0.45792460E+03</pdfrwt>
<totfact> 0.60476445E+04</totfact>
</mgrwt>
</event>
<event>
 7    0  0.4775379E-002  0.4586492E+03  0.7546771E-02  0.1025174E+00
         21   -1    0    0  502  501  0.00000000000E+00  0.00000000000E+00  0.12233016330E+03  0.12233016330E+03  0.00000000000E+00 0.  1.
         21   -1    0    0  501  502 -0.00000000000E+00 -0.00000000000E+00 -0.42990023463E+03  0.42990023463E+03  0.00000000000E+00 0.  1.
      99926    2    1    2    0    0  0.00000000000E+00 -0.88817841970E-15 -0.30757007133E+03  0.55223039793E+03  0.45864917271E+03 0.  0.
      99925    2    3    3    0    0  0.46437333159E+02 -0.61654302256E+01 -0.32139403283E+03  0.41794321145E+03  0.26303605309E+03 0.  0.
         25    1    4    4    0    0 -0.41072495235E+01 -0.28717963760E+02 -0.18105926013E+03  0.22197196832E+03  0.12509000000E+03 0.  0.
         25    1    3    3    0    0 -0.46437333159E+02  0.61654302256E+01  0.13823961498E+02  0.13428718648E+03  0.12509000000E+03 0.  0.
         25    1    4    4    0    0  0.50544582682E+02  0.22552533535E+02 -0.14033477270E+03  0.19597124313E+03  0.12509000000E+03 0.  0.
<mgrwt>
<rscale>  2 0.45864917E+03</rscale>
<asrwt>0</asrwt>
<pdfrwt beam="1">  1       21 0.17989730E-01 0.45864917E+03</pdfrwt>
<pdfrwt beam="2">  1       21 0.63220622E-01 0.45864917E+03</pdfrwt>
<totfact> 0.59969181E+04</totfact>
</mgrwt>
</event>
<event>
 7    0  0.4775379E-002  0.4678750E+03  0.7546771E-02  0.1022522E+00
         21   -1    0    0  502  501  0.00000000000E+00  0.00000000000E+00  0.31826282873E+03  0.31826282873E+03  0.00000000000E+00 0.  1.
         21   -1    0    0  501  502 -0.00000000000E+00 -0.00000000000E+00 -0.17195457262E+03  0.17195457262E+03  0.00000000000E+00 0.  1.
      99926    2    1    2    0    0  0.14210854715E-13  0.00000000000E+00  0.14630825611E+03  0.49021740135E+03  0.46787497773E+03 0.  0.
      99925    2    3    3    0    0 -0.78154099605E+02  0.81806437147E+02  0.14627534032E+03  0.32155245056E+03  0.26305730712E+03 0.  0.
         25    1    4    4    0    0  0.46116538041E+00  0.22366375193E+02  0.67214606412E+02  0.14375596971E+03  0.12509000000E+03 0.  0.
         25    1    3    3    0    0  0.78154099605E+02 -0.81806437147E+02  0.32915788572E-01  0.16866495080E+03  0.12509000000E+03 0.  0.
         25    1    4    4    0    0 -0.78615264985E+02  0.59440061954E+02  0.79060733913E+02  0.17779648084E+03  0.12509000000E+03 0.  0.
<mgrwt>
<rscale>  2 0.46787498E+03</rscale>
<asrwt>0</asrwt>
<pdfrwt beam="1">  1       21 0.46803357E-01 0.46787498E+03</pdfrwt>
<pdfrwt beam="2">  1       21 0.25287437E-01 0.46787498E+03</pdfrwt>
<totfact> 0.59632092E+04</totfact>
</mgrwt>
</event>
<event>
 7    0  0.4775379E-002  0.4462169E+03  0.7546771E-02  0.1028856E+00
         21   -1    0    0  502  501  0.00000000000E+00  0.00000000000E+00  0.81964740792E+02  0.81964740792E+02  0.00000000000E+00 0.  1.
         21   -1    0    0  501  502 -0.00000000000E+00 -0.00000000000E+00 -0.60730238696E+03  0.60730238696E+03  0.00000000000E+00 0.  1.
      99926    2    1    2    0    0  0.00000000000E+00  0.00000000000E+00 -0.52533764617E+03  0.68926712776E+03  0.44621691017E+03 0.  0.
      99925    2    3    3    0    0 -0.46176253452E+01  0.71438655220E+02 -0.45141307281E+03  0.52728825700E+03  0.26293409772E+03 0.  0.
         25    1    4    4    0    0  0.27527285893E+02  0.15620177820E+02 -0.17865744819E+03  0.22038088238E+03  0.12509000000E+03 0.  0.
         25    1    4    4    0    0 -0.32144911238E+02  0.55818477400E+02 -0.27275562462E+03  0.30690737463E+03  0.12509000000E+03 0.  0.
         25    1    3    3    0    0  0.46176253452E+01 -0.71438655220E+02 -0.73924573361E+02  0.16197887075E+03  0.12509000000E+03 0.  0.
<mgrwt>
<rscale>  2 0.44621691E+03</rscale>
<asrwt>0</asrwt>
<pdfrwt beam="1">  1       21 0.12053638E-01 0.44621691E+03</pdfrwt>
<pdfrwt beam="2">  1       21 0.89309175E-01 0.44621691E+03</pdfrwt>
<totfact> 0.57353418E+04</totfact>
</mgrwt>
</event>
<event>
 7    0  0.4775379E-002  0.4587730E+03  0.7546771E-02  0.1025138E+00
         21   -1    0    0  502  501  0.00000000000E+00  0.00000000000E+00  0.74930694419E+03  0.74930694419E+03  0.00000000000E+00 0. -1.
         21   -1    0    0  501  502 -0.00000000000E+00 -0.00000000000E+00 -0.70222431064E+02  0.70222431064E+02  0.00000000000E+00 0. -1.
      99926    2    1    2    0    0 -0.14432899320E-14  0.00000000000E+00  0.67908451313E+03  0.81952937525E+03  0.45877295140E+03 0.  0.
      99925    2    3    3    0    0  0.26841024260E+00 -0.32659412717E+02  0.22472624966E+03  0.34713584337E+03  0.26255417952E+03 0.  0.
         25    1    4    4    0    0 -0.29563270266E+02 -0.37971807753E+02  0.94161483461E+02  0.16379785774E+03  0.12509000000E+03 0.  0.
         25    1    3    3    0    0 -0.26841024260E+00  0.32659412717E+02  0.45435826347E+03  0.47239353188E+03  0.12509000000E+03 0.  0.
         25    1    4    4    0    0  0.29831680508E+02  0.53123950363E+01  0.13056476620E+03  0.18333798563E+03  0.12509000000E+03 0.  0.
<mgrwt>
<rscale>  2 0.45877295E+03</rscale>
<asrwt>0</asrwt>
<pdfrwt beam="1">  1       21 0.11019219E+00 0.45877295E+03</pdfrwt>
<pdfrwt beam="2">  1       21 0.10326829E-01 0.45877295E+03</pdfrwt>
<totfact> 0.45473396E+04</totfact>
</mgrwt>
</event>
<event>
 7    0  0.4775379E-002  0.4561226E+03  0.7546771E-02  0.1025912E+00
         21   -1    0    0  502  501  0.00000000000E+00  0.00000000000E+00  0.97662104363E+03  0.97662104363E+03  0.00000000000E+00 0.  1.
         21   -1    0    0  501  502 -0.00000000000E+00 -0.00000000000E+00 -0.53257057316E+02  0.53257057316E+02  0.00000000000E+00 0.  1.
      99926    2    1    2    0    0  0.71054273576E-14  0.00000000000E+00  0.92336398631E+03  0.10298781009E+04  0.45612262780E+03 0.  0.
      99925    2    3    3    0    0 -0.48980517302E+02 -0.18701134180E+02  0.80960763451E+03  0.85285595778E+03  0.26296376057E+03 0.  0.
         25    1    4    4    0    0 -0.25110367678E+02 -0.79229252060E+01  0.27613503776E+03  0.30428830160E+03  0.12509000000E+03 0.  0.
         25    1    3    3    0    0  0.48980517302E+02  0.18701134180E+02  0.11375635180E+03  0.17702214316E+03  0.12509000000E+03 0.  0.
         25    1    4    4    0    0 -0.23870149624E+02 -0.10778208974E+02  0.53347259674E+03  0.54856765618E+03  0.12509000000E+03 0.  0.
<mgrwt>
<rscale>  2 0.45612263E+03</rscale>
<asrwt>0</asrwt>
<pdfrwt beam="1">  1       21 0.14362073E+00 0.45612263E+03</pdfrwt>
<pdfrwt beam="2">  1       21 0.78319208E-02 0.45612263E+03</pdfrwt>
<totfact> 0.37693067E+04</totfact>
</mgrwt>
</event>
<event>
 7    0  0.4775379E-002  0.4563861E+03  0.7546771E-02  0.1025835E+00
         21   -1    0    0  502  501  0.00000000000E+00  0.00000000000E+00  0.55400705081E+03  0.55400705081E+03  0.00000000000E+00 0. -1.
         21   -1    0    0  501  502 -0.00000000000E+00 -0.00000000000E+00 -0.93991711533E+02  0.93991711533E+02  0.00000000000E+00 0. -1.
      99926    2    1    2    0    0  0.00000000000E+00  0.00000000000E+00  0.46001533928E+03  0.64799876234E+03  0.45638611244E+03 0.  0.
      99925    2    3    3    0    0  0.15033971656E+02  0.60806402116E+02  0.15292134566E+03  0.31054110891E+03  0.26292090736E+03 0.  0.
         25    1    3    3    0    0 -0.15033971656E+02 -0.60806402116E+02  0.30709399362E+03  0.33745765343E+03  0.12509000000E+03 0.  0.
         25    1    4    4    0    0  0.16394330993E+02  0.11897271486E+02  0.34145562002E+02  0.13123927256E+03  0.12509000000E+03 0.  0.
         25    1    4    4    0    0 -0.13603593369E+01  0.48909130631E+02  0.11877578366E+03  0.17930183635E+03  0.12509000000E+03 0.  0.
<mgrwt>
<rscale>  2 0.45638611E+03</rscale>
<asrwt>0</asrwt>
<pdfrwt beam="1">  1       21 0.81471624E-01 0.45638611E+03</pdfrwt>
<pdfrwt beam="2">  1       21 0.13822311E-01 0.45638611E+03</pdfrwt>
<totfact> 0.55210671E+04</totfact>
</mgrwt>
</event>
<event>
 7    0  0.4775379E-002  0.4595900E+03  0.7546771E-02  0.1024900E+00
         21   -1    0    0  502  501  0.00000000000E+00  0.00000000000E+00  0.13250870120E+03  0.13250870120E+03  0.00000000000E+00 0.  1.
         21   -1    0    0  501  502 -0.00000000000E+00 -0.00000000000E+00 -0.39850769571E+03  0.39850769571E+03  0.00000000000E+00 0.  1.
      99926    2    1    2    0    0  0.00000000000E+00  0.00000000000E+00 -0.26599899451E+03  0.53101639690E+03  0.45958997889E+03 0.  0.
      99925    2    3    3    0    0  0.73068529900E+02 -0.91286256982E+02 -0.15429729209E+03  0.32657332610E+03  0.26300245664E+03 0.  0.
         25    1    4    4    0    0  0.65744943627E+02 -0.60550180904E+02 -0.53275783911E+02  0.16270998516E+03  0.12509000000E+03 0.  0.
         25    1    4    4    0    0  0.73235862724E+01 -0.30736076079E+02 -0.10102150818E+03  0.16386334094E+03  0.12509000000E+03 0.  0.
         25    1    3    3    0    0 -0.73068529900E+02  0.91286256982E+02 -0.11170170242E+03  0.20444307080E+03  0.12509000000E+03 0.  0.
<mgrwt>
<rscale>  2 0.45958998E+03</rscale>
<asrwt>0</asrwt>
<pdfrwt beam="1">  1       21 0.19486574E-01 0.45958998E+03</pdfrwt>
<pdfrwt beam="2">  1       21 0.58604073E-01 0.45958998E+03</pdfrwt>
<totfact> 0.60892063E+04</totfact>
</mgrwt>
</event>
<event>
 7    0  0.4775379E-002  0.4529306E+03  0.7546771E-02  0.1026852E+00
         21   -1    0    0  502  501  0.00000000000E+00  0.00000000000E+00  0.49781751990E+03  0.49781751990E+03  0.00000000000E+00 0. -1.
         21   -1    0    0  501  502 -0.00000000000E+00 -0.00000000000E+00 -0.10302274383E+03  0.10302274383E+03  0.00000000000E+00 0. -1.
      99926    2    1    2    0    0  0.00000000000E+00 -0.35527136788E-14  0.39479477607E+03  0.60084026373E+03  0.45293057670E+03 0.  0.
      99925    2    3    3    0    0 -0.10187161551E+03 -0.19572910775E+02  0.30221089807E+03  0.41381029969E+03  0.26295743446E+03 0.  0.
         25    1    3    3    0    0  0.10187161551E+03  0.19572910775E+02  0.92583877995E+02  0.18702996404E+03  0.12509000000E+03 0.  0.
         25    1    4    4    0    0 -0.24292018090E+02  0.15515270813E+02  0.10903852883E+03  0.16842723842E+03  0.12509000000E+03 0.  0.
         25    1    4    4    0    0 -0.77579597423E+02 -0.35088181588E+02  0.19317236924E+03  0.24538306128E+03  0.12509000000E+03 0.  0.
<mgrwt>
<rscale>  2 0.45293058E+03</rscale>
<asrwt>0</asrwt>
<pdfrwt beam="1">  1       21 0.73208458E-01 0.45293058E+03</pdfrwt>
<pdfrwt beam="2">  1       21 0.15150404E-01 0.45293058E+03</pdfrwt>
<totfact> 0.59595024E+04</totfact>
</mgrwt>
</event>
<event>
 7    0  0.4775379E-002  0.4197276E+03  0.7546771E-02  0.1037155E+00
         21   -1    0    0  502  501  0.00000000000E+00  0.00000000000E+00  0.74364743637E+02  0.74364743637E+02  0.00000000000E+00 0.  1.
         21   -1    0    0  501  502 -0.00000000000E+00 -0.00000000000E+00 -0.59225395020E+03  0.59225395020E+03  0.00000000000E+00 0.  1.
      99926    2    1    2    0    0  0.00000000000E+00  0.00000000000E+00 -0.51788920657E+03  0.66661869384E+03  0.41972759344E+03 0.  0.
      99925    2    3    3    0    0 -0.20980284173E+02 -0.21068909598E+02 -0.22730876914E+03  0.34886317463E+03  0.26296799579E+03 0.  0.
         25    1    3    3    0    0  0.20980284173E+02  0.21068909598E+02 -0.29058043742E+03  0.31775551921E+03  0.12509000000E+03 0.  0.
         25    1    4    4    0    0 -0.36904461978E+02 -0.25789328639E+02 -0.15189404218E+03  0.20185721918E+03  0.12509000000E+03 0.  0.
         25    1    4    4    0    0  0.15924177805E+02  0.47204190401E+01 -0.75414726966E+02  0.14700595545E+03  0.12509000000E+03 0.  0.
<mgrwt>
<rscale>  2 0.41972759E+03</rscale>
<asrwt>0</asrwt>
<pdfrwt beam="1">  1       21 0.10935992E-01 0.41972759E+03</pdfrwt>
<pdfrwt beam="2">  1       21 0.87096166E-01 0.41972759E+03</pdfrwt>
<totfact> 0.73025229E+04</totfact>
</mgrwt>
</event>
<event>
 7    0  0.4775379E-002  0.4552024E+03  0.7546771E-02  0.1026182E+00
         21   -1    0    0  502  501  0.00000000000E+00  0.00000000000E+00  0.28620481489E+02  0.28620481489E+02  0.00000000000E+00 0.  1.
         21   -1    0    0  501  502 -0.00000000000E+00 -0.00000000000E+00 -0.18099734753E+04  0.18099734753E+04  0.00000000000E+00 0.  1.
      99926    2    1    2    0    0  0.00000000000E+00  0.00000000000E+00 -0.17813529938E+04  0.18385939568E+04  0.45520242682E+03 0.  0.
      99925    2    3    3    0    0  0.61755356402E+02  0.88961484280E+02 -0.12454326160E+04  0.12777142645E+04  0.26405202342E+03 0.  0.
         25    1    4    4    0    0  0.14427948866E+02  0.18121554020E+02 -0.43285736645E+03  0.45116467527E+03  0.12509000000E+03 0.  0.
         25    1    4    4    0    0  0.47327407536E+02  0.70839930259E+02 -0.81257524951E+03  0.82654958921E+03  0.12509000000E+03 0.  0.
         25    1    3    3    0    0 -0.61755356402E+02 -0.88961484280E+02 -0.53592037787E+03  0.56087969231E+03  0.12509000000E+03 0.  0.
<mgrwt>
<rscale>  2 0.45520243E+03</rscale>
<asrwt>0</asrwt>
<pdfrwt beam="1">  1       21 0.42088933E-02 0.45520243E+03</pdfrwt>
<pdfrwt beam="2">  1       21 0.26617264E+00 0.45520243E+03</pdfrwt>
<totfact> 0.16503329E+04</totfact>
</mgrwt>
</event>
<event>
 7    0  0.4775379E-002  0.4570594E+03  0.7546771E-02  0.1025638E+00
         21   -1    0    0  502  501  0.00000000000E+00  0.00000000000E+00  0.35261678440E+02  0.35261678440E+02  0.00000000000E+00 0.  1.
         21   -1    0    0  501  502 -0.00000000000E+00 -0.00000000000E+00 -0.14810929520E+04  0.14810929520E+04  0.00000000000E+00 0.  1.
      99926    2    1    2    0    0  0.00000000000E+00 -0.13322676296E-14 -0.14458312736E+04  0.15163546305E+04  0.45705939839E+03 0.  0.
      99925    2    3    3    0    0 -0.38870337478E+02 -0.35412338965E+00 -0.54785198867E+03  0.60887166491E+03  0.26281528551E+03 0.  0.
         25    1    3    3    0    0  0.38870337478E+02  0.35412338965E+00 -0.89797928490E+03  0.90748296554E+03  0.12509000000E+03 0.  0.
         25    1    4    4    0    0 -0.21589109527E+02 -0.17076549792E+02 -0.35821295079E+03  0.38042308607E+03  0.12509000000E+03 0.  0.
         25    1    4    4    0    0 -0.17281227951E+02  0.16722426403E+02 -0.18963903788E+03  0.22844857884E+03  0.12509000000E+03 0.  0.
<mgrwt>
<rscale>  2 0.45705940E+03</rscale>
<asrwt>0</asrwt>
<pdfrwt beam="1">  1       21 0.51855417E-02 0.45705940E+03</pdfrwt>
<pdfrwt beam="2">  1       21 0.21780775E+00 0.45705940E+03</pdfrwt>
<totfact> 0.23010857E+04</totfact>
</mgrwt>
</event>
<event>
 7    0  0.4775379E-002  0.4532577E+03  0.7546771E-02  0.1026755E+00
         21   -1    0    0  502  501  0.00000000000E+00  0.00000000000E+00  0.15564304384E+03  0.15564304384E+03  0.00000000000E+00 0. -1.
         21   -1    0    0  501  502 -0.00000000000E+00 -0.00000000000E+00 -0.32998989571E+03  0.32998989571E+03  0.00000000000E+00 0. -1.
      99926    2    1    2    0    0  0.00000000000E+00  0.00000000000E+00 -0.17434685186E+03  0.48563293955E+03  0.45325768303E+03 0.  0.
      99925    2    3    3    0    0 -0.32881021421E+02 -0.46944384179E+02 -0.21245156878E+03  0.34285894218E+03  0.26292897972E+03 0.  0.
         25    1    4    4    0    0 -0.25689390531E+02 -0.28542897439E+02 -0.58009614880E+02  0.14313373222E+03  0.12509000000E+03 0.  0.
         25    1    3    3    0    0  0.32881021421E+02  0.46944384179E+02  0.38104716915E+02  0.14277399738E+03  0.12509000000E+03 0.  0.
         25    1    4    4    0    0 -0.71916308905E+01 -0.18401486741E+02 -0.15444195390E+03  0.19972520996E+03  0.12509000000E+03 0.  0.
<mgrwt>
<rscale>  2 0.45325768E+03</rscale>
<asrwt>0</asrwt>
<pdfrwt beam="1">  1       21 0.22888683E-01 0.45325768E+03</pdfrwt>
<pdfrwt beam="2">  1       21 0.48527925E-01 0.45325768E+03</pdfrwt>
<totfact> 0.67217207E+04</totfact>
</mgrwt>
</event>
<event>
 7    0  0.4775379E-002  0.4655005E+03  0.7546771E-02  0.1023198E+00
         21   -1    0    0  502  501  0.00000000000E+00  0.00000000000E+00  0.81648435856E+03  0.81648435856E+03  0.00000000000E+00 0. -1.
         21   -1    0    0  501  502 -0.00000000000E+00 -0.00000000000E+00 -0.66348694159E+02  0.66348694159E+02  0.00000000000E+00 0. -1.
      99926    2    1    2    0    0  0.44408920985E-15  0.00000000000E+00  0.75013566440E+03  0.88283305272E+03  0.46550046613E+03 0.  0.
      99925    2    3    3    0    0  0.27088561807E+01 -0.11837239969E+03  0.40885626932E+03  0.50055240121E+03  0.26338165177E+03 0.  0.
         25    1    3    3    0    0 -0.27088561807E+01  0.11837239969E+03  0.34127939508E+03  0.38228065150E+03  0.12509000000E+03 0.  0.
         25    1    4    4    0    0  0.25702685827E+02 -0.68599059974E+02  0.26585122453E+03  0.30280495500E+03  0.12509000000E+03 0.  0.
         25    1    4    4    0    0 -0.22993829646E+02 -0.49773339717E+02  0.14300504479E+03  0.19774744621E+03  0.12509000000E+03 0.  0.
<mgrwt>
<rscale>  2 0.46550047E+03</rscale>
<asrwt>0</asrwt>
<pdfrwt beam="1">  1       21 0.12007122E+00 0.46550047E+03</pdfrwt>
<pdfrwt beam="2">  1       21 0.97571614E-02 0.46550047E+03</pdfrwt>
<totfact> 0.40545709E+04</totfact>
</mgrwt>
</event>
<event>
 7    0  0.4775379E-002  0.4463854E+03  0.7546771E-02  0.1028805E+00
         21   -1    0    0  502  501  0.00000000000E+00  0.00000000000E+00  0.31001662426E+02  0.31001662426E+02  0.00000000000E+00 0.  1.
         21   -1    0    0  501  502 -0.00000000000E+00 -0.00000000000E+00 -0.16068485438E+04  0.16068485438E+04  0.00000000000E+00 0.  1.
      99926    2    1    2    0    0  0.00000000000E+00  0.00000000000E+00 -0.15758468814E+04  0.16378502063E+04  0.44638537667E+03 0.  0.
      99925    2    3    3    0    0 -0.60651370163E+02 -0.14163093955E+02 -0.69011090892E+03  0.74115912066E+03  0.26302964395E+03 0.  0.
         25    1    4    4    0    0  0.72742490386E+00 -0.11871360153E+02 -0.25502447607E+03  0.28429992936E+03  0.12509000000E+03 0.  0.
         25    1    4    4    0    0 -0.61378795067E+02 -0.22917338016E+01 -0.43508643285E+03  0.45685919131E+03  0.12509000000E+03 0.  0.
         25    1    3    3    0    0  0.60651370163E+02  0.14163093955E+02 -0.88573597249E+03  0.89669108560E+03  0.12509000000E+03 0.  0.
<mgrwt>
<rscale>  2 0.44638538E+03</rscale>
<asrwt>0</asrwt>
<pdfrwt beam="1">  1       21 0.45590686E-02 0.44638538E+03</pdfrwt>
<pdfrwt beam="2">  1       21 0.23630123E+00 0.44638538E+03</pdfrwt>
<totfact> 0.22024601E+04</totfact>
</mgrwt>
</event>
<event>
 7    0  0.4775379E-002  0.4515489E+03  0.7546771E-02  0.1027261E+00
         21   -1    0    0  502  501  0.00000000000E+00  0.00000000000E+00  0.47974914135E+03  0.47974914135E+03  0.00000000000E+00 0. -1.
         21   -1    0    0  501  502 -0.00000000000E+00 -0.00000000000E+00 -0.10625156939E+03  0.10625156939E+03  0.00000000000E+00 0. -1.
      99926    2    1    2    0    0  0.00000000000E+00  0.00000000000E+00  0.37349757196E+03  0.58600071073E+03  0.45154888630E+03 0.  0.
      99925    2    3    3    0    0  0.64752954391E+02 -0.55129219885E+02  0.32417819636E+03  0.42690298952E+03  0.26442859807E+03 0.  0.
         25    1    4    4    0    0 -0.57831815973E+01 -0.34701528366E+02  0.18339706688E+03  0.22476573026E+03  0.12509000000E+03 0.  0.
         25    1    3    3    0    0 -0.64752954391E+02  0.55129219885E+02  0.49319375600E+02  0.15909772122E+03  0.12509000000E+03 0.  0.
         25    1    4    4    0    0  0.70536135988E+02 -0.20427691519E+02  0.14078112948E+03  0.20213725925E+03  0.12509000000E+03 0.  0.
<mgrwt>
<rscale>  2 0.45154889E+03</rscale>
<asrwt>0</asrwt>
<pdfrwt beam="1">  1       21 0.70551343E-01 0.45154889E+03</pdfrwt>
<pdfrwt beam="2">  1       21 0.15625231E-01 0.45154889E+03</pdfrwt>
<totfact> 0.61200806E+04</totfact>
</mgrwt>
</event>
<event>
 7    0  0.4775379E-002  0.4565010E+03  0.7546771E-02  0.1025801E+00
         21   -1    0    0  502  501  0.00000000000E+00  0.00000000000E+00  0.11279261434E+03  0.11279261434E+03  0.00000000000E+00 0. -1.
         21   -1    0    0  501  502 -0.00000000000E+00 -0.00000000000E+00 -0.46189455653E+03  0.46189455653E+03  0.00000000000E+00 0. -1.
      99926    2    1    2    0    0  0.00000000000E+00  0.00000000000E+00 -0.34910194219E+03  0.57468717087E+03  0.45650101678E+03 0.  0.
      99925    2    3    3    0    0 -0.48113655576E+02  0.10400387646E+03 -0.22170158023E+03  0.36253135431E+03  0.26295562746E+03 0.  0.
         25    1    4    4    0    0 -0.29194713191E+02  0.90293890931E+02 -0.98145458440E+02  0.18516305552E+03  0.12509000000E+03 0.  0.
         25    1    4    4    0    0 -0.18918942385E+02  0.13709985528E+02 -0.12355612179E+03  0.17736829879E+03  0.12509000000E+03 0.  0.
         25    1    3    3    0    0  0.48113655576E+02 -0.10400387646E+03 -0.12740036196E+03  0.21215581656E+03  0.12509000000E+03 0.  0.
<mgrwt>
<rscale>  2 0.45650102E+03</rscale>
<asrwt>0</asrwt>
<pdfrwt beam="1">  1       21 0.16587149E-01 0.45650102E+03</pdfrwt>
<pdfrwt beam="2">  1       21 0.67925669E-01 0.45650102E+03</pdfrwt>
<totfact> 0.59554071E+04</totfact>
</mgrwt>
</event>
<event>
 7    0  0.4775379E-002  0.4921521E+03  0.7546771E-02  0.1015848E+00
         21   -1    0    0  502  501  0.00000000000E+00  0.00000000000E+00  0.34808717518E+03  0.34808717518E+03  0.00000000000E+00 0.  1.
         21   -1    0    0  501  502 -0.00000000000E+00 -0.00000000000E+00 -0.17396053868E+03  0.17396053868E+03  0.00000000000E+00 0.  1.
      99926    2    1    2    0    0  0.00000000000E+00  0.00000000000E+00  0.17412663649E+03  0.52204771386E+03  0.49215214112E+03 0.  0.
      99925    2    3    3    0    0 -0.54846911889E+02  0.10709398575E+03  0.20000100467E+02  0.28992748050E+03  0.26302211771E+03 0.  0.
         25    1    4    4    0    0  0.68512442053E+01  0.68137254250E+02  0.26125186576E+02  0.14498157965E+03  0.12509000000E+03 0.  0.
         25    1    3    3    0    0  0.54846911889E+02 -0.10709398575E+03  0.15412653603E+03  0.23212023336E+03  0.12509000000E+03 0.  0.
         25    1    4    4    0    0 -0.61698156094E+02  0.38956731499E+02 -0.61250861090E+01  0.14494590085E+03  0.12509000000E+03 0.  0.
<mgrwt>
<rscale>  2 0.49215214E+03</rscale>
<asrwt>0</asrwt>
<pdfrwt beam="1">  1       21 0.51189290E-01 0.49215214E+03</pdfrwt>
<pdfrwt beam="2">  1       21 0.25582432E-01 0.49215214E+03</pdfrwt>
<totfact> 0.47964724E+04</totfact>
</mgrwt>
</event>
<event>
 7    0  0.4775379E-002  0.4674321E+03  0.7546771E-02  0.1022647E+00
         21   -1    0    0  502  501  0.00000000000E+00  0.00000000000E+00  0.10316757104E+04  0.10316757104E+04  0.00000000000E+00 0. -1.
         21   -1    0    0  501  502 -0.00000000000E+00 -0.00000000000E+00 -0.52946091485E+02  0.52946091485E+02  0.00000000000E+00 0. -1.
      99926    2    1    2    0    0  0.00000000000E+00 -0.14210854715E-13  0.97872961896E+03  0.10846218019E+04  0.46743211934E+03 0.  0.
      99925    2    3    3    0    0  0.51967063288E+02  0.11304047557E+03  0.64444741054E+03  0.70663922594E+03  0.26181635913E+03 0.  0.
         25    1    3    3    0    0 -0.51967063288E+02 -0.11304047557E+03  0.33428220842E+03  0.37798257599E+03  0.12509000000E+03 0.  0.
         25    1    4    4    0    0 -0.10953281658E+02  0.54877370059E+02  0.27381447081E+03  0.30619172531E+03  0.12509000000E+03 0.  0.
         25    1    4    4    0    0  0.62920344946E+02  0.58163105509E+02  0.37063293972E+03  0.40044750063E+03  0.12509000000E+03 0.  0.
<mgrwt>
<rscale>  2 0.46743212E+03</rscale>
<asrwt>0</asrwt>
<pdfrwt beam="1">  1       21 0.15171700E+00 0.46743212E+03</pdfrwt>
<pdfrwt beam="2">  1       21 0.77861905E-02 0.46743212E+03</pdfrwt>
<totfact> 0.32739125E+04</totfact>
</mgrwt>
</event>
<event>
 7    0  0.4775379E-002  0.4608726E+03  0.7546771E-02  0.1024528E+00
         21   -1    0    0  502  501  0.00000000000E+00  0.00000000000E+00  0.21913079158E+03  0.21913079158E+03  0.00000000000E+00 0. -1.
         21   -1    0    0  501  502 -0.00000000000E+00 -0.00000000000E+00 -0.24232506825E+03  0.24232506825E+03  0.00000000000E+00 0. -1.
      99926    2    1    2    0    0 -0.14210854715E-13  0.00000000000E+00 -0.23194276668E+02  0.46145585984E+03  0.46087258121E+03 0.  0.
      99925    2    3    3    0    0 -0.81724764904E+02  0.19390888880E+02 -0.98117087650E+02  0.29318263120E+03  0.26319982633E+03 0.  0.
         25    1    3    3    0    0  0.81724764904E+02 -0.19390888880E+02  0.74922810983E+02  0.16827322864E+03  0.12509000000E+03 0.  0.
         25    1    4    4    0    0 -0.34162920449E+02  0.20937321615E+01 -0.90275755384E+02  0.15801490106E+03  0.12509000000E+03 0.  0.
         25    1    4    4    0    0 -0.47561844455E+02  0.17297156718E+02 -0.78413322660E+01  0.13516773014E+03  0.12509000000E+03 0.  0.
<mgrwt>
<rscale>  2 0.46087258E+03</rscale>
<asrwt>0</asrwt>
<pdfrwt beam="1">  1       21 0.32225116E-01 0.46087258E+03</pdfrwt>
<pdfrwt beam="2">  1       21 0.35636039E-01 0.46087258E+03</pdfrwt>
<totfact> 0.64977045E+04</totfact>
</mgrwt>
</event>
<event>
 7    0  0.4775379E-002  0.4652850E+03  0.7546771E-02  0.1023259E+00
         21   -1    0    0  502  501  0.00000000000E+00  0.00000000000E+00  0.48810178885E+02  0.48810178885E+02  0.00000000000E+00 0. -1.
         21   -1    0    0  501  502 -0.00000000000E+00 -0.00000000000E+00 -0.11088369818E+04  0.11088369818E+04  0.00000000000E+00 0. -1.
      99926    2    1    2    0    0  0.00000000000E+00 -0.35527136788E-14 -0.10600268029E+04  0.11576471606E+04  0.46528499410E+03 0.  0.
      99925    2    3    3    0    0  0.63673730990E+02  0.28968704943E+02 -0.41047610433E+03  0.49247263621E+03  0.26295462594E+03 0.  0.
         25    1    4    4    0    0  0.52981210795E+02 -0.62763894771E+01 -0.25953104741E+03  0.29300217479E+03  0.12509000000E+03 0.  0.
         25    1    3    3    0    0 -0.63673730990E+02 -0.28968704943E+02 -0.64955069853E+03  0.66517452443E+03  0.12509000000E+03 0.  0.
         25    1    4    4    0    0  0.10692520195E+02  0.35245094421E+02 -0.15094505693E+03  0.19947046142E+03  0.12509000000E+03 0.  0.
<mgrwt>
<rscale>  2 0.46528499E+03</rscale>
<asrwt>0</asrwt>
<pdfrwt beam="1">  1       21 0.71779670E-02 0.46528499E+03</pdfrwt>
<pdfrwt beam="2">  1       21 0.16306427E+00 0.46528499E+03</pdfrwt>
<totfact> 0.30970258E+04</totfact>
</mgrwt>
</event>
<event>
 7    0  0.4775379E-002  0.4576360E+03  0.7546771E-02  0.1025469E+00
         21   -1    0    0  502  501  0.00000000000E+00  0.00000000000E+00  0.76512096528E+02  0.76512096528E+02  0.00000000000E+00 0. -1.
         21   -1    0    0  501  502 -0.00000000000E+00 -0.00000000000E+00 -0.68430585141E+03  0.68430585141E+03  0.00000000000E+00 0. -1.
      99926    2    1    2    0    0  0.00000000000E+00  0.00000000000E+00 -0.60779375489E+03  0.76081794794E+03  0.45763599228E+03 0.  0.
      99925    2    3    3    0    0 -0.85579189915E+02  0.71377492154E+02 -0.33009422928E+03  0.43649853941E+03  0.26296431424E+03 0.  0.
         25    1    4    4    0    0 -0.32954838417E+02  0.74405440418E+02 -0.15835555400E+03  0.21759177494E+03  0.12509000000E+03 0.  0.
         25    1    3    3    0    0  0.85579189915E+02 -0.71377492154E+02 -0.27769952560E+03  0.32431940854E+03  0.12509000000E+03 0.  0.
         25    1    4    4    0    0 -0.52624351498E+02 -0.30279482636E+01 -0.17173867528E+03  0.21890676447E+03  0.12509000000E+03 0.  0.
<mgrwt>
<rscale>  2 0.45763599E+03</rscale>
<asrwt>0</asrwt>
<pdfrwt beam="1">  1       21 0.11251778E-01 0.45763599E+03</pdfrwt>
<pdfrwt beam="2">  1       21 0.10063322E+00 0.45763599E+03</pdfrwt>
<totfact> 0.48702207E+04</totfact>
</mgrwt>
</event>
<event>
 7    0  0.4775379E-002  0.4400090E+03  0.7546771E-02  0.1030744E+00
         21   -1    0    0  502  501  0.00000000000E+00  0.00000000000E+00  0.14927595092E+03  0.14927595092E+03  0.00000000000E+00 0.  1.
         21   -1    0    0  501  502 -0.00000000000E+00 -0.00000000000E+00 -0.32424498134E+03  0.32424498134E+03  0.00000000000E+00 0.  1.
      99926    2    1    2    0    0  0.00000000000E+00  0.00000000000E+00 -0.17496903042E+03  0.47352093226E+03  0.44000899046E+03 0.  0.
      99925    2    3    3    0    0 -0.72475523918E+02  0.21020294700E+02 -0.17983294015E+03  0.32735075721E+03  0.26291458219E+03 0.  0.
         25    1    4    4    0    0 -0.54953874643E+02  0.21269752925E+02 -0.52247338678E+02  0.14781618053E+03  0.12509000000E+03 0.  0.
         25    1    3    3    0    0  0.72475523918E+02 -0.21020294700E+02  0.48639097266E+01  0.14617017505E+03  0.12509000000E+03 0.  0.
         25    1    4    4    0    0 -0.17521649275E+02 -0.24945822524E+00 -0.12758560147E+03  0.17953457668E+03  0.12509000000E+03 0.  0.
<mgrwt>
<rscale>  2 0.44000899E+03</rscale>
<asrwt>0</asrwt>
<pdfrwt beam="1">  1       21 0.21952346E-01 0.44000899E+03</pdfrwt>
<pdfrwt beam="2">  1       21 0.47683085E-01 0.44000899E+03</pdfrwt>
<totfact> 0.75801106E+04</totfact>
</mgrwt>
</event>
<event>
 7    0  0.4775379E-002  0.4550421E+03  0.7546771E-02  0.1026229E+00
         21   -1    0    0  502  501  0.00000000000E+00  0.00000000000E+00  0.26224785520E+03  0.26224785520E+03  0.00000000000E+00 0. -1.
         21   -1    0    0  501  502 -0.00000000000E+00 -0.00000000000E+00 -0.19739272662E+03  0.19739272662E+03  0.00000000000E+00 0. -1.
      99926    2    1    2    0    0  0.00000000000E+00  0.00000000000E+00  0.64855128577E+02  0.45964058182E+03  0.45504206042E+03 0.  0.
      99925    2    3    3    0    0 -0.89645933769E+02 -0.62991876422E+02  0.12069169403E+02  0.28517501065E+03  0.26301093497E+03 0.  0.
         25    1    3    3    0    0  0.89645933769E+02  0.62991876422E+02  0.52785959174E+02  0.17446557117E+03  0.12509000000E+03 0.  0.
         25    1    4    4    0    0 -0.31978306540E+02 -0.31490917953E+02 -0.32869374208E+02  0.13690213243E+03  0.12509000000E+03 0.  0.
         25    1    4    4    0    0 -0.57667627229E+02 -0.31500958469E+02  0.44938543611E+02  0.14827287822E+03  0.12509000000E+03 0.  0.
<mgrwt>
<rscale>  2 0.45504206E+03</rscale>
<asrwt>0</asrwt>
<pdfrwt beam="1">  1       21 0.38565861E-01 0.45504206E+03</pdfrwt>
<pdfrwt beam="2">  1       21 0.29028342E-01 0.45504206E+03</pdfrwt>
<totfact> 0.68183904E+04</totfact>
</mgrwt>
</event>
<event>
 7    0  0.4775379E-002  0.4581189E+03  0.7546771E-02  0.1025328E+00
         21   -1    0    0  502  501  0.00000000000E+00  0.00000000000E+00  0.26688232433E+03  0.26688232433E+03  0.00000000000E+00 0. -1.
         21   -1    0    0  501  502 -0.00000000000E+00 -0.00000000000E+00 -0.19659687265E+03  0.19659687265E+03  0.00000000000E+00 0. -1.
      99926    2    1    2    0    0  0.14210854715E-13  0.00000000000E+00  0.70285451680E+02  0.46347919697E+03  0.45811889429E+03 0.  0.
      99925    2    3    3    0    0 -0.89302326984E+02 -0.74167500686E+02  0.46673630958E+02  0.29119817672E+03  0.26294909495E+03 0.  0.
         25    1    4    4    0    0 -0.85594301737E+02 -0.34165637079E+02  0.15332342935E+02  0.15612899822E+03  0.12509000000E+03 0.  0.
         25    1    3    3    0    0  0.89302326984E+02  0.74167500686E+02  0.23611820722E+02  0.17228102026E+03  0.12509000000E+03 0.  0.
         25    1    4    4    0    0 -0.37080252471E+01 -0.40001863607E+02  0.31341288023E+02  0.13506917849E+03  0.12509000000E+03 0.  0.
<mgrwt>
<rscale>  2 0.45811889E+03</rscale>
<asrwt>0</asrwt>
<pdfrwt beam="1">  1       21 0.39247401E-01 0.45811889E+03</pdfrwt>
<pdfrwt beam="2">  1       21 0.28911305E-01 0.45811889E+03</pdfrwt>
<totfact> 0.66264219E+04</totfact>
</mgrwt>
</event>
<event>
 7    0  0.4775379E-002  0.4530438E+03  0.7546771E-02  0.1026818E+00
         21   -1    0    0  502  501  0.00000000000E+00  0.00000000000E+00  0.32082565314E+03  0.32082565314E+03  0.00000000000E+00 0.  1.
         21   -1    0    0  501  502 -0.00000000000E+00 -0.00000000000E+00 -0.15993783920E+03  0.15993783920E+03  0.00000000000E+00 0.  1.
      99926    2    1    2    0    0 -0.35527136788E-14  0.00000000000E+00  0.16088781395E+03  0.48076349234E+03  0.45304375825E+03 0.  0.
      99925    2    3    3    0    0 -0.30382278629E+02  0.64915511947E+02  0.19238683399E+03  0.33319383791E+03  0.26242776755E+03 0.  0.
         25    1    3    3    0    0  0.30382278629E+02 -0.64915511947E+02 -0.31499020040E+02  0.14756965443E+03  0.12509000000E+03 0.  0.
         25    1    4    4    0    0 -0.16017179821E+02  0.15183104535E+02  0.49408811668E+02  0.13629312339E+03  0.12509000000E+03 0.  0.
         25    1    4    4    0    0 -0.14365098808E+02  0.49732407412E+02  0.14297802232E+03  0.19690071452E+03  0.12509000000E+03 0.  0.
<mgrwt>
<rscale>  2 0.45304376E+03</rscale>
<asrwt>0</asrwt>
<pdfrwt beam="1">  1       21 0.47180243E-01 0.45304376E+03</pdfrwt>
<pdfrwt beam="2">  1       21 0.23520270E-01 0.45304376E+03</pdfrwt>
<totfact> 0.67689585E+04</totfact>
</mgrwt>
</event>
<event>
 7    0  0.4775379E-002  0.4618930E+03  0.7546771E-02  0.1024234E+00
         21   -1    0    0  502  501  0.00000000000E+00  0.00000000000E+00  0.52536681628E+03  0.52536681628E+03  0.00000000000E+00 0.  1.
         21   -1    0    0  501  502 -0.00000000000E+00 -0.00000000000E+00 -0.10152200470E+03  0.10152200470E+03  0.00000000000E+00 0.  1.
      99926    2    1    2    0    0  0.00000000000E+00  0.00000000000E+00  0.42384481159E+03  0.62688882098E+03  0.46189302827E+03 0.  0.
      99925    2    3    3    0    0 -0.10152294038E+03  0.58289396198E+02  0.23203090264E+03  0.36970280873E+03  0.26293966204E+03 0.  0.
         25    1    3    3    0    0  0.10152294038E+03 -0.58289396198E+02  0.19181390894E+03  0.25718601225E+03  0.12509000000E+03 0.  0.
         25    1    4    4    0    0 -0.15243786189E+02  0.40738306190E+01  0.11149507423E+03  0.16830813644E+03  0.12509000000E+03 0.  0.
         25    1    4    4    0    0 -0.86279154188E+02  0.54215565579E+02  0.12053582842E+03  0.20139467230E+03  0.12509000000E+03 0.  0.
<mgrwt>
<rscale>  2 0.46189303E+03</rscale>
<asrwt>0</asrwt>
<pdfrwt beam="1">  1       21 0.77259825E-01 0.46189303E+03</pdfrwt>
<pdfrwt beam="2">  1       21 0.14929707E-01 0.46189303E+03</pdfrwt>
<totfact> 0.54050818E+04</totfact>
</mgrwt>
</event>
<event>
 7    0  0.4775379E-002  0.4821001E+03  0.7546771E-02  0.1018560E+00
         21   -1    0    0  502  501  0.00000000000E+00  0.00000000000E+00  0.11633369344E+04  0.11633369344E+04  0.00000000000E+00 0. -1.
         21   -1    0    0  501  502 -0.00000000000E+00 -0.00000000000E+00 -0.49946939907E+02  0.49946939907E+02  0.00000000000E+00 0. -1.
      99926    2    1    2    0    0  0.00000000000E+00  0.00000000000E+00  0.11133899945E+04  0.12132838743E+04  0.48210007241E+03 0.  0.
      99925    2    3    3    0    0 -0.73503304939E+02  0.10109255650E+03  0.54343835468E+03  0.61653030654E+03  0.26298656378E+03 0.  0.
         25    1    4    4    0    0 -0.36072953422E+02  0.83688680871E+02  0.34778691902E+03  0.38066823142E+03  0.12509000000E+03 0.  0.
         25    1    4    4    0    0 -0.37430351517E+02  0.17403875633E+02  0.19565143566E+03  0.23586207511E+03  0.12509000000E+03 0.  0.
         25    1    3    3    0    0  0.73503304939E+02 -0.10109255650E+03  0.56995163982E+03  0.59675356778E+03  0.12509000000E+03 0.  0.
<mgrwt>
<rscale>  2 0.48210007E+03</rscale>
<asrwt>0</asrwt>
<pdfrwt beam="1">  1       21 0.17107894E+00 0.48210007E+03</pdfrwt>
<pdfrwt beam="2">  1       21 0.73451390E-02 0.48210007E+03</pdfrwt>
<totfact> 0.25837444E+04</totfact>
</mgrwt>
</event>
<event>
 7    0  0.4775379E-002  0.4525370E+03  0.7546771E-02  0.1026968E+00
         21   -1    0    0  502  501  0.00000000000E+00  0.00000000000E+00  0.17032631125E+03  0.17032631125E+03  0.00000000000E+00 0.  1.
         21   -1    0    0  501  502 -0.00000000000E+00 -0.00000000000E+00 -0.30058442935E+03  0.30058442935E+03  0.00000000000E+00 0.  1.
      99926    2    1    2    0    0  0.00000000000E+00  0.35527136788E-14 -0.13025811810E+03  0.47091074061E+03  0.45253701317E+03 0.  0.
      99925    2    3    3    0    0  0.60631672892E+02 -0.28728542251E+02  0.97039391493E+01  0.27156577712E+03  0.26296820335E+03 0.  0.
         25    1    4    4    0    0  0.60914813764E+01  0.15031942405E+02 -0.11657537138E+02  0.12667466878E+03  0.12509000000E+03 0.  0.
         25    1    3    3    0    0 -0.60631672892E+02  0.28728542251E+02 -0.13996205725E+03  0.19934496349E+03  0.12509000000E+03 0.  0.
         25    1    4    4    0    0  0.54540191516E+02 -0.43760484655E+02  0.21361476287E+02  0.14489110834E+03  0.12509000000E+03 0.  0.
<mgrwt>
<rscale>  2 0.45253701E+03</rscale>
<asrwt>0</asrwt>
<pdfrwt beam="1">  1       21 0.25047987E-01 0.45253701E+03</pdfrwt>
<pdfrwt beam="2">  1       21 0.44203592E-01 0.45253701E+03</pdfrwt>
<totfact> 0.68700810E+04</totfact>
</mgrwt>
</event>
<event>
 7    0  0.4775379E-002  0.4544677E+03  0.7546771E-02  0.1026398E+00
         21   -1    0    0  502  501  0.00000000000E+00  0.00000000000E+00  0.38801476995E+03  0.38801476995E+03  0.00000000000E+00 0.  1.
         21   -1    0    0  501  502 -0.00000000000E+00 -0.00000000000E+00 -0.13307540018E+03  0.13307540018E+03  0.00000000000E+00 0.  1.
      99926    2    1    2    0    0  0.00000000000E+00  0.00000000000E+00  0.25493936977E+03  0.52109017013E+03  0.45446769208E+03 0.  0.
      99925    2    3    3    0    0  0.10002968635E+03 -0.41605536441E+02  0.12432739025E+03  0.31027281765E+03  0.26282116085E+03 0.  0.
         25    1    4    4    0    0  0.69984517369E+02 -0.36338436601E+02  0.30569124571E+02  0.15099766264E+03  0.12509000000E+03 0.  0.
         25    1    4    4    0    0  0.30045168977E+02 -0.52670998394E+01  0.93758265680E+02  0.15927515501E+03  0.12509000000E+03 0.  0.
         25    1    3    3    0    0 -0.10002968635E+03  0.41605536441E+02  0.13061197951E+03  0.21081735248E+03  0.12509000000E+03 0.  0.
<mgrwt>
<rscale>  2 0.45446769E+03</rscale>
<asrwt>0</asrwt>
<pdfrwt beam="1">  1       21 0.57060995E-01 0.45446769E+03</pdfrwt>
<pdfrwt beam="2">  1       21 0.19569912E-01 0.45446769E+03</pdfrwt>
<totfact> 0.64083237E+04</totfact>
</mgrwt>
</event>
<event>
 7    0  0.4775379E-002  0.4528171E+03  0.7546771E-02  0.1026885E+00
         21   -1    0    0  502  501  0.00000000000E+00  0.00000000000E+00  0.26745730135E+02  0.26745730135E+02  0.00000000000E+00 0.  1.
         21   -1    0    0  501  502 -0.00000000000E+00 -0.00000000000E+00 -0.19165985166E+04  0.19165985166E+04  0.00000000000E+00 0.  1.
      99926    2    1    2    0    0  0.00000000000E+00  0.00000000000E+00 -0.18898527864E+04  0.19433442467E+04  0.45281707875E+03 0.  0.
      99925    2    3    3    0    0 -0.10946686367E+03 -0.20586451706E+02 -0.11853129477E+04  0.12191683781E+04  0.26267461600E+03 0.  0.
         25    1    4    4    0    0 -0.74320142276E+02 -0.17148603607E+02 -0.47573458643E+03  0.49778355033E+03  0.12509000000E+03 0.  0.
         25    1    3    3    0    0  0.10946686367E+03  0.20586451706E+02 -0.70453983869E+03  0.72417586858E+03  0.12509000000E+03 0.  0.
         25    1    4    4    0    0 -0.35146721390E+02 -0.34378480986E+01 -0.70957836131E+03  0.72138482778E+03  0.12509000000E+03 0.  0.
<mgrwt>
<rscale>  2 0.45281708E+03</rscale>
<asrwt>0</asrwt>
<pdfrwt beam="1">  1       21 0.39331958E-02 0.45281708E+03</pdfrwt>
<pdfrwt beam="2">  1       21 0.28185271E+00 0.45281708E+03</pdfrwt>
<totfact> 0.14908042E+04</totfact>
</mgrwt>
</event>
<event>
 7    0  0.4775379E-002  0.4573262E+03  0.7546771E-02  0.1025560E+00
         21   -1    0    0  502  501  0.00000000000E+00  0.00000000000E+00  0.13512992974E+03  0.13512992974E+03  0.00000000000E+00 0.  1.
         21   -1    0    0  501  502 -0.00000000000E+00 -0.00000000000E+00 -0.38693729847E+03  0.38693729847E+03  0.00000000000E+00 0.  1.
      99926    2    1    2    0    0 -0.14210854715E-13  0.14210854715E-13 -0.25180736873E+03  0.52206722821E+03  0.45732618536E+03 0.  0.
      99925    2    3    3    0    0  0.81190012890E+02 -0.81415068241E+02 -0.15040928409E+03  0.32420537944E+03  0.26318423924E+03 0.  0.
         25    1    4    4    0    0  0.20146486368E+02 -0.42621511242E+02 -0.32160241303E+02  0.13749277564E+03  0.12509000000E+03 0.  0.
         25    1    3    3    0    0 -0.81190012890E+02  0.81415068241E+02 -0.10139808464E+03  0.19786184877E+03  0.12509000000E+03 0.  0.
         25    1    4    4    0    0  0.61043526521E+02 -0.38793557000E+02 -0.11824904279E+03  0.18671260380E+03  0.12509000000E+03 0.  0.
<mgrwt>
<rscale>  2 0.45732619E+03</rscale>
<asrwt>0</asrwt>
<pdfrwt beam="1">  1       21 0.19872048E-01 0.45732619E+03</pdfrwt>
<pdfrwt beam="2">  1       21 0.56902544E-01 0.45732619E+03</pdfrwt>
<totfact> 0.62583647E+04</totfact>
</mgrwt>
</event>
<event>
 7    0  0.4775379E-002  0.4537569E+03  0.7546771E-02  0.1026608E+00
         21   -1    0    0  502  501  0.00000000000E+00  0.00000000000E+00  0.16220226354E+03  0.16220226354E+03  0.00000000000E+00 0. -1.
         21   -1    0    0  501  502 -0.00000000000E+00 -0.00000000000E+00 -0.31734343902E+03  0.31734343902E+03  0.00000000000E+00 0. -1.
      99926    2    1    2    0    0  0.71054273576E-14  0.00000000000E+00 -0.15514117548E+03  0.47954570256E+03  0.45375686939E+03 0.  0.
      99925    2    3    3    0    0 -0.50778355830E+02  0.85954151615E+02 -0.15096825453E+03  0.31944736100E+03  0.26322736365E+03 0.  0.
         25    1    3    3    0    0  0.50778355830E+02 -0.85954151615E+02 -0.41729209484E+01  0.16009834156E+03  0.12509000000E+03 0.  0.
         25    1    4    4    0    0 -0.59386560166E+02  0.64165780006E+02 -0.99400463363E+02  0.18213174097E+03  0.12509000000E+03 0.  0.
         25    1    4    4    0    0  0.86082043358E+01  0.21788371610E+02 -0.51567791165E+02  0.13731562003E+03  0.12509000000E+03 0.  0.
<mgrwt>
<rscale>  2 0.45375687E+03</rscale>
<asrwt>0</asrwt>
<pdfrwt beam="1">  1       21 0.23853274E-01 0.45375687E+03</pdfrwt>
<pdfrwt beam="2">  1       21 0.46668153E-01 0.45375687E+03</pdfrwt>
<totfact> 0.67395748E+04</totfact>
</mgrwt>
</event>
<event>
 7    0  0.4775379E-002  0.4571332E+03  0.7546771E-02  0.1025616E+00
         21   -1    0    0  502  501  0.00000000000E+00  0.00000000000E+00  0.40842158309E+02  0.40842158309E+02  0.00000000000E+00 0.  1.
         21   -1    0    0  501  502 -0.00000000000E+00 -0.00000000000E+00 -0.12791365216E+04  0.12791365216E+04  0.00000000000E+00 0.  1.
      99926    2    1    2    0    0  0.00000000000E+00  0.71054273576E-14 -0.12382943633E+04  0.13199786799E+04  0.45713322484E+03 0.  0.
      99925    2    3    3    0    0  0.59793971353E+02 -0.36374497172E+02 -0.51344595989E+03  0.58109361505E+03  0.26295363217E+03 0.  0.
         25    1    3    3    0    0 -0.59793971353E+02  0.36374497172E+02 -0.72484840340E+03  0.73888506485E+03  0.12509000000E+03 0.  0.
         25    1    4    4    0    0  0.22125565897E+02 -0.17272466737E+00 -0.32508044686E+03  0.34901916213E+03  0.12509000000E+03 0.  0.
         25    1    4    4    0    0  0.37668405456E+02 -0.36201772504E+02 -0.18836551303E+03  0.23207445292E+03  0.12509000000E+03 0.  0.
<mgrwt>
<rscale>  2 0.45713322E+03</rscale>
<asrwt>0</asrwt>
<pdfrwt beam="1">  1       21 0.60062001E-02 0.45713322E+03</pdfrwt>
<pdfrwt beam="2">  1       21 0.18810830E+00 0.45713322E+03</pdfrwt>
<totfact> 0.28071418E+04</totfact>
</mgrwt>
</event>
<event>
 7    0  0.4775379E-002  0.4560680E+03  0.7546771E-02  0.1025928E+00
         21   -1    0    0  502  501  0.00000000000E+00  0.00000000000E+00  0.99511871607E+03  0.99511871607E+03  0.00000000000E+00 0. -1.
         21   -1    0    0  501  502 -0.00000000000E+00 -0.00000000000E+00 -0.52254567293E+02  0.52254567293E+02  0.00000000000E+00 0. -1.
      99926    2    1    2    0    0 -0.14210854715E-13  0.00000000000E+00  0.94286414877E+03  0.10473732834E+04  0.45606796824E+03 0.  0.
      99925    2    3    3    0    0  0.82655381324E+02 -0.62029123052E+02  0.70435232181E+03  0.75890331288E+03  0.26294965467E+03 0.  0.
         25    1    4    4    0    0  0.63110746797E+02 -0.60921278504E+02  0.32830531998E+03  0.36211360063E+03  0.12509000000E+03 0.  0.
         25    1    4    4    0    0  0.19544634527E+02 -0.11078445487E+01  0.37604700184E+03  0.39678971225E+03  0.12509000000E+03 0.  0.
         25    1    3    3    0    0 -0.82655381324E+02  0.62029123052E+02  0.23851182696E+03  0.28846997048E+03  0.12509000000E+03 0.  0.
<mgrwt>
<rscale>  2 0.45606797E+03</rscale>
<asrwt>0</asrwt>
<pdfrwt beam="1">  1       21 0.14634098E+00 0.45606797E+03</pdfrwt>
<pdfrwt beam="2">  1       21 0.76844958E-02 0.45606797E+03</pdfrwt>
<totfact> 0.37063989E+04</totfact>
</mgrwt>
</event>
<event>
 7    0  0.4775379E-002  0.4559648E+03  0.7546771E-02  0.1025958E+00
         21   -1    0    0  502  501  0.00000000000E+00  0.00000000000E+00  0.90825686210E+03  0.90825686210E+03  0.00000000000E+00 0. -1.
         21   -1    0    0  501  502 -0.00000000000E+00 -0.00000000000E+00 -0.57226073271E+02  0.57226073271E+02  0.00000000000E+00 0. -1.
      99926    2    1    2    0    0  0.00000000000E+00  0.14210854715E-13  0.85103078883E+03  0.96548293537E+03  0.45596479574E+03 0.  0.
      99925    2    3    3    0    0 -0.97023729348E+01 -0.99084770431E+02  0.65286977843E+03  0.71087103087E+03  0.26303373770E+03 0.  0.
         25    1    4    4    0    0 -0.21482171589E+01 -0.37833897810E+02  0.41526987196E+03  0.43535341198E+03  0.12509000000E+03 0.  0.
         25    1    3    3    0    0  0.97023729348E+01  0.99084770431E+02  0.19816101040E+03  0.25461190450E+03  0.12509000000E+03 0.  0.
         25    1    4    4    0    0 -0.75541557759E+01 -0.61250872621E+02  0.23759990647E+03  0.27551761889E+03  0.12509000000E+03 0.  0.
<mgrwt>
<rscale>  2 0.45596480E+03</rscale>
<asrwt>0</asrwt>
<pdfrwt beam="1">  1       21 0.13356718E+00 0.45596480E+03</pdfrwt>
<pdfrwt beam="2">  1       21 0.84155996E-02 0.45596480E+03</pdfrwt>
<totfact> 0.40215954E+04</totfact>
</mgrwt>
</event>
<event>
 7    0  0.4775379E-002  0.4515480E+03  0.7546771E-02  0.1027261E+00
         21   -1    0    0  502  501  0.00000000000E+00  0.00000000000E+00  0.39749372572E+03  0.39749372572E+03  0.00000000000E+00 0.  1.
         21   -1    0    0  501  502 -0.00000000000E+00 -0.00000000000E+00 -0.12823823684E+03  0.12823823684E+03  0.00000000000E+00 0.  1.
      99926    2    1    2    0    0 -0.71054273576E-14  0.71054273576E-14  0.26925548888E+03  0.52573196257E+03  0.45154797992E+03 0.  0.
      99925    2    3    3    0    0  0.41212954784E+02 -0.60880669832E+02  0.26509891845E+03  0.38057773845E+03  0.26297721353E+03 0.  0.
         25    1    4    4    0    0 -0.17247005317E+02 -0.36580059542E+02  0.10911844952E+03  0.17085053138E+03  0.12509000000E+03 0.  0.
         25    1    3    3    0    0 -0.41212954784E+02  0.60880669832E+02  0.41565704256E+01  0.14515422412E+03  0.12509000000E+03 0.  0.
         25    1    4    4    0    0  0.58459960101E+02 -0.24300610290E+02  0.15598046893E+03  0.20972720707E+03  0.12509000000E+03 0.  0.
<mgrwt>
<rscale>  2 0.45154798E+03</rscale>
<asrwt>0</asrwt>
<pdfrwt beam="1">  1       21 0.58454959E-01 0.45154798E+03</pdfrwt>
<pdfrwt beam="2">  1       21 0.18858564E-01 0.45154798E+03</pdfrwt>
<totfact> 0.65263974E+04</totfact>
</mgrwt>
</event>
<event>
 7    0  0.4775379E-002  0.4539174E+03  0.7546771E-02  0.1026560E+00
         21   -1    0    0  502  501  0.00000000000E+00  0.00000000000E+00  0.52930864254E+03  0.52930864254E+03  0.00000000000E+00 0.  1.
         21   -1    0    0  501  502 -0.00000000000E+00 -0.00000000000E+00 -0.97316109249E+02  0.97316109249E+02  0.00000000000E+00 0.  1.
      99926    2    1    2    0    0 -0.71054273576E-14  0.00000000000E+00  0.43199253329E+03  0.62662475179E+03  0.45391742722E+03 0.  0.
      99925    2    3    3    0    0 -0.51644470126E+02  0.86860096165E+02  0.33902172580E+03  0.44087517105E+03  0.26310332244E+03 0.  0.
         25    1    4    4    0    0 -0.24798930538E+02  0.79420448867E+02  0.14832476146E+03  0.21111688141E+03  0.12509000000E+03 0.  0.
         25    1    3    3    0    0  0.51644470126E+02 -0.86860096165E+02  0.92970807488E+02  0.18574958074E+03  0.12509000000E+03 0.  0.
         25    1    4    4    0    0 -0.26845539588E+02  0.74396472982E+01  0.19069696435E+03  0.22975828964E+03  0.12509000000E+03 0.  0.
<mgrwt>
<rscale>  2 0.45391743E+03</rscale>
<asrwt>0</asrwt>
<pdfrwt beam="1">  1       21 0.77839505E-01 0.45391743E+03</pdfrwt>
<pdfrwt beam="2">  1       21 0.14311193E-01 0.45391743E+03</pdfrwt>
<totfact> 0.57559024E+04</totfact>
</mgrwt>
</event>
<event>
 7    0  0.4775379E-002  0.4593187E+03  0.7546771E-02  0.1024979E+00
         21   -1    0    0  502  501  0.00000000000E+00  0.00000000000E+00  0.32193646905E+03  0.32193646905E+03  0.00000000000E+00 0. -1.
         21   -1    0    0  501  502 -0.00000000000E+00 -0.00000000000E+00 -0.16383172057E+03  0.16383172057E+03  0.00000000000E+00 0. -1.
      99926    2    1    2    0    0 -0.14210854715E-13  0.00000000000E+00  0.15810474848E+03  0.48576818962E+03  0.45931865034E+03 0.  0.
      99925    2    3    3    0    0 -0.11187107592E+03  0.34416772721E+02  0.88914024700E+02  0.30101290220E+03  0.26268500457E+03 0.  0.
         25    1    4    4    0    0 -0.66186788193E+02  0.17836166877E+02  0.49807557507E+01  0.14272748792E+03  0.12509000000E+03 0.  0.
         25    1    3    3    0    0  0.11187107592E+03 -0.34416772721E+02  0.69190723784E+02  0.18475528742E+03  0.12509000000E+03 0.  0.
         25    1    4    4    0    0 -0.45684287732E+02  0.16580605845E+02  0.83933268949E+02  0.15828541428E+03  0.12509000000E+03 0.  0.
<mgrwt>
<rscale>  2 0.45931865E+03</rscale>
<asrwt>0</asrwt>
<pdfrwt beam="1">  1       21 0.47343598E-01 0.45931865E+03</pdfrwt>
<pdfrwt beam="2">  1       21 0.24092900E-01 0.45931865E+03</pdfrwt>
<totfact> 0.64058195E+04</totfact>
</mgrwt>
</event>
<event>
 7    0  0.4775379E-002  0.4468045E+03  0.7546771E-02  0.1028679E+00
         21   -1    0    0  502  501  0.00000000000E+00  0.00000000000E+00  0.28143600442E+02  0.28143600442E+02  0.00000000000E+00 0.  1.
         21   -1    0    0  501  502 -0.00000000000E+00 -0.00000000000E+00 -0.17733542355E+04  0.17733542355E+04  0.00000000000E+00 0.  1.
      99926    2    1    2    0    0  0.00000000000E+00  0.00000000000E+00 -0.17452106350E+04  0.18014978359E+04  0.44680453465E+03 0.  0.
      99925    2    3    3    0    0  0.82734088458E+02 -0.64502237528E+02 -0.10561612715E+04  0.10933721398E+04  0.26264146017E+03 0.  0.
         25    1    3    3    0    0 -0.82734088458E+02  0.64502237528E+02 -0.68904936356E+03  0.70812569616E+03  0.12509000000E+03 0.  0.
         25    1    4    4    0    0  0.42436928855E+02 -0.14800658008E+02 -0.65406676257E+03  0.66743598225E+03  0.12509000000E+03 0.  0.
         25    1    4    4    0    0  0.40297159603E+02 -0.49701579520E+02 -0.40209450891E+03  0.42593615751E+03  0.12509000000E+03 0.  0.
<mgrwt>
<rscale>  2 0.44680453E+03</rscale>
<asrwt>0</asrwt>
<pdfrwt beam="1">  1       21 0.41387647E-02 0.44680453E+03</pdfrwt>
<pdfrwt beam="2">  1       21 0.26078739E+00 0.44680453E+03</pdfrwt>
<totfact> 0.18371826E+04</totfact>
</mgrwt>
</event>
<event>
 7    0  0.4775379E-002  0.4727730E+03  0.7546771E-02  0.1021140E+00
         21   -1    0    0  502  501  0.00000000000E+00  0.00000000000E+00  0.56481423529E+03  0.56481423529E+03  0.00000000000E+00 0. -1.
         21   -1    0    0  501  502 -0.00000000000E+00 -0.00000000000E+00 -0.98932654529E+02  0.98932654529E+02  0.00000000000E+00 0. -1.
      99926    2    1    2    0    0  0.71054273576E-14  0.00000000000E+00  0.46588158076E+03  0.66374688982E+03  0.47277297559E+03 0.  0.
      99925    2    3    3    0    0 -0.48251773988E+02 -0.93225294490E+02  0.39435325789E+03  0.48546902159E+03  0.26295720125E+03 0.  0.
         25    1    3    3    0    0  0.48251773988E+02  0.93225294490E+02  0.71528322865E+02  0.17827786822E+03  0.12509000000E+03 0.  0.
         25    1    4    4    0    0  0.15281572773E+02 -0.33540473686E+02  0.19221858960E+03  0.23227996928E+03  0.12509000000E+03 0.  0.
         25    1    4    4    0    0 -0.63533346761E+02 -0.59684820804E+02  0.20213466830E+03  0.25318905232E+03  0.12509000000E+03 0.  0.
<mgrwt>
<rscale>  2 0.47277298E+03</rscale>
<asrwt>0</asrwt>
<pdfrwt beam="1">  1       21 0.83060915E-01 0.47277298E+03</pdfrwt>
<pdfrwt beam="2">  1       21 0.14548920E-01 0.47277298E+03</pdfrwt>
<totfact> 0.47848429E+04</totfact>
</mgrwt>
</event>
<event>
 7    0  0.4775379E-002  0.4551993E+03  0.7546771E-02  0.1026183E+00
         21   -1    0    0  502  501  0.00000000000E+00  0.00000000000E+00  0.22512943244E+03  0.22512943244E+03  0.00000000000E+00 0.  1.
         21   -1    0    0  501  502 -0.00000000000E+00 -0.00000000000E+00 -0.23009699798E+03  0.23009699798E+03  0.00000000000E+00 0.  1.
      99926    2    1    2    0    0  0.00000000000E+00  0.00000000000E+00 -0.49675655374E+01  0.45522643041E+03  0.45519932583E+03 0.  0.
      99925    2    3    3    0    0 -0.40973540415E+02  0.93136131439E+02  0.46683292022E+02  0.28590871374E+03  0.26308039236E+03 0.  0.
         25    1    4    4    0    0 -0.45698008694E+02  0.25881011116E+02 -0.20479010129E+01  0.13568285350E+03  0.12509000000E+03 0.  0.
         25    1    4    4    0    0  0.47244682785E+01  0.67255120324E+02  0.48731193035E+02  0.15022586024E+03  0.12509000000E+03 0.  0.
         25    1    3    3    0    0  0.40973540415E+02 -0.93136131439E+02 -0.51650857559E+02  0.16931771668E+03  0.12509000000E+03 0.  0.
<mgrwt>
<rscale>  2 0.45519933E+03</rscale>
<asrwt>0</asrwt>
<pdfrwt beam="1">  1       21 0.33107270E-01 0.45519933E+03</pdfrwt>
<pdfrwt beam="2">  1       21 0.33837794E-01 0.45519933E+03</pdfrwt>
<totfact> 0.68420325E+04</totfact>
</mgrwt>
</event>
<event>
 7    0  0.4775379E-002  0.4520790E+03  0.7546771E-02  0.1027104E+00
         21   -1    0    0  502  501  0.00000000000E+00  0.00000000000E+00  0.38219186896E+02  0.38219186896E+02  0.00000000000E+00 0. -1.
         21   -1    0    0  501  502 -0.00000000000E+00 -0.00000000000E+00 -0.13368638446E+04  0.13368638446E+04  0.00000000000E+00 0. -1.
      99926    2    1    2    0    0  0.00000000000E+00  0.00000000000E+00 -0.12986446577E+04  0.13750830315E+04  0.45207897156E+03 0.  0.
      99925    2    3    3    0    0  0.28840865009E+02  0.91657915164E+02 -0.65466263384E+03  0.71206468781E+03  0.26309691479E+03 0.  0.
         25    1    4    4    0    0  0.13685314513E+02  0.11150833010E+02 -0.23914881688E+03  0.27046495822E+03  0.12509000000E+03 0.  0.
         25    1    3    3    0    0 -0.28840865009E+02 -0.91657915164E+02 -0.64398202390E+03  0.66301834373E+03  0.12509000000E+03 0.  0.
         25    1    4    4    0    0  0.15155550495E+02  0.80507082154E+02 -0.41551381696E+03  0.44159972959E+03  0.12509000000E+03 0.  0.
<mgrwt>
<rscale>  2 0.45207897E+03</rscale>
<asrwt>0</asrwt>
<pdfrwt beam="1">  1       21 0.56204693E-02 0.45207897E+03</pdfrwt>
<pdfrwt beam="2">  1       21 0.19659760E+00 0.45207897E+03</pdfrwt>
<totfact> 0.27625511E+04</totfact>
</mgrwt>
</event>
<event>
 7    0  0.4775379E-002  0.4550540E+03  0.7546771E-02  0.1026226E+00
         21   -1    0    0  502  501  0.00000000000E+00  0.00000000000E+00  0.14560982339E+04  0.14560982339E+04  0.00000000000E+00 0.  1.
         21   -1    0    0  501  502 -0.00000000000E+00 -0.00000000000E+00 -0.35552918418E+02  0.35552918418E+02  0.00000000000E+00 0.  1.
      99926    2    1    2    0    0  0.00000000000E+00  0.17763568394E-14  0.14205453155E+04  0.14916511523E+04  0.45505402632E+03 0.  0.
      99925    2    3    3    0    0 -0.74049808114E+02  0.96782491107E+01  0.11724982454E+04  0.12039848532E+04  0.26315460970E+03 0.  0.
         25    1    3    3    0    0  0.74049808114E+02 -0.96782491107E+01  0.24804707005E+03  0.28766629912E+03  0.12509000000E+03 0.  0.
         25    1    4    4    0    0 -0.62403941680E+00  0.24930674512E+02  0.52738587380E+03  0.54259127891E+03  0.12509000000E+03 0.  0.
         25    1    4    4    0    0 -0.73425768697E+02 -0.15252425401E+02  0.64511237160E+03  0.66139357427E+03  0.12509000000E+03 0.  0.
<mgrwt>
<rscale>  2 0.45505403E+03</rscale>
<asrwt>0</asrwt>
<pdfrwt beam="1">  1       21 0.21413205E+00 0.45505403E+03</pdfrwt>
<pdfrwt beam="2">  1       21 0.52283713E-02 0.45505403E+03</pdfrwt>
<totfact> 0.23974428E+04</totfact>
</mgrwt>
</event>
<event>
 7    0  0.4775379E-002  0.4547706E+03  0.7546771E-02  0.1026309E+00
         21   -1    0    0  502  501  0.00000000000E+00  0.00000000000E+00  0.34845838938E+03  0.34845838938E+03  0.00000000000E+00 0.  1.
         21   -1    0    0  501  502 -0.00000000000E+00 -0.00000000000E+00 -0.14837950552E+03  0.14837950552E+03  0.00000000000E+00 0.  1.
      99926    2    1    2    0    0 -0.88817841970E-15 -0.35527136788E-14  0.20007888386E+03  0.49683789491E+03  0.45477063895E+03 0.  0.
      99925    2    3    3    0    0 -0.60887684098E+00  0.23834383134E+02  0.53094728752E+01  0.26413404856E+03  0.26300219876E+03 0.  0.
         25    1    3    3    0    0  0.60887684098E+00 -0.23834383134E+02  0.19476941098E+03  0.23270384635E+03  0.12509000000E+03 0.  0.
         25    1    4    4    0    0  0.25183046185E+02  0.14440507057E+02  0.34114141378E+02  0.13286834386E+03  0.12509000000E+03 0.  0.
         25    1    4    4    0    0 -0.25791923026E+02  0.93938760765E+01 -0.28804668502E+02  0.13126570469E+03  0.12509000000E+03 0.  0.
<mgrwt>
<rscale>  2 0.45477064E+03</rscale>
<asrwt>0</asrwt>
<pdfrwt beam="1">  1       21 0.51243881E-01 0.45477064E+03</pdfrwt>
<pdfrwt beam="2">  1       21 0.21820516E-01 0.45477064E+03</pdfrwt>
<totfact> 0.65612764E+04</totfact>
</mgrwt>
</event>
<event>
 7    0  0.4775379E-002  0.4609661E+03  0.7546771E-02  0.1024501E+00
         21   -1    0    0  502  501  0.00000000000E+00  0.00000000000E+00  0.34253186581E+02  0.34253186581E+02  0.00000000000E+00 0.  1.
         21   -1    0    0  501  502 -0.00000000000E+00 -0.00000000000E+00 -0.15508758874E+04  0.15508758874E+04  0.00000000000E+00 0.  1.
      99926    2    1    2    0    0  0.00000000000E+00  0.00000000000E+00 -0.15166227008E+04  0.15851290740E+04  0.46096612082E+03 0.  0.
      99925    2    3    3    0    0  0.11746399344E+03 -0.16450053185E+02 -0.94334519469E+03  0.98649479403E+03  0.26306544489E+03 0.  0.
         25    1    3    3    0    0 -0.11746399344E+03  0.16450053185E+02 -0.57327750616E+03  0.59863427998E+03  0.12509000000E+03 0.  0.
         25    1    4    4    0    0  0.99657967517E+02 -0.24701258555E+02 -0.51525207012E+03  0.54006857576E+03  0.12509000000E+03 0.  0.
         25    1    4    4    0    0  0.17806025920E+02  0.82512053699E+01 -0.42809312458E+03  0.44642621827E+03  0.12509000000E+03 0.  0.
<mgrwt>
<rscale>  2 0.46096612E+03</rscale>
<asrwt>0</asrwt>
<pdfrwt beam="1">  1       21 0.50372335E-02 0.46096612E+03</pdfrwt>
<pdfrwt beam="2">  1       21 0.22806997E+00 0.46096612E+03</pdfrwt>
<totfact> 0.20787732E+04</totfact>
</mgrwt>
</event>
<event>
 7    0  0.4775379E-002  0.4573038E+03  0.7546771E-02  0.1025566E+00
         21   -1    0    0  502  501  0.00000000000E+00  0.00000000000E+00  0.11560756462E+03  0.11560756462E+03  0.00000000000E+00 0.  1.
         21   -1    0    0  501  502 -0.00000000000E+00 -0.00000000000E+00 -0.45223424870E+03  0.45223424870E+03  0.00000000000E+00 0.  1.
      99926    2    1    2    0    0  0.00000000000E+00  0.00000000000E+00 -0.33662668408E+03  0.56784181332E+03  0.45730383830E+03 0.  0.
      99925    2    3    3    0    0 -0.27783419690E+02 -0.92367125344E+02 -0.13308222464E+03  0.31019581719E+03  0.26307216165E+03 0.  0.
         25    1    3    3    0    0  0.27783419690E+02  0.92367125344E+02 -0.20354445943E+03  0.25764599613E+03  0.12509000000E+03 0.  0.
         25    1    4    4    0    0  0.22168526721E+02 -0.63536670159E+02 -0.75944444596E+02  0.16106960855E+03  0.12509000000E+03 0.  0.
         25    1    4    4    0    0 -0.49951946411E+02 -0.28830455185E+02 -0.57137780048E+02  0.14912620865E+03  0.12509000000E+03 0.  0.
<mgrwt>
<rscale>  2 0.45730384E+03</rscale>
<asrwt>0</asrwt>
<pdfrwt beam="1">  1       21 0.17001112E-01 0.45730384E+03</pdfrwt>
<pdfrwt beam="2">  1       21 0.66505037E-01 0.45730384E+03</pdfrwt>
<totfact> 0.59609184E+04</totfact>
</mgrwt>
</event>
<event>
 7    0  0.4775379E-002  0.4539846E+03  0.7546771E-02  0.1026540E+00
         21   -1    0    0  502  501  0.00000000000E+00  0.00000000000E+00  0.74993386731E+03  0.74993386731E+03  0.00000000000E+00 0. -1.
         21   -1    0    0  501  502 -0.00000000000E+00 -0.00000000000E+00 -0.68706735506E+02  0.68706735506E+02  0.00000000000E+00 0. -1.
      99926    2    1    2    0    0 -0.39968028887E-14 -0.14210854715E-13  0.68122713180E+03  0.81864060281E+03  0.45398461590E+03 0.  0.
      99925    2    3    3    0    0 -0.31507255423E+01  0.70162322303E+02  0.58681463820E+03  0.64690270487E+03  0.26305704974E+03 0.  0.
         25    1    4    4    0    0  0.34658070886E+02  0.47502848385E+02  0.26641001330E+03  0.30013248037E+03  0.12509000000E+03 0.  0.
         25    1    4    4    0    0 -0.37808796429E+02  0.22659473918E+02  0.32040462490E+03  0.34677022450E+03  0.12509000000E+03 0.  0.
         25    1    3    3    0    0  0.31507255423E+01 -0.70162322303E+02  0.94412493599E+02  0.17173789794E+03  0.12509000000E+03 0.  0.
<mgrwt>
<rscale>  2 0.45398462E+03</rscale>
<asrwt>0</asrwt>
<pdfrwt beam="1">  1       21 0.11028439E+00 0.45398462E+03</pdfrwt>
<pdfrwt beam="2">  1       21 0.10103932E-01 0.45398462E+03</pdfrwt>
<totfact> 0.47251727E+04</totfact>
</mgrwt>
</event>
<event>
 7    0  0.4775379E-002  0.4563412E+03  0.7546771E-02  0.1025848E+00
         21   -1    0    0  502  501  0.00000000000E+00  0.00000000000E+00  0.40778834218E+03  0.40778834218E+03  0.00000000000E+00 0.  1.
         21   -1    0    0  501  502 -0.00000000000E+00 -0.00000000000E+00 -0.12766871659E+03  0.12766871659E+03  0.00000000000E+00 0.  1.
      99926    2    1    2    0    0  0.00000000000E+00  0.17763568394E-14  0.28011962559E+03  0.53545705878E+03  0.45634116312E+03 0.  0.
      99925    2    3    3    0    0 -0.10507648194E+03 -0.15983960634E+02  0.22560548904E+03  0.36249505937E+03  0.26307466113E+03 0.  0.
         25    1    4    4    0    0 -0.81385165520E+02 -0.39218746872E+02  0.12455283774E+03  0.19829920011E+03  0.12509000000E+03 0.  0.
         25    1    4    4    0    0 -0.23691316421E+02  0.23234786238E+02  0.10105265130E+03  0.16419585927E+03  0.12509000000E+03 0.  0.
         25    1    3    3    0    0  0.10507648194E+03  0.15983960634E+02  0.54514136547E+02  0.17296199940E+03  0.12509000000E+03 0.  0.
<mgrwt>
<rscale>  2 0.45634116E+03</rscale>
<asrwt>0</asrwt>
<pdfrwt beam="1">  1       21 0.59968874E-01 0.45634116E+03</pdfrwt>
<pdfrwt beam="2">  1       21 0.18774811E-01 0.45634116E+03</pdfrwt>
<totfact> 0.62175056E+04</totfact>
</mgrwt>
</event>
<event>
 7    0  0.4775379E-002  0.4505694E+03  0.7546771E-02  0.1027552E+00
         21   -1    0    0  502  501  0.00000000000E+00  0.00000000000E+00  0.20656950690E+03  0.20656950690E+03  0.00000000000E+00 0. -1.
         21   -1    0    0  501  502 -0.00000000000E+00 -0.00000000000E+00 -0.24569550828E+03  0.24569550828E+03  0.00000000000E+00 0. -1.
      99926    2    1    2    0    0  0.00000000000E+00  0.00000000000E+00 -0.39126001384E+02  0.45226501517E+03  0.45056941748E+03 0.  0.
      99925    2    3    3    0    0 -0.93693683367E+02 -0.55448227907E+02 -0.24710030656E+02  0.28580679041E+03  0.26310059587E+03 0.  0.
         25    1    3    3    0    0  0.93693683367E+02  0.55448227907E+02 -0.14415970728E+02  0.16645822477E+03  0.12509000000E+03 0.  0.
         25    1    4    4    0    0 -0.70109548175E+02 -0.35501081348E+01 -0.35960244437E+02  0.14788035466E+03  0.12509000000E+03 0.  0.
         25    1    4    4    0    0 -0.23584135191E+02 -0.51898119773E+02  0.11250213781E+02  0.13792643575E+03  0.12509000000E+03 0.  0.
<mgrwt>
<rscale>  2 0.45056942E+03</rscale>
<asrwt>0</asrwt>
<pdfrwt beam="1">  1       21 0.30377869E-01 0.45056942E+03</pdfrwt>
<pdfrwt beam="2">  1       21 0.36131692E-01 0.45056942E+03</pdfrwt>
<totfact> 0.71231580E+04</totfact>
</mgrwt>
</event>
<event>
 7    0  0.4775379E-002  0.4596810E+03  0.7546771E-02  0.1024874E+00
         21   -1    0    0  502  501  0.00000000000E+00  0.00000000000E+00  0.20556750741E+03  0.20556750741E+03  0.00000000000E+00 0.  1.
         21   -1    0    0  501  502 -0.00000000000E+00 -0.00000000000E+00 -0.25697963217E+03  0.25697963217E+03  0.00000000000E+00 0.  1.
      99926    2    1    2    0    0  0.71054273576E-14 -0.71054273576E-14 -0.51412124756E+02  0.46254713958E+03  0.45968103045E+03 0.  0.
      99925    2    3    3    0    0 -0.58326923837E+02  0.59835738809E+02 -0.11536406401E+03  0.29908551008E+03  0.26298465619E+03 0.  0.
         25    1    4    4    0    0 -0.60625667130E+02  0.33272280464E+02 -0.89361742351E+02  0.16856911122E+03  0.12509000000E+03 0.  0.
         25    1    3    3    0    0  0.58326923837E+02 -0.59835738809E+02  0.63951939252E+02  0.16346162950E+03  0.12509000000E+03 0.  0.
         25    1    4    4    0    0  0.22987432933E+01  0.26563458345E+02 -0.26002321657E+02  0.13051639886E+03  0.12509000000E+03 0.  0.
<mgrwt>
<rscale>  2 0.45968103E+03</rscale>
<asrwt>0</asrwt>
<pdfrwt beam="1">  1       21 0.30230516E-01 0.45968103E+03</pdfrwt>
<pdfrwt beam="2">  1       21 0.37791122E-01 0.45968103E+03</pdfrwt>
<totfact> 0.65515103E+04</totfact>
</mgrwt>
</event>
<event>
 7    0  0.4775379E-002  0.4531434E+03  0.7546771E-02  0.1026789E+00
         21   -1    0    0  502  501  0.00000000000E+00  0.00000000000E+00  0.25374028677E+03  0.25374028677E+03  0.00000000000E+00 0.  1.
         21   -1    0    0  501  502 -0.00000000000E+00 -0.00000000000E+00 -0.20231212902E+03  0.20231212902E+03  0.00000000000E+00 0.  1.
      99926    2    1    2    0    0  0.00000000000E+00  0.00000000000E+00  0.51428157753E+02  0.45605241579E+03  0.45314341056E+03 0.  0.
      99925    2    3    3    0    0  0.84277325393E+02  0.65299809678E+02  0.64660500061E+02  0.29116052483E+03  0.26310974561E+03 0.  0.
         25    1    4    4    0    0  0.32310387785E+02  0.59449962067E+00  0.55951427072E+02  0.14079199153E+03  0.12509000000E+03 0.  0.
         25    1    3    3    0    0 -0.84277325393E+02 -0.65299809678E+02 -0.13232342309E+02  0.16489189095E+03  0.12509000000E+03 0.  0.
         25    1    4    4    0    0  0.51966937608E+02  0.64705310058E+02  0.87090729893E+01  0.15036853330E+03  0.12509000000E+03 0.  0.
<mgrwt>
<rscale>  2 0.45314341E+03</rscale>
<asrwt>0</asrwt>
<pdfrwt beam="1">  1       21 0.37314748E-01 0.45314341E+03</pdfrwt>
<pdfrwt beam="2">  1       21 0.29751784E-01 0.45314341E+03</pdfrwt>
<totfact> 0.69492367E+04</totfact>
</mgrwt>
</event>
<event>
 7    0  0.4775379E-002  0.4594031E+03  0.7546771E-02  0.1024954E+00
         21   -1    0    0  502  501  0.00000000000E+00  0.00000000000E+00  0.31936155672E+03  0.31936155672E+03  0.00000000000E+00 0. -1.
         21   -1    0    0  501  502 -0.00000000000E+00 -0.00000000000E+00 -0.16521336584E+03  0.16521336584E+03  0.00000000000E+00 0. -1.
      99926    2    1    2    0    0  0.00000000000E+00  0.00000000000E+00  0.15414819088E+03  0.48457492256E+03  0.45940308099E+03 0.  0.
      99925    2    3    3    0    0  0.76582241565E+02 -0.88736204567E+02  0.93944733185E+02  0.30288585260E+03  0.26301192575E+03 0.  0.
         25    1    4    4    0    0 -0.38790058663E+01 -0.42672402813E+02  0.44933146872E+02  0.13965126722E+03  0.12509000000E+03 0.  0.
         25    1    4    4    0    0  0.80461247432E+02 -0.46063801754E+02  0.49011586313E+02  0.16323458538E+03  0.12509000000E+03 0.  0.
         25    1    3    3    0    0 -0.76582241565E+02  0.88736204567E+02  0.60203457693E+02  0.18168906996E+03  0.12509000000E+03 0.  0.
<mgrwt>
<rscale>  2 0.45940308E+03</rscale>
<asrwt>0</asrwt>
<pdfrwt beam="1">  1       21 0.46964935E-01 0.45940308E+03</pdfrwt>
<pdfrwt beam="2">  1       21 0.24296083E-01 0.45940308E+03</pdfrwt>
<totfact> 0.64098769E+04</totfact>
</mgrwt>
</event>
<event>
 7    0  0.4775379E-002  0.4689297E+03  0.7546771E-02  0.1022223E+00
         21   -1    0    0  502  501  0.00000000000E+00  0.00000000000E+00  0.53272703058E+03  0.53272703058E+03  0.00000000000E+00 0.  1.
         21   -1    0    0  501  502 -0.00000000000E+00 -0.00000000000E+00 -0.10319313335E+03  0.10319313335E+03  0.00000000000E+00 0.  1.
      99926    2    1    2    0    0  0.00000000000E+00  0.00000000000E+00  0.42953389723E+03  0.63592016392E+03  0.46892972396E+03 0.  0.
      99925    2    3    3    0    0  0.10815272893E+03  0.21177804648E+02  0.34909829039E+03  0.45081774057E+03  0.26309980364E+03 0.  0.
         25    1    4    4    0    0  0.68909026478E+02 -0.26859434617E+02  0.18846107990E+03  0.23798102844E+03  0.12509000000E+03 0.  0.
         25    1    3    3    0    0 -0.10815272893E+03 -0.21177804648E+02  0.80435606836E+02  0.18510242335E+03  0.12509000000E+03 0.  0.
         25    1    4    4    0    0  0.39243702449E+02  0.48037239265E+02  0.16063721049E+03  0.21283671213E+03  0.12509000000E+03 0.  0.
<mgrwt>
<rscale>  2 0.46892972E+03</rscale>
<asrwt>0</asrwt>
<pdfrwt beam="1">  1       21 0.78342209E-01 0.46892972E+03</pdfrwt>
<pdfrwt beam="2">  1       21 0.15175461E-01 0.46892972E+03</pdfrwt>
<totfact> 0.50710008E+04</totfact>
</mgrwt>
</event>
<event>
 7    0  0.4775379E-002  0.4129751E+03  0.7546771E-02  0.1039377E+00
         21   -1    0    0  502  501  0.00000000000E+00  0.00000000000E+00  0.13384596716E+03  0.13384596716E+03  0.00000000000E+00 0.  1.
         21   -1    0    0  501  502 -0.00000000000E+00 -0.00000000000E+00 -0.31855358951E+03  0.31855358951E+03  0.00000000000E+00 0.  1.
      99926    2    1    2    0    0  0.00000000000E+00  0.35527136788E-14 -0.18470762234E+03  0.45239955667E+03  0.41297512410E+03 0.  0.
      99925    2    3    3    0    0  0.42350442818E+02 -0.90270608810E+01 -0.17669151404E+03  0.31978427125E+03  0.26299627596E+03 0.  0.
         25    1    3    3    0    0 -0.42350442818E+02  0.90270608810E+01 -0.80161083016E+01  0.13261528542E+03  0.12509000000E+03 0.  0.
         25    1    4    4    0    0  0.43293788786E+02 -0.38818172355E+02 -0.91105839038E+02  0.16531480472E+03  0.12509000000E+03 0.  0.
         25    1    4    4    0    0 -0.94334596790E+00  0.29791111474E+02 -0.85585675002E+02  0.15446946653E+03  0.12509000000E+03 0.  0.
<mgrwt>
<rscale>  2 0.41297512E+03</rscale>
<asrwt>0</asrwt>
<pdfrwt beam="1">  1       21 0.19683230E-01 0.41297512E+03</pdfrwt>
<pdfrwt beam="2">  1       21 0.46846116E-01 0.41297512E+03</pdfrwt>
<totfact> 0.97427580E+04</totfact>
</mgrwt>
</event>
<event>
 7    0  0.4775379E-002  0.4728993E+03  0.7546771E-02  0.1021105E+00
         21   -1    0    0  502  501  0.00000000000E+00  0.00000000000E+00  0.10025832633E+03  0.10025832633E+03  0.00000000000E+00 0. -1.
         21   -1    0    0  501  502 -0.00000000000E+00 -0.00000000000E+00 -0.55764394541E+03  0.55764394541E+03  0.00000000000E+00 0. -1.
      99926    2    1    2    0    0  0.00000000000E+00 -0.71054273576E-14 -0.45738561908E+03  0.65790227174E+03  0.47289934935E+03 0.  0.
      99925    2    3    3    0    0  0.11288010950E+03 -0.53547025422E+02 -0.23619130539E+03  0.37473512046E+03  0.26273727317E+03 0.  0.
         25    1    3    3    0    0 -0.11288010950E+03  0.53547025422E+02 -0.22119431369E+03  0.28316715128E+03  0.12509000000E+03 0.  0.
         25    1    4    4    0    0  0.38924424628E+02  0.89781881067E+01 -0.12564025931E+03  0.18173800250E+03  0.12509000000E+03 0.  0.
         25    1    4    4    0    0  0.73955684870E+02 -0.62525213528E+02 -0.11055104608E+03  0.19299711796E+03  0.12509000000E+03 0.  0.
<mgrwt>
<rscale>  2 0.47289935E+03</rscale>
<asrwt>0</asrwt>
<pdfrwt beam="1">  1       21 0.14743871E-01 0.47289935E+03</pdfrwt>
<pdfrwt beam="2">  1       21 0.82006463E-01 0.47289935E+03</pdfrwt>
<totfact> 0.48090241E+04</totfact>
</mgrwt>
</event>
<event>
 7    0  0.4775379E-002  0.4557330E+03  0.7546771E-02  0.1026026E+00
         21   -1    0    0  502  501  0.00000000000E+00  0.00000000000E+00  0.21216013717E+03  0.21216013717E+03  0.00000000000E+00 0.  1.
         21   -1    0    0  501  502 -0.00000000000E+00 -0.00000000000E+00 -0.24473556750E+03  0.24473556750E+03  0.00000000000E+00 0.  1.
      99926    2    1    2    0    0  0.00000000000E+00  0.00000000000E+00 -0.32575430329E+02  0.45689570467E+03  0.45573295502E+03 0.  0.
      99925    2    3    3    0    0  0.39958137973E+02 -0.10571778375E+03 -0.34406835139E+02  0.28830221507E+03  0.26298561619E+03 0.  0.
         25    1    4    4    0    0  0.40025007257E+02 -0.40609334457E+02  0.16316838716E+02  0.13843722973E+03  0.12509000000E+03 0.  0.
         25    1    3    3    0    0 -0.39958137973E+02  0.10571778375E+03  0.18314048106E+01  0.16859348960E+03  0.12509000000E+03 0.  0.
         25    1    4    4    0    0 -0.66869284079E-01 -0.65108449294E+02 -0.50723673856E+02  0.14986498534E+03  0.12509000000E+03 0.  0.
<mgrwt>
<rscale>  2 0.45573296E+03</rscale>
<asrwt>0</asrwt>
<pdfrwt beam="1">  1       21 0.31200020E-01 0.45573296E+03</pdfrwt>
<pdfrwt beam="2">  1       21 0.35990524E-01 0.45573296E+03</pdfrwt>
<totfact> 0.68008584E+04</totfact>
</mgrwt>
</event>
<event>
 7    0  0.4775379E-002  0.4620771E+03  0.7546771E-02  0.1024181E+00
         21   -1    0    0  502  501  0.00000000000E+00  0.00000000000E+00  0.12462743269E+03  0.12462743269E+03  0.00000000000E+00 0. -1.
         21   -1    0    0  501  502 -0.00000000000E+00 -0.00000000000E+00 -0.42830710845E+03  0.42830710845E+03  0.00000000000E+00 0. -1.
      99926    2    1    2    0    0  0.00000000000E+00  0.00000000000E+00 -0.30367967576E+03  0.55293454115E+03  0.46207711621E+03 0.  0.
      99925    2    3    3    0    0 -0.45890183923E+02 -0.86253513912E+02 -0.10714202419E+03  0.30030806940E+03  0.26298278567E+03 0.  0.
         25    1    4    4    0    0 -0.62504676651E+02 -0.34053658315E+02 -0.58143296088E+02  0.15522447368E+03  0.12509000000E+03 0.  0.
         25    1    3    3    0    0  0.45890183923E+02  0.86253513912E+02 -0.19653765157E+03  0.25262647174E+03  0.12509000000E+03 0.  0.
         25    1    4    4    0    0  0.16614492728E+02 -0.52199855597E+02 -0.48998728104E+02  0.14508359573E+03  0.12509000000E+03 0.  0.
<mgrwt>
<rscale>  2 0.46207712E+03</rscale>
<asrwt>0</asrwt>
<pdfrwt beam="1">  1       21 0.18327564E-01 0.46207712E+03</pdfrwt>
<pdfrwt beam="2">  1       21 0.62986339E-01 0.46207712E+03</pdfrwt>
<totfact> 0.58337419E+04</totfact>
</mgrwt>
</event>
<event>
 7    0  0.4775379E-002  0.4023597E+03  0.7546771E-02  0.1042966E+00
         21   -1    0    0  502  501  0.00000000000E+00  0.00000000000E+00  0.13385209379E+04  0.13385209379E+04  0.00000000000E+00 0.  1.
         21   -1    0    0  501  502 -0.00000000000E+00 -0.00000000000E+00 -0.30237361015E+02  0.30237361015E+02  0.00000000000E+00 0.  1.
      99926    2    1    2    0    0  0.00000000000E+00  0.00000000000E+00  0.13082835769E+04  0.13687582990E+04  0.40235974365E+03 0.  0.
      99925    2    3    3    0    0 -0.25807502499E+02 -0.38554078828E+02  0.80762190561E+03  0.85062505219E+03  0.26297793218E+03 0.  0.
         25    1    4    4    0    0 -0.21220032886E+02  0.14733788718E+02  0.32512191698E+03  0.34931238645E+03  0.12509000000E+03 0.  0.
         25    1    3    3    0    0  0.25807502499E+02  0.38554078828E+02  0.50066167131E+03  0.51813324676E+03  0.12509000000E+03 0.  0.
         25    1    4    4    0    0 -0.45874696125E+01 -0.53287867547E+02  0.48249998864E+03  0.50131266575E+03  0.12509000000E+03 0.  0.
<mgrwt>
<rscale>  2 0.40235974E+03</rscale>
<asrwt>0</asrwt>
<pdfrwt beam="1">  1       21 0.19684127E+00 0.40235974E+03</pdfrwt>
<pdfrwt beam="2">  1       21 0.44466716E-02 0.40235974E+03</pdfrwt>
<totfact> 0.41864082E+04</totfact>
</mgrwt>
</event>
<event>
 7    0  0.4775379E-002  0.4597144E+03  0.7546771E-02  0.1024864E+00
         21   -1    0    0  502  501  0.00000000000E+00  0.00000000000E+00  0.36734106762E+03  0.36734106762E+03  0.00000000000E+00 0. -1.
         21   -1    0    0  501  502 -0.00000000000E+00 -0.00000000000E+00 -0.14382910976E+03  0.14382910976E+03  0.00000000000E+00 0. -1.
      99926    2    1    2    0    0 -0.71054273576E-14  0.14210854715E-13  0.22351195786E+03  0.51117017738E+03  0.45971442759E+03 0.  0.
      99925    2    3    3    0    0  0.56281574044E+02  0.95245189886E+02  0.18509409475E+03  0.33981469285E+03  0.26263080510E+03 0.  0.
         25    1    4    4    0    0 -0.10853721880E+02  0.43939612216E+02  0.10094854148E+03  0.16699284095E+03  0.12509000000E+03 0.  0.
         25    1    4    4    0    0  0.67135295925E+02  0.51305577670E+02  0.84145553274E+02  0.17282185190E+03  0.12509000000E+03 0.  0.
         25    1    3    3    0    0 -0.56281574044E+02 -0.95245189886E+02  0.38417863109E+02  0.17135548453E+03  0.12509000000E+03 0.  0.
<mgrwt>
<rscale>  2 0.45971443E+03</rscale>
<asrwt>0</asrwt>
<pdfrwt beam="1">  1       21 0.54020745E-01 0.45971443E+03</pdfrwt>
<pdfrwt beam="2">  1       21 0.21151340E-01 0.45971443E+03</pdfrwt>
<totfact> 0.62135195E+04</totfact>
</mgrwt>
</event>
<event>
 7    0  0.4775379E-002  0.4541067E+03  0.7546771E-02  0.1026504E+00
         21   -1    0    0  502  501  0.00000000000E+00  0.00000000000E+00  0.97260495891E+02  0.97260495891E+02  0.00000000000E+00 0.  1.
         21   -1    0    0  501  502 -0.00000000000E+00 -0.00000000000E+00 -0.53005300585E+03  0.53005300585E+03  0.00000000000E+00 0.  1.
      99926    2    1    2    0    0  0.00000000000E+00 -0.14210854715E-13 -0.43279250996E+03  0.62731350174E+03  0.45410667556E+03 0.  0.
      99925    2    3    3    0    0 -0.37003425751E+02  0.10072009908E+03 -0.31952919405E+03  0.42733880658E+03  0.26268947044E+03 0.  0.
         25    1    3    3    0    0  0.37003425751E+02 -0.10072009908E+03 -0.11326331591E+03  0.19997469517E+03  0.12509000000E+03 0.  0.
         25    1    4    4    0    0  0.10302416684E+02  0.48331481707E+02 -0.11239071820E+03  0.17527479440E+03  0.12509000000E+03 0.  0.
         25    1    4    4    0    0 -0.47305842435E+02  0.52388617372E+02 -0.20713847585E+03  0.25206401218E+03  0.12509000000E+03 0.  0.
<mgrwt>
<rscale>  2 0.45410668E+03</rscale>
<asrwt>0</asrwt>
<pdfrwt beam="1">  1       21 0.14303014E-01 0.45410668E+03</pdfrwt>
<pdfrwt beam="2">  1       21 0.77948972E-01 0.45410668E+03</pdfrwt>
<totfact> 0.57431741E+04</totfact>
</mgrwt>
</event>
<event>
 7    0  0.4775379E-002  0.4558678E+03  0.7546771E-02  0.1025987E+00
         21   -1    0    0  502  501  0.00000000000E+00  0.00000000000E+00  0.61821552909E+03  0.61821552909E+03  0.00000000000E+00 0.  1.
         21   -1    0    0  501  502 -0.00000000000E+00 -0.00000000000E+00 -0.84038448084E+02  0.84038448084E+02  0.00000000000E+00 0.  1.
      99926    2    1    2    0    0  0.00000000000E+00  0.14210854715E-13  0.53417708101E+03  0.70225397718E+03  0.45586784772E+03 0.  0.
      99925    2    3    3    0    0  0.90749614499E+02 -0.67727869820E+02  0.31821913920E+03  0.42819577604E+03  0.26318367195E+03 0.  0.
         25    1    4    4    0    0  0.88665779449E+01 -0.37445772595E+02  0.11592583631E+03  0.17483452094E+03  0.12509000000E+03 0.  0.
         25    1    4    4    0    0  0.81883036554E+02 -0.30282097226E+02  0.20229330289E+03  0.25336125509E+03  0.12509000000E+03 0.  0.
         25    1    3    3    0    0 -0.90749614499E+02  0.67727869820E+02  0.21595794181E+03  0.27405820114E+03  0.12509000000E+03 0.  0.
<mgrwt>
<rscale>  2 0.45586785E+03</rscale>
<asrwt>0</asrwt>
<pdfrwt beam="1">  1       21 0.90914046E-01 0.45586785E+03</pdfrwt>
<pdfrwt beam="2">  1       21 0.12358596E-01 0.45586785E+03</pdfrwt>
<totfact> 0.52421821E+04</totfact>
</mgrwt>
</event>
<event>
 7    0  0.4775379E-002  0.4576615E+03  0.7546771E-02  0.1025462E+00
         21   -1    0    0  502  501  0.00000000000E+00  0.00000000000E+00  0.12453877695E+04  0.12453877695E+04  0.00000000000E+00 0. -1.
         21   -1    0    0  501  502 -0.00000000000E+00 -0.00000000000E+00 -0.42045947787E+02  0.42045947787E+02  0.00000000000E+00 0. -1.
      99926    2    1    2    0    0  0.25535129566E-14 -0.35527136788E-14  0.12033418217E+04  0.12874337173E+04  0.45766148683E+03 0.  0.
      99925    2    3    3    0    0  0.26870487732E+00  0.30188727662E+02  0.43887293714E+03  0.51221012693E+03  0.26237059227E+03 0.  0.
         25    1    4    4    0    0  0.20808856888E+02 -0.18392714350E+02  0.20289464996E+03  0.23996884704E+03  0.12509000000E+03 0.  0.
         25    1    3    3    0    0 -0.26870487732E+00 -0.30188727662E+02  0.76446888460E+03  0.77522359039E+03  0.12509000000E+03 0.  0.
         25    1    4    4    0    0 -0.20540152011E+02  0.48581442012E+02  0.23597828719E+03  0.27224127989E+03  0.12509000000E+03 0.  0.
<mgrwt>
<rscale>  2 0.45766149E+03</rscale>
<asrwt>0</asrwt>
<pdfrwt beam="1">  1       21 0.18314524E+00 0.45766149E+03</pdfrwt>
<pdfrwt beam="2">  1       21 0.61832284E-02 0.45766149E+03</pdfrwt>
<totfact> 0.28879241E+04</totfact>
</mgrwt>
</event>
<event>
 7    0  0.4775379E-002  0.4501785E+03  0.7546771E-02  0.1027669E+00
         21   -1    0    0  502  501  0.00000000000E+00  0.00000000000E+00  0.42080202679E+03  0.42080202679E+03  0.00000000000E+00 0. -1.
         21   -1    0    0  501  502 -0.00000000000E+00 -0.00000000000E+00 -0.12040145612E+03  0.12040145612E+03  0.00000000000E+00 0. -1.
      99926    2    1    2    0    0  0.00000000000E+00  0.00000000000E+00  0.30040057067E+03  0.54120348291E+03  0.45017852798E+03 0.  0.
      99925    2    3    3    0    0 -0.62994581009E+02  0.72795846583E+02  0.12968480022E+03  0.30869770901E+03  0.26307522807E+03 0.  0.
         25    1    4    4    0    0 -0.67390980858E+02  0.56754351912E+02  0.83612235561E+02  0.17435915461E+03  0.12509000000E+03 0.  0.
         25    1    4    4    0    0  0.43963998490E+01  0.16041494671E+02  0.46072564659E+02  0.13433855440E+03  0.12509000000E+03 0.  0.
         25    1    3    3    0    0  0.62994581009E+02 -0.72795846583E+02  0.17071577045E+03  0.23250577390E+03  0.12509000000E+03 0.  0.
<mgrwt>
<rscale>  2 0.45017853E+03</rscale>
<asrwt>0</asrwt>
<pdfrwt beam="1">  1       21 0.61882651E-01 0.45017853E+03</pdfrwt>
<pdfrwt beam="2">  1       21 0.17706097E-01 0.45017853E+03</pdfrwt>
<totfact> 0.64892326E+04</totfact>
</mgrwt>
</event>
<event>
 7    0  0.4775379E-002  0.4570603E+03  0.7546771E-02  0.1025637E+00
         21   -1    0    0  502  501  0.00000000000E+00  0.00000000000E+00  0.34329422178E+02  0.34329422178E+02  0.00000000000E+00 0. -1.
         21   -1    0    0  501  502 -0.00000000000E+00 -0.00000000000E+00 -0.15213201216E+04  0.15213201216E+04  0.00000000000E+00 0. -1.
      99926    2    1    2    0    0  0.00000000000E+00  0.00000000000E+00 -0.14869906994E+04  0.15556495437E+04  0.45706034928E+03 0.  0.
      99925    2    3    3    0    0 -0.78052340802E+02  0.45503070396E+02 -0.11766112583E+04  0.12090292863E+04  0.26301152951E+03 0.  0.
         25    1    3    3    0    0  0.78052340802E+02 -0.45503070396E+02 -0.31037944110E+03  0.34662025745E+03  0.12509000000E+03 0.  0.
         25    1    4    4    0    0 -0.12240242203E+02  0.53162754048E+02 -0.56353647463E+03  0.57982494624E+03  0.12509000000E+03 0.  0.
         25    1    4    4    0    0 -0.65812098599E+02 -0.76596836518E+01 -0.61307478367E+03  0.62920434006E+03  0.12509000000E+03 0.  0.
<mgrwt>
<rscale>  2 0.45706035E+03</rscale>
<asrwt>0</asrwt>
<pdfrwt beam="1">  1       21 0.50484442E-02 0.45706035E+03</pdfrwt>
<pdfrwt beam="2">  1       21 0.22372356E+00 0.45706035E+03</pdfrwt>
<totfact> 0.22092014E+04</totfact>
</mgrwt>
</event>
<event>
 7    0  0.4775379E-002  0.4553291E+03  0.7546771E-02  0.1026145E+00
         21   -1    0    0  502  501  0.00000000000E+00  0.00000000000E+00  0.14739559556E+03  0.14739559556E+03  0.00000000000E+00 0. -1.
         21   -1    0    0  501  502 -0.00000000000E+00 -0.00000000000E+00 -0.35164648246E+03  0.35164648246E+03  0.00000000000E+00 0. -1.
      99926    2    1    2    0    0  0.71054273576E-14  0.00000000000E+00 -0.20425088690E+03  0.49904207802E+03  0.45532907971E+03 0.  0.
      99925    2    3    3    0    0  0.40878032748E+02  0.92402756877E+02 -0.72018845036E+02  0.29085441259E+03  0.26305948423E+03 0.  0.
         25    1    3    3    0    0 -0.40878032748E+02 -0.92402756877E+02 -0.13223204186E+03  0.20818766543E+03  0.12509000000E+03 0.  0.
         25    1    4    4    0    0  0.32632659295E+01  0.84263472703E+02 -0.41592711274E+02  0.15648783808E+03  0.12509000000E+03 0.  0.
         25    1    4    4    0    0  0.37614766818E+02  0.81392841748E+01 -0.30426133762E+02  0.13436657451E+03  0.12509000000E+03 0.  0.
<mgrwt>
<rscale>  2 0.45532908E+03</rscale>
<asrwt>0</asrwt>
<pdfrwt beam="1">  1       21 0.21675823E-01 0.45532908E+03</pdfrwt>
<pdfrwt beam="2">  1       21 0.51712718E-01 0.45532908E+03</pdfrwt>
<totfact> 0.65167606E+04</totfact>
</mgrwt>
</event>
<event>
 7    0  0.4775379E-002  0.4519040E+03  0.7546771E-02  0.1027156E+00
         21   -1    0    0  502  501  0.00000000000E+00  0.00000000000E+00  0.11166633391E+03  0.11166633391E+03  0.00000000000E+00 0.  1.
         21   -1    0    0  501  502 -0.00000000000E+00 -0.00000000000E+00 -0.45720404914E+03  0.45720404914E+03  0.00000000000E+00 0.  1.
      99926    2    1    2    0    0  0.00000000000E+00  0.00000000000E+00 -0.34553771523E+03  0.56887038306E+03  0.45190397218E+03 0.  0.
      99925    2    3    3    0    0 -0.90284669136E+02 -0.47722255092E+02 -0.16562388216E+03  0.32711589904E+03  0.26295399968E+03 0.  0.
         25    1    4    4    0    0 -0.17887197849E+02 -0.19311276724E+02 -0.11326633819E+03  0.17079124311E+03  0.12509000000E+03 0.  0.
         25    1    4    4    0    0 -0.72397471287E+02 -0.28410978369E+02 -0.52357543966E+02  0.15632465593E+03  0.12509000000E+03 0.  0.
         25    1    3    3    0    0  0.90284669136E+02  0.47722255092E+02 -0.17991383307E+03  0.24175448402E+03  0.12509000000E+03 0.  0.
<mgrwt>
<rscale>  2 0.45190397E+03</rscale>
<asrwt>0</asrwt>
<pdfrwt beam="1">  1       21 0.16421520E-01 0.45190397E+03</pdfrwt>
<pdfrwt beam="2">  1       21 0.67235888E-01 0.45190397E+03</pdfrwt>
<totfact> 0.62144074E+04</totfact>
</mgrwt>
</event>
<event>
 7    0  0.4775379E-002  0.4521215E+03  0.7546771E-02  0.1027091E+00
         21   -1    0    0  502  501  0.00000000000E+00  0.00000000000E+00  0.65086758036E+03  0.65086758036E+03  0.00000000000E+00 0. -1.
         21   -1    0    0  501  502 -0.00000000000E+00 -0.00000000000E+00 -0.78515925652E+02  0.78515925652E+02  0.00000000000E+00 0. -1.
      99926    2    1    2    0    0  0.71054273576E-14  0.00000000000E+00  0.57235165471E+03  0.72938350601E+03  0.45212153476E+03 0.  0.
      99925    2    3    3    0    0  0.53993557531E+02 -0.52214693186E+02  0.49182615575E+03  0.56272954560E+03  0.26292564646E+03 0.  0.
         25    1    3    3    0    0 -0.53993557531E+02  0.52214693186E+02  0.80525498959E+02  0.16665396041E+03  0.12509000000E+03 0.  0.
         25    1    4    4    0    0  0.39813332330E+02 -0.28780387988E+02  0.33036062867E+03  0.35664977953E+03  0.12509000000E+03 0.  0.
         25    1    4    4    0    0  0.14180225201E+02 -0.23434305198E+02  0.16146552708E+03  0.20607976607E+03  0.12509000000E+03 0.  0.
<mgrwt>
<rscale>  2 0.45212153E+03</rscale>
<asrwt>0</asrwt>
<pdfrwt beam="1">  1       21 0.95715818E-01 0.45212153E+03</pdfrwt>
<pdfrwt beam="2">  1       21 0.11546460E-01 0.45212153E+03</pdfrwt>
<totfact> 0.52515158E+04</totfact>
</mgrwt>
</event>
<event>
 7    0  0.4775379E-002  0.4498198E+03  0.7546771E-02  0.1027776E+00
         21   -1    0    0  502  501  0.00000000000E+00  0.00000000000E+00  0.29357819748E+03  0.29357819748E+03  0.00000000000E+00 0. -1.
         21   -1    0    0  501  502 -0.00000000000E+00 -0.00000000000E+00 -0.17230321542E+03  0.17230321542E+03  0.00000000000E+00 0. -1.
      99926    2    1    2    0    0  0.35527136788E-14  0.00000000000E+00  0.12127498205E+03  0.46588141290E+03  0.44981981905E+03 0.  0.
      99925    2    3    3    0    0  0.10518708678E+02 -0.10499208619E+02  0.18767936395E+03  0.32348082776E+03  0.26305023410E+03 0.  0.
         25    1    3    3    0    0 -0.10518708678E+02  0.10499208619E+02 -0.66404381893E+02  0.14240058514E+03  0.12509000000E+03 0.  0.
         25    1    4    4    0    0 -0.25355970040E+02 -0.91410725610E+01  0.60594612792E+02  0.14158283661E+03  0.12509000000E+03 0.  0.
         25    1    4    4    0    0  0.35874678717E+02 -0.13581360578E+01  0.12708475115E+03  0.18189799115E+03  0.12509000000E+03 0.  0.
<mgrwt>
<rscale>  2 0.44981982E+03</rscale>
<asrwt>0</asrwt>
<pdfrwt beam="1">  1       21 0.43173264E-01 0.44981982E+03</pdfrwt>
<pdfrwt beam="2">  1       21 0.25338708E-01 0.44981982E+03</pdfrwt>
<totfact> 0.70600222E+04</totfact>
</mgrwt>
</event>
<event>
 7    0  0.4775379E-002  0.4605370E+03  0.7546771E-02  0.1024626E+00
         21   -1    0    0  502  501  0.00000000000E+00  0.00000000000E+00  0.41270266315E+02  0.41270266315E+02  0.00000000000E+00 0. -1.
         21   -1    0    0  501  502 -0.00000000000E+00 -0.00000000000E+00 -0.12847892020E+04  0.12847892020E+04  0.00000000000E+00 0. -1.
      99926    2    1    2    0    0  0.00000000000E+00  0.14210854715E-13 -0.12435189357E+04  0.13260594683E+04  0.46053704531E+03 0.  0.
      99925    2    3    3    0    0 -0.11509484698E+02 -0.11228131003E+03 -0.88041164969E+03  0.92576711258E+03  0.26302188693E+03 0.  0.
         25    1    3    3    0    0  0.11509484698E+02  0.11228131003E+03 -0.36310728603E+03  0.40029235577E+03  0.12509000000E+03 0.  0.
         25    1    4    4    0    0 -0.14653769740E+02 -0.16556704847E+02 -0.34430689917E+03  0.36699265165E+03  0.12509000000E+03 0.  0.
         25    1    4    4    0    0  0.31442850421E+01 -0.95724605183E+02 -0.53610475051E+03  0.55877446093E+03  0.12509000000E+03 0.  0.
<mgrwt>
<rscale>  2 0.46053705E+03</rscale>
<asrwt>0</asrwt>
<pdfrwt beam="1">  1       21 0.60691566E-02 0.46053705E+03</pdfrwt>
<pdfrwt beam="2">  1       21 0.18893959E+00 0.46053705E+03</pdfrwt>
<totfact> 0.27178087E+04</totfact>
</mgrwt>
</event>
<event>
 7    0  0.4775379E-002  0.4383281E+03  0.7546771E-02  0.1031261E+00
         21   -1    0    0  502  501  0.00000000000E+00  0.00000000000E+00  0.56015936553E+02  0.56015936553E+02  0.00000000000E+00 0. -1.
         21   -1    0    0  501  502 -0.00000000000E+00 -0.00000000000E+00 -0.85748595353E+03  0.85748595353E+03  0.00000000000E+00 0. -1.
      99926    2    1    2    0    0  0.00000000000E+00  0.00000000000E+00 -0.80147001698E+03  0.91350189008E+03  0.43832809067E+03 0.  0.
      99925    2    3    3    0    0 -0.89436710988E+02  0.61773506186E+01 -0.58748273606E+03  0.64992049956E+03  0.26310379255E+03 0.  0.
         25    1    3    3    0    0  0.89436710988E+02 -0.61773506186E+01 -0.21398728092E+03  0.26358139052E+03  0.12509000000E+03 0.  0.
         25    1    4    4    0    0 -0.38288768424E+02 -0.21851319831E+02 -0.36220893596E+03  0.38572831287E+03  0.12509000000E+03 0.  0.
         25    1    4    4    0    0 -0.51147942564E+02  0.28028670449E+02 -0.22527380010E+03  0.26419218669E+03  0.12509000000E+03 0.  0.
<mgrwt>
<rscale>  2 0.43832809E+03</rscale>
<asrwt>0</asrwt>
<pdfrwt beam="1">  1       21 0.82376378E-02 0.43832809E+03</pdfrwt>
<pdfrwt beam="2">  1       21 0.12610087E+00 0.43832809E+03</pdfrwt>
<totfact> 0.48703711E+04</totfact>
</mgrwt>
</event>
<event>
 7    0  0.4775379E-002  0.4594465E+03  0.7546771E-02  0.1024942E+00
         21   -1    0    0  502  501  0.00000000000E+00  0.00000000000E+00  0.24738737302E+04  0.24738737302E+04  0.00000000000E+00 0.  1.
         21   -1    0    0  501  502 -0.00000000000E+00 -0.00000000000E+00 -0.21332042021E+02  0.21332042021E+02  0.00000000000E+00 0.  1.
      99926    2    1    2    0    0  0.00000000000E+00  0.00000000000E+00  0.24525416882E+04  0.24952057722E+04  0.45944652950E+03 0.  0.
      99925    2    3    3    0    0  0.43162251510E+02  0.10816132061E+03  0.16033603537E+04  0.16289966184E+04  0.26325597376E+03 0.  0.
         25    1    3    3    0    0 -0.43162251510E+02 -0.10816132061E+03  0.84918133451E+03  0.86620915385E+03  0.12509000000E+03 0.  0.
         25    1    4    4    0    0 -0.82746009188E+00  0.34551337127E+02  0.57145016689E+03  0.58600109294E+03  0.12509000000E+03 0.  0.
         25    1    4    4    0    0  0.43989711601E+02  0.73609983479E+02  0.10319101868E+04  0.10429955254E+04  0.12509000000E+03 0.  0.
<mgrwt>
<rscale>  2 0.45944653E+03</rscale>
<asrwt>0</asrwt>
<pdfrwt beam="1">  1       21 0.36380476E+00 0.45944653E+03</pdfrwt>
<pdfrwt beam="2">  1       21 0.31370667E-02 0.45944653E+03</pdfrwt>
<totfact> 0.69380206E+03</totfact>
</mgrwt>
</event>
<event>
 7    0  0.4775379E-002  0.4565915E+03  0.7546771E-02  0.1025774E+00
         21   -1    0    0  502  501  0.00000000000E+00  0.00000000000E+00  0.33322277609E+02  0.33322277609E+02  0.00000000000E+00 0. -1.
         21   -1    0    0  501  502 -0.00000000000E+00 -0.00000000000E+00 -0.15640873130E+04  0.15640873130E+04  0.00000000000E+00 0. -1.
      99926    2    1    2    0    0  0.00000000000E+00  0.00000000000E+00 -0.15307650354E+04  0.15974095906E+04  0.45659150956E+03 0.  0.
      99925    2    3    3    0    0  0.10909024395E+03  0.12852750936E+02 -0.10761118593E+04  0.11132372111E+04  0.26308644917E+03 0.  0.
         25    1    4    4    0    0  0.17083742366E+02  0.14686047386E+02 -0.56142077829E+03  0.57562864125E+03  0.12509000000E+03 0.  0.
         25    1    3    3    0    0 -0.10909024395E+03 -0.12852750936E+02 -0.45465317608E+03  0.48417237959E+03  0.12509000000E+03 0.  0.
         25    1    4    4    0    0  0.92006501579E+02 -0.18332964505E+01 -0.51469108105E+03  0.53760856980E+03  0.12509000000E+03 0.  0.
<mgrwt>
<rscale>  2 0.45659151E+03</rscale>
<asrwt>0</asrwt>
<pdfrwt beam="1">  1       21 0.49003349E-02 0.45659151E+03</pdfrwt>
<pdfrwt beam="2">  1       21 0.23001284E+00 0.45659151E+03</pdfrwt>
<totfact> 0.21224872E+04</totfact>
</mgrwt>
</event>
<event>
 6    0  0.4775379E-002  0.4294275E+03  0.7546771E-02  0.1034041E+00
         21   -1    0    0  502  501  0.00000000000E+00  0.00000000000E+00  0.12352892093E+04  0.12352892093E+04  0.00000000000E+00 0. -1.
         21   -1    0    0  501  502 -0.00000000000E+00 -0.00000000000E+00 -0.37320802579E+02  0.37320802579E+02  0.00000000000E+00 0. -1.
      99926    2    1    2    0    0 -0.14210854715E-13 -0.17763568394E-14  0.11979684067E+04  0.12726100118E+04  0.42942745467E+03 0.  0.
         25    1    3    3    0    0 -0.44909608702E+02  0.25171508222E+02  0.30967929252E+03  0.33793379544E+03  0.12509000000E+03 0.  0.
         25    1    3    3    0    0 -0.32724314443E+02 -0.40617762004E+02  0.32201945411E+03  0.34937761844E+03  0.12509000000E+03 0.  0.
         25    1    3    3    0    0  0.77633923144E+02  0.15446253782E+02  0.56626966004E+03  0.58529859795E+03  0.12509000000E+03 0.  0.
<mgrwt>
<rscale>  2 0.42942745E+03</rscale>
<asrwt>0</asrwt>
<pdfrwt beam="1">  1       21 0.18166015E+00 0.42942745E+03</pdfrwt>
<pdfrwt beam="2">  1       21 0.54883541E-02 0.42942745E+03</pdfrwt>
<totfact> 0.36695296E+04</totfact>
</mgrwt>
</event>
<event>
 7    0  0.4775379E-002  0.4542085E+03  0.7546771E-02  0.1026474E+00
         21   -1    0    0  502  501  0.00000000000E+00  0.00000000000E+00  0.97244746151E+02  0.97244746151E+02  0.00000000000E+00 0. -1.
         21   -1    0    0  501  502 -0.00000000000E+00 -0.00000000000E+00 -0.53037655270E+03  0.53037655270E+03  0.00000000000E+00 0. -1.
      99926    2    1    2    0    0 -0.44408920985E-15 -0.14210854715E-13 -0.43313180655E+03  0.62762129885E+03  0.45420846858E+03 0.  0.
      99925    2    3    3    0    0 -0.96081464001E+00  0.11213151780E+03 -0.28189196885E+03  0.40157838909E+03  0.26311161136E+03 0.  0.
         25    1    4    4    0    0 -0.10905422067E+02  0.16522390461E+02 -0.14682357609E+03  0.19389839663E+03  0.12509000000E+03 0.  0.
         25    1    3    3    0    0  0.96081464001E+00 -0.11213151780E+03 -0.15123983770E+03  0.22604290976E+03  0.12509000000E+03 0.  0.
         25    1    4    4    0    0  0.99446074267E+01  0.95609127334E+02 -0.13506839276E+03  0.20767999246E+03  0.12509000000E+03 0.  0.
<mgrwt>
<rscale>  2 0.45420847E+03</rscale>
<asrwt>0</asrwt>
<pdfrwt beam="1">  1       21 0.14300698E-01 0.45420847E+03</pdfrwt>
<pdfrwt beam="2">  1       21 0.77996553E-01 0.45420847E+03</pdfrwt>
<totfact> 0.57367153E+04</totfact>
</mgrwt>
</event>
<event>
 6    0  0.4775379E-002  0.4622394E+03  0.7546771E-02  0.1024134E+00
         21   -1    0    0  502  501  0.00000000000E+00  0.00000000000E+00  0.48988089643E+03  0.48988089643E+03  0.00000000000E+00 0. -1.
         21   -1    0    0  501  502 -0.00000000000E+00 -0.00000000000E+00 -0.10903939964E+03  0.10903939964E+03  0.00000000000E+00 0. -1.
      99926    2    1    2    0    0  0.00000000000E+00  0.00000000000E+00  0.38084149679E+03  0.59892029607E+03  0.46223941347E+03 0.  0.
         25    1    3    3    0    0 -0.79380339610E+02 -0.28879099513E+02  0.17321130895E+03  0.22974966018E+03  0.12509000000E+03 0.  0.
         25    1    3    3    0    0  0.10764000204E+03 -0.19547767183E+02  0.92718065566E+02  0.19029617185E+03  0.12509000000E+03 0.  0.
         25    1    3    3    0    0 -0.28259662426E+02  0.48426866695E+02  0.11491212227E+03  0.17887446403E+03  0.12509000000E+03 0.  0.
<mgrwt>
<rscale>  2 0.46223941E+03</rscale>
<asrwt>0</asrwt>
<pdfrwt beam="1">  1       21 0.72041308E-01 0.46223941E+03</pdfrwt>
<pdfrwt beam="2">  1       21 0.16035206E-01 0.46223941E+03</pdfrwt>
<totfact> 0.55501082E+04</totfact>
</mgrwt>
</event>
<event>
 7    0  0.4775379E-002  0.4556139E+03  0.7546771E-02  0.1026061E+00
         21   -1    0    0  502  501  0.00000000000E+00  0.00000000000E+00  0.42639497534E+03  0.42639497534E+03  0.00000000000E+00 0. -1.
         21   -1    0    0  501  502 -0.00000000000E+00 -0.00000000000E+00 -0.12170878794E+03  0.12170878794E+03  0.00000000000E+00 0. -1.
      99926    2    1    2    0    0  0.00000000000E+00  0.00000000000E+00  0.30468618740E+03  0.54810376328E+03  0.45561394023E+03 0.  0.
      99925    2    3    3    0    0 -0.94953698492E+02  0.23379384785E+02  0.12175781445E+03  0.30587845862E+03  0.26300924998E+03 0.  0.
         25    1    4    4    0    0 -0.51992054401E+02  0.36100668605E+02  0.27230363444E+02  0.14281257924E+03  0.12509000000E+03 0.  0.
         25    1    3    3    0    0  0.94953698492E+02 -0.23379384785E+02  0.18292837295E+03  0.24222530466E+03  0.12509000000E+03 0.  0.
         25    1    4    4    0    0 -0.42961644091E+02 -0.12721283820E+02  0.94527451010E+02  0.16306587938E+03  0.12509000000E+03 0.  0.
<mgrwt>
<rscale>  2 0.45561394E+03</rscale>
<asrwt>0</asrwt>
<pdfrwt beam="1">  1       21 0.62705143E-01 0.45561394E+03</pdfrwt>
<pdfrwt beam="2">  1       21 0.17898351E-01 0.45561394E+03</pdfrwt>
<totfact> 0.61691766E+04</totfact>
</mgrwt>
</event>
<event>
 7    0  0.4775379E-002  0.4592172E+03  0.7546771E-02  0.1025008E+00
         21   -1    0    0  502  501  0.00000000000E+00  0.00000000000E+00  0.88237286842E+03  0.88237286842E+03  0.00000000000E+00 0.  1.
         21   -1    0    0  501  502 -0.00000000000E+00 -0.00000000000E+00 -0.59748110093E+02  0.59748110093E+02  0.00000000000E+00 0.  1.
      99926    2    1    2    0    0  0.00000000000E+00  0.00000000000E+00  0.82262475832E+03  0.94212097851E+03  0.45921720911E+03 0.  0.
      99925    2    3    3    0    0 -0.32364109258E+02  0.91419317742E+02  0.65027882908E+03  0.70812193011E+03  0.26300035196E+03 0.  0.
         25    1    4    4    0    0 -0.20370874985E+02  0.47557472121E+02  0.42949414663E+03  0.45032145829E+03  0.12509000000E+03 0.  0.
         25    1    4    4    0    0 -0.11993234273E+02  0.43861845622E+02  0.22078468245E+03  0.25780047183E+03  0.12509000000E+03 0.  0.
         25    1    3    3    0    0  0.32364109258E+02 -0.91419317742E+02  0.17234592924E+03  0.23399904840E+03  0.12509000000E+03 0.  0.
<mgrwt>
<rscale>  2 0.45921721E+03</rscale>
<asrwt>0</asrwt>
<pdfrwt beam="1">  1       21 0.12976071E+00 0.45921721E+03</pdfrwt>
<pdfrwt beam="2">  1       21 0.87864873E-02 0.45921721E+03</pdfrwt>
<totfact> 0.40121814E+04</totfact>
</mgrwt>
</event>
<event>
 7    0  0.4775379E-002  0.4555976E+03  0.7546771E-02  0.1026066E+00
         21   -1    0    0  502  501  0.00000000000E+00  0.00000000000E+00  0.13254759469E+03  0.13254759469E+03  0.00000000000E+00 0. -1.
         21   -1    0    0  501  502 -0.00000000000E+00 -0.00000000000E+00 -0.39149929222E+03  0.39149929222E+03  0.00000000000E+00 0. -1.
      99926    2    1    2    0    0  0.00000000000E+00  0.71054273576E-14 -0.25895169753E+03  0.52404688690E+03  0.45559758342E+03 0.  0.
      99925    2    3    3    0    0  0.10275437418E+03 -0.42175433750E+02 -0.19109347990E+03  0.34352133629E+03  0.26296950736E+03 0.  0.
         25    1    4    4    0    0  0.11519274111E+02 -0.35300151807E+02 -0.87690615986E+02  0.15721306124E+03  0.12509000000E+03 0.  0.
         25    1    3    3    0    0 -0.10275437418E+03  0.42175433750E+02 -0.67858217636E+02  0.18052555062E+03  0.12509000000E+03 0.  0.
         25    1    4    4    0    0  0.91235100064E+02 -0.68752819427E+01 -0.10340286391E+03  0.18630827505E+03  0.12509000000E+03 0.  0.
<mgrwt>
<rscale>  2 0.45559758E+03</rscale>
<asrwt>0</asrwt>
<pdfrwt beam="1">  1       21 0.19492293E-01 0.45559758E+03</pdfrwt>
<pdfrwt beam="2">  1       21 0.57573425E-01 0.45559758E+03</pdfrwt>
<totfact> 0.63310824E+04</totfact>
</mgrwt>
</event>
<event>
 7    0  0.4775379E-002  0.4570324E+03  0.7546771E-02  0.1025645E+00
         21   -1    0    0  502  501  0.00000000000E+00  0.00000000000E+00  0.53712159930E+03  0.53712159930E+03  0.00000000000E+00 0. -1.
         21   -1    0    0  501  502 -0.00000000000E+00 -0.00000000000E+00 -0.97221305383E+02  0.97221305383E+02  0.00000000000E+00 0. -1.
      99926    2    1    2    0    0 -0.14210854715E-13  0.00000000000E+00  0.43990029391E+03  0.63434290468E+03  0.45703244101E+03 0.  0.
      99925    2    3    3    0    0  0.98587784884E+02  0.55746960533E+02  0.30430129635E+03  0.41786687557E+03  0.26303264399E+03 0.  0.
         25    1    3    3    0    0 -0.98587784884E+02 -0.55746960533E+02  0.13559899757E+03  0.21647602911E+03  0.12509000000E+03 0.  0.
         25    1    4    4    0    0  0.91523041620E+02  0.40217660745E+02  0.17099805580E+03  0.23426858639E+03  0.12509000000E+03 0.  0.
         25    1    4    4    0    0  0.70647432639E+01  0.15529299788E+02  0.13330324055E+03  0.18359828918E+03  0.12509000000E+03 0.  0.
<mgrwt>
<rscale>  2 0.45703244E+03</rscale>
<asrwt>0</asrwt>
<pdfrwt beam="1">  1       21 0.78988469E-01 0.45703244E+03</pdfrwt>
<pdfrwt beam="2">  1       21 0.14297251E-01 0.45703244E+03</pdfrwt>
<totfact> 0.55713469E+04</totfact>
</mgrwt>
</event>
<event>
 7    0  0.4775379E-002  0.4599816E+03  0.7546771E-02  0.1024787E+00
         21   -1    0    0  502  501  0.00000000000E+00  0.00000000000E+00  0.39930711562E+03  0.39930711562E+03  0.00000000000E+00 0.  1.
         21   -1    0    0  501  502 -0.00000000000E+00 -0.00000000000E+00 -0.13246890061E+03  0.13246890061E+03  0.00000000000E+00 0.  1.
      99926    2    1    2    0    0  0.00000000000E+00  0.71054273576E-14  0.26683821501E+03  0.53177601623E+03  0.45998162838E+03 0.  0.
      99925    2    3    3    0    0  0.35288912810E+01  0.52919322647E+02  0.28842308946E+03  0.39420304400E+03  0.26342978872E+03 0.  0.
         25    1    3    3    0    0 -0.35288912810E+01 -0.52919322647E+02 -0.21584874444E+02  0.13757297223E+03  0.12509000000E+03 0.  0.
         25    1    4    4    0    0  0.36074166761E+02  0.49877387422E+02  0.14791835817E+03  0.20326447813E+03  0.12509000000E+03 0.  0.
         25    1    4    4    0    0 -0.32545275480E+02  0.30419352250E+01  0.14050473128E+03  0.19093856588E+03  0.12509000000E+03 0.  0.
<mgrwt>
<rscale>  2 0.45998163E+03</rscale>
<asrwt>0</asrwt>
<pdfrwt beam="1">  1       21 0.58721634E-01 0.45998163E+03</pdfrwt>
<pdfrwt beam="2">  1       21 0.19480721E-01 0.45998163E+03</pdfrwt>
<totfact> 0.60655804E+04</totfact>
</mgrwt>
</event>
<event>
 7    0  0.4775379E-002  0.4581751E+03  0.7546771E-02  0.1025312E+00
         21   -1    0    0  502  501  0.00000000000E+00  0.00000000000E+00  0.12511361566E+03  0.12511361566E+03  0.00000000000E+00 0. -1.
         21   -1    0    0  501  502 -0.00000000000E+00 -0.00000000000E+00 -0.41946749318E+03  0.41946749318E+03  0.00000000000E+00 0. -1.
      99926    2    1    2    0    0  0.71054273576E-14  0.71054273576E-14 -0.29435387752E+03  0.54458110884E+03  0.45817505267E+03 0.  0.
      99925    2    3    3    0    0  0.52331687646E+02  0.46242034894E+02 -0.74294579412E+02  0.28199677170E+03  0.26291740794E+03 0.  0.
         25    1    4    4    0    0  0.39633469292E+01  0.16047413339E+02 -0.94711923578E+00  0.12618095232E+03  0.12509000000E+03 0.  0.
         25    1    4    4    0    0  0.48368340716E+02  0.30194621555E+02 -0.73347460176E+02  0.15581581938E+03  0.12509000000E+03 0.  0.
         25    1    3    3    0    0 -0.52331687646E+02 -0.46242034894E+02 -0.22005929811E+03  0.26258433714E+03  0.12509000000E+03 0.  0.
<mgrwt>
<rscale>  2 0.45817505E+03</rscale>
<asrwt>0</asrwt>
<pdfrwt beam="1">  1       21 0.18399061E-01 0.45817505E+03</pdfrwt>
<pdfrwt beam="2">  1       21 0.61686396E-01 0.45817505E+03</pdfrwt>
<totfact> 0.60686871E+04</totfact>
</mgrwt>
</event>
<event>
 7    0  0.4775379E-002  0.4591271E+03  0.7546771E-02  0.1025035E+00
         21   -1    0    0  502  501  0.00000000000E+00  0.00000000000E+00  0.25064666497E+03  0.25064666497E+03  0.00000000000E+00 0.  1.
         21   -1    0    0  501  502 -0.00000000000E+00 -0.00000000000E+00 -0.21025385688E+03  0.21025385688E+03  0.00000000000E+00 0.  1.
      99926    2    1    2    0    0  0.00000000000E+00  0.00000000000E+00  0.40392808087E+02  0.46090052184E+03  0.45912711975E+03 0.  0.
      99925    2    3    3    0    0  0.72699271646E+02  0.58031407367E+02 -0.46538805311E+02  0.28241399057E+03  0.26256232276E+03 0.  0.
         25    1    3    3    0    0 -0.72699271646E+02 -0.58031407367E+02  0.86931613397E+02  0.17848653128E+03  0.12509000000E+03 0.  0.
         25    1    4    4    0    0  0.71149845125E+02  0.45671456784E+02 -0.91343796498E+01  0.15125847883E+03  0.12509000000E+03 0.  0.
         25    1    4    4    0    0  0.15494265209E+01  0.12359950582E+02 -0.37404425661E+02  0.13115551174E+03  0.12509000000E+03 0.  0.
<mgrwt>
<rscale>  2 0.45912712E+03</rscale>
<asrwt>0</asrwt>
<pdfrwt beam="1">  1       21 0.36859804E-01 0.45912712E+03</pdfrwt>
<pdfrwt beam="2">  1       21 0.30919685E-01 0.45912712E+03</pdfrwt>
<totfact> 0.65918191E+04</totfact>
</mgrwt>
</event>
<event>
 7    0  0.4775379E-002  0.4592642E+03  0.7546771E-02  0.1024995E+00
         21   -1    0    0  502  501  0.00000000000E+00  0.00000000000E+00  0.12192642447E+03  0.12192642447E+03  0.00000000000E+00 0. -1.
         21   -1    0    0  501  502 -0.00000000000E+00 -0.00000000000E+00 -0.43248129354E+03  0.43248129354E+03  0.00000000000E+00 0. -1.
      99926    2    1    2    0    0  0.00000000000E+00 -0.14210854715E-13 -0.31055486907E+03  0.55440771800E+03  0.45926418440E+03 0.  0.
      99925    2    3    3    0    0  0.14903650771E+02  0.10680551058E+03 -0.13957893247E+03  0.31668978664E+03  0.26302206499E+03 0.  0.
         25    1    4    4    0    0  0.14116458220E+02  0.94897737237E+02 -0.64649536150E+02  0.17038757452E+03  0.12509000000E+03 0.  0.
         25    1    3    3    0    0 -0.14903650771E+02 -0.10680551058E+03 -0.17097593660E+03  0.23771793136E+03  0.12509000000E+03 0.  0.
         25    1    4    4    0    0  0.78719255073E+00  0.11907773342E+02 -0.74929396324E+02  0.14630221212E+03  0.12509000000E+03 0.  0.
<mgrwt>
<rscale>  2 0.45926418E+03</rscale>
<asrwt>0</asrwt>
<pdfrwt beam="1">  1       21 0.17930356E-01 0.45926418E+03</pdfrwt>
<pdfrwt beam="2">  1       21 0.63600191E-01 0.45926418E+03</pdfrwt>
<totfact> 0.59542004E+04</totfact>
</mgrwt>
</event>
<event>
 7    0  0.4775379E-002  0.4452162E+03  0.7546771E-02  0.1029158E+00
         21   -1    0    0  502  501  0.00000000000E+00  0.00000000000E+00  0.25865257030E+03  0.25865257030E+03  0.00000000000E+00 0. -1.
         21   -1    0    0  501  502 -0.00000000000E+00 -0.00000000000E+00 -0.19158660174E+03  0.19158660174E+03  0.00000000000E+00 0. -1.
      99926    2    1    2    0    0  0.71054273576E-14  0.00000000000E+00  0.67065968557E+02  0.45023917204E+03  0.44521620355E+03 0.  0.
      99925    2    3    3    0    0  0.58064100692E+02 -0.34208729591E+02  0.12238485306E+03  0.29776175060E+03  0.26294929338E+03 0.  0.
         25    1    4    4    0    0  0.58279761788E+02 -0.28775171178E+02  0.93825606232E+02  0.16933780911E+03  0.12509000000E+03 0.  0.
         25    1    4    4    0    0 -0.21566109524E+00 -0.54335584131E+01  0.28559246824E+02  0.12842394148E+03  0.12509000000E+03 0.  0.
         25    1    3    3    0    0 -0.58064100692E+02  0.34208729591E+02 -0.55318884499E+02  0.15247742145E+03  0.12509000000E+03 0.  0.
<mgrwt>
<rscale>  2 0.44521620E+03</rscale>
<asrwt>0</asrwt>
<pdfrwt beam="1">  1       21 0.38037143E-01 0.44521620E+03</pdfrwt>
<pdfrwt beam="2">  1       21 0.28174500E-01 0.44521620E+03</pdfrwt>
<totfact> 0.74546529E+04</totfact>
</mgrwt>
</event>
<event>
 7    0  0.4775379E-002  0.4556430E+03  0.7546771E-02  0.1026052E+00
         21   -1    0    0  502  501  0.00000000000E+00  0.00000000000E+00  0.10306717272E+04  0.10306717272E+04  0.00000000000E+00 0. -1.
         21   -1    0    0  501  502 -0.00000000000E+00 -0.00000000000E+00 -0.50358075163E+02  0.50358075163E+02  0.00000000000E+00 0. -1.
      99926    2    1    2    0    0  0.00000000000E+00  0.00000000000E+00  0.98031365203E+03  0.10810298024E+04  0.45564303706E+03 0.  0.
      99925    2    3    3    0    0 -0.90192566838E+02 -0.15738631982E+02  0.45641106726E+03  0.53467476204E+03  0.26302782209E+03 0.  0.
         25    1    3    3    0    0  0.90192566838E+02  0.15738631982E+02  0.52390258477E+03  0.54635504032E+03  0.12509000000E+03 0.  0.
         25    1    4    4    0    0 -0.32609120631E+02 -0.46542536015E+02  0.22409577588E+03  0.26286115589E+03  0.12509000000E+03 0.  0.
         25    1    4    4    0    0 -0.57583446207E+02  0.30803904033E+02  0.23231529138E+03  0.27181360615E+03  0.12509000000E+03 0.  0.
<mgrwt>
<rscale>  2 0.45564304E+03</rscale>
<asrwt>0</asrwt>
<pdfrwt beam="1">  1       21 0.15156936E+00 0.45564304E+03</pdfrwt>
<pdfrwt beam="2">  1       21 0.74055999E-02 0.45564304E+03</pdfrwt>
<totfact> 0.35978143E+04</totfact>
</mgrwt>
</event>
<event>
 7    0  0.4775379E-002  0.4499692E+03  0.7546771E-02  0.1027731E+00
         21   -1    0    0  502  501  0.00000000000E+00  0.00000000000E+00  0.16565251763E+04  0.16565251763E+04  0.00000000000E+00 0. -1.
         21   -1    0    0  501  502 -0.00000000000E+00 -0.00000000000E+00 -0.30556773719E+02  0.30556773719E+02  0.00000000000E+00 0. -1.
      99926    2    1    2    0    0  0.00000000000E+00  0.00000000000E+00  0.16259684026E+04  0.16870819500E+04  0.44996917660E+03 0.  0.
      99925    2    3    3    0    0 -0.54972414054E+02  0.92103823693E+02  0.97140010757E+03  0.10120914008E+04  0.26306986501E+03 0.  0.
         25    1    4    4    0    0 -0.46535546780E+02  0.84656317078E+02  0.51276650169E+03  0.53657174962E+03  0.12509000000E+03 0.  0.
         25    1    4    4    0    0 -0.84368672739E+01  0.74475066144E+01  0.45863360588E+03  0.47551965114E+03  0.12509000000E+03 0.  0.
         25    1    3    3    0    0  0.54972414054E+02 -0.92103823693E+02  0.65456829503E+03  0.67499054927E+03  0.12509000000E+03 0.  0.
<mgrwt>
<rscale>  2 0.44996918E+03</rscale>
<asrwt>0</asrwt>
<pdfrwt beam="1">  1       21 0.24360658E+00 0.44996918E+03</pdfrwt>
<pdfrwt beam="2">  1       21 0.44936443E-02 0.44996918E+03</pdfrwt>
<totfact> 0.20313651E+04</totfact>
</mgrwt>
</event>
<event>
 7    0  0.4775379E-002  0.4656792E+03  0.7546771E-02  0.1023147E+00
         21   -1    0    0  502  501  0.00000000000E+00  0.00000000000E+00  0.12893529605E+03  0.12893529605E+03  0.00000000000E+00 0.  1.
         21   -1    0    0  501  502 -0.00000000000E+00 -0.00000000000E+00 -0.42047657809E+03  0.42047657809E+03  0.00000000000E+00 0.  1.
      99926    2    1    2    0    0  0.00000000000E+00 -0.88817841970E-15 -0.29154128204E+03  0.54941187414E+03  0.46567916887E+03 0.  0.
      99925    2    3    3    0    0 -0.57524110637E+02 -0.68218715221E+01 -0.30959967371E+03  0.41038247133E+03  0.26307081477E+03 0.  0.
         25    1    3    3    0    0  0.57524110637E+02  0.68218715221E+01  0.18058391672E+02  0.13902940281E+03  0.12509000000E+03 0.  0.
         25    1    4    4    0    0 -0.27730942182E+01 -0.34955198532E+02 -0.15312078344E+03  0.20080597196E+03  0.12509000000E+03 0.  0.
         25    1    4    4    0    0 -0.54751016419E+02  0.28133327010E+02 -0.15647889027E+03  0.20957649937E+03  0.12509000000E+03 0.  0.
<mgrwt>
<rscale>  2 0.46567917E+03</rscale>
<asrwt>0</asrwt>
<pdfrwt beam="1">  1       21 0.18961073E-01 0.46567917E+03</pdfrwt>
<pdfrwt beam="2">  1       21 0.61834791E-01 0.46567917E+03</pdfrwt>
<totfact> 0.56938478E+04</totfact>
</mgrwt>
</event>
<event>
 7    0  0.4775379E-002  0.4557978E+03  0.7546771E-02  0.1026007E+00
         21   -1    0    0  502  501  0.00000000000E+00  0.00000000000E+00  0.23056174669E+03  0.23056174669E+03  0.00000000000E+00 0.  1.
         21   -1    0    0  501  502 -0.00000000000E+00 -0.00000000000E+00 -0.22526681781E+03  0.22526681781E+03  0.00000000000E+00 0.  1.
      99926    2    1    2    0    0  0.00000000000E+00  0.00000000000E+00  0.52949288855E+01  0.45582856450E+03  0.45579781037E+03 0.  0.
      99925    2    3    3    0    0  0.17280698193E+02  0.67299152559E+02  0.93668654285E+02  0.28764645514E+03  0.26294270839E+03 0.  0.
         25    1    4    4    0    0  0.37881808032E+02  0.58203451386E+02  0.33106913620E+02  0.14685451632E+03  0.12509000000E+03 0.  0.
         25    1    3    3    0    0 -0.17280698193E+02 -0.67299152559E+02 -0.88373725399E+02  0.16818210935E+03  0.12509000000E+03 0.  0.
         25    1    4    4    0    0 -0.20601109839E+02  0.90957011738E+01  0.60561740665E+02  0.14079193883E+03  0.12509000000E+03 0.  0.
<mgrwt>
<rscale>  2 0.45579781E+03</rscale>
<asrwt>0</asrwt>
<pdfrwt beam="1">  1       21 0.33906139E-01 0.45579781E+03</pdfrwt>
<pdfrwt beam="2">  1       21 0.33127473E-01 0.45579781E+03</pdfrwt>
<totfact> 0.68050910E+04</totfact>
</mgrwt>
</event>
<event>
 7    0  0.4775379E-002  0.4560099E+03  0.7546771E-02  0.1025945E+00
         21   -1    0    0  502  501  0.00000000000E+00  0.00000000000E+00  0.16150044782E+03  0.16150044782E+03  0.00000000000E+00 0.  1.
         21   -1    0    0  501  502 -0.00000000000E+00 -0.00000000000E+00 -0.32189543409E+03  0.32189543409E+03  0.00000000000E+00 0.  1.
      99926    2    1    2    0    0  0.00000000000E+00 -0.71054273576E-14 -0.16039498626E+03  0.48339588191E+03  0.45600989795E+03 0.  0.
      99925    2    3    3    0    0 -0.54348533996E+02 -0.40456756215E+02 -0.35664944816E+01  0.27165737288E+03  0.26304846718E+03 0.  0.
         25    1    3    3    0    0  0.54348533996E+02  0.40456756215E+02 -0.15682849178E+03  0.21173850903E+03  0.12509000000E+03 0.  0.
         25    1    4    4    0    0 -0.30770162904E+02 -0.51908478396E+02 -0.27627527012E+02  0.14160537208E+03  0.12509000000E+03 0.  0.
         25    1    4    4    0    0 -0.23578371093E+02  0.11451722181E+02  0.24061032531E+02  0.13005200079E+03  0.12509000000E+03 0.  0.
<mgrwt>
<rscale>  2 0.45600990E+03</rscale>
<asrwt>0</asrwt>
<pdfrwt beam="1">  1       21 0.23750066E-01 0.45600990E+03</pdfrwt>
<pdfrwt beam="2">  1       21 0.47337564E-01 0.45600990E+03</pdfrwt>
<totfact> 0.65923655E+04</totfact>
</mgrwt>
</event>
<event>
 7    0  0.4775379E-002  0.4556676E+03  0.7546771E-02  0.1026045E+00
         21   -1    0    0  502  501  0.00000000000E+00  0.00000000000E+00  0.94392885834E+03  0.94392885834E+03  0.00000000000E+00 0.  1.
         21   -1    0    0  501  502 -0.00000000000E+00 -0.00000000000E+00 -0.54991682290E+02  0.54991682290E+02  0.00000000000E+00 0.  1.
      99926    2    1    2    0    0  0.00000000000E+00  0.71054273576E-14  0.88893717605E+03  0.99892054063E+03  0.45566758007E+03 0.  0.
      99925    2    3    3    0    0 -0.12959763491E+02 -0.58618523003E+02  0.35033256725E+03  0.44273125681E+03  0.26395827582E+03 0.  0.
         25    1    4    4    0    0  0.52777421653E+01 -0.58948844203E+02  0.22867042023E+03  0.26728353855E+03  0.12509000000E+03 0.  0.
         25    1    4    4    0    0 -0.18237505657E+02  0.33032119948E+00  0.12166214702E+03  0.17544771826E+03  0.12509000000E+03 0.  0.
         25    1    3    3    0    0  0.12959763491E+02  0.58618523003E+02  0.53860460880E+03  0.55618928381E+03  0.12509000000E+03 0.  0.
<mgrwt>
<rscale>  2 0.45566758E+03</rscale>
<asrwt>0</asrwt>
<pdfrwt beam="1">  1       21 0.13881306E+00 0.45566758E+03</pdfrwt>
<pdfrwt beam="2">  1       21 0.80870127E-02 0.45566758E+03</pdfrwt>
<totfact> 0.39005052E+04</totfact>
</mgrwt>
</event>
<event>
 7    0  0.4775379E-002  0.4530548E+03  0.7546771E-02  0.1026815E+00
         21   -1    0    0  502  501  0.00000000000E+00  0.00000000000E+00  0.41495920412E+03  0.41495920412E+03  0.00000000000E+00 0.  1.
         21   -1    0    0  501  502 -0.00000000000E+00 -0.00000000000E+00 -0.12366196974E+03  0.12366196974E+03  0.00000000000E+00 0.  1.
      99926    2    1    2    0    0 -0.35527136788E-14  0.00000000000E+00  0.29129723438E+03  0.53862117386E+03  0.45305484234E+03 0.  0.
      99925    2    3    3    0    0  0.25663076674E+02 -0.29317558109E+02  0.30716149506E+03  0.40664657182E+03  0.26361930431E+03 0.  0.
         25    1    4    4    0    0  0.34974874836E+02 -0.15132172042E+02  0.20984465789E+03  0.24725394445E+03  0.12509000000E+03 0.  0.
         25    1    3    3    0    0 -0.25663076674E+02  0.29317558109E+02 -0.15864260676E+02  0.13197460204E+03  0.12509000000E+03 0.  0.
         25    1    4    4    0    0 -0.93117981622E+01 -0.14185386067E+02  0.97316837167E+02  0.15939262737E+03  0.12509000000E+03 0.  0.
<mgrwt>
<rscale>  2 0.45305484E+03</rscale>
<asrwt>0</asrwt>
<pdfrwt beam="1">  1       21 0.61023412E-01 0.45305484E+03</pdfrwt>
<pdfrwt beam="2">  1       21 0.18185584E-01 0.45305484E+03</pdfrwt>
<totfact> 0.63598165E+04</totfact>
</mgrwt>
</event>
<event>
 7    0  0.4775379E-002  0.4569853E+03  0.7546771E-02  0.1025659E+00
         21   -1    0    0  502  501  0.00000000000E+00  0.00000000000E+00  0.35192204200E+03  0.35192204200E+03  0.00000000000E+00 0. -1.
         21   -1    0    0  501  502 -0.00000000000E+00 -0.00000000000E+00 -0.14835356685E+03  0.14835356685E+03  0.00000000000E+00 0. -1.
      99926    2    1    2    0    0 -0.17763568394E-14  0.88817841970E-15  0.20356847515E+03  0.50027560885E+03  0.45698529598E+03 0.  0.
      99925    2    3    3    0    0 -0.86419750017E+01 -0.75335030016E+01  0.25332154588E+03  0.36516708378E+03  0.26276178578E+03 0.  0.
         25    1    4    4    0    0 -0.10720553525E+02  0.35866612707E+02  0.12797761724E+03  0.18283085841E+03  0.12509000000E+03 0.  0.
         25    1    4    4    0    0  0.20785785235E+01 -0.43400115709E+02  0.12534392865E+03  0.18233622537E+03  0.12509000000E+03 0.  0.
         25    1    3    3    0    0  0.86419750017E+01  0.75335030016E+01 -0.49753070735E+02  0.13510852507E+03  0.12509000000E+03 0.  0.
<mgrwt>
<rscale>  2 0.45698530E+03</rscale>
<asrwt>0</asrwt>
<pdfrwt beam="1">  1       21 0.51753242E-01 0.45698530E+03</pdfrwt>
<pdfrwt beam="2">  1       21 0.21816701E-01 0.45698530E+03</pdfrwt>
<totfact> 0.64233033E+04</totfact>
</mgrwt>
</event>
<event>
 7    0  0.4775379E-002  0.4547040E+03  0.7546771E-02  0.1026328E+00
         21   -1    0    0  502  501  0.00000000000E+00  0.00000000000E+00  0.18581271214E+03  0.18581271214E+03  0.00000000000E+00 0. -1.
         21   -1    0    0  501  502 -0.00000000000E+00 -0.00000000000E+00 -0.27817764556E+03  0.27817764556E+03  0.00000000000E+00 0. -1.
      99926    2    1    2    0    0  0.00000000000E+00  0.11102230246E-15 -0.92364933420E+02  0.46399035770E+03  0.45470404783E+03 0.  0.
      99925    2    3    3    0    0 -0.23187586813E+02 -0.27997923125E+00  0.54582262574E+02  0.26962284734E+03  0.26301998755E+03 0.  0.
         25    1    4    4    0    0 -0.17484063493E+02 -0.14924632312E+01 -0.13588988898E+02  0.12704364857E+03  0.12509000000E+03 0.  0.
         25    1    4    4    0    0 -0.57035233192E+01  0.12124840000E+01  0.68171251472E+02  0.14257919877E+03  0.12509000000E+03 0.  0.
         25    1    3    3    0    0  0.23187586813E+02  0.27997923125E+00 -0.14694719599E+03  0.19436751035E+03  0.12509000000E+03 0.  0.
<mgrwt>
<rscale>  2 0.45470405E+03</rscale>
<asrwt>0</asrwt>
<pdfrwt beam="1">  1       21 0.27325399E-01 0.45470405E+03</pdfrwt>
<pdfrwt beam="2">  1       21 0.40908477E-01 0.45470405E+03</pdfrwt>
<totfact> 0.68045211E+04</totfact>
</mgrwt>
</event>
<event>
 7    0  0.4775379E-002  0.4481627E+03  0.7546771E-02  0.1028271E+00
         21   -1    0    0  502  501  0.00000000000E+00  0.00000000000E+00  0.59768201037E+03  0.59768201037E+03  0.00000000000E+00 0. -1.
         21   -1    0    0  501  502 -0.00000000000E+00 -0.00000000000E+00 -0.84011987650E+02  0.84011987650E+02  0.00000000000E+00 0. -1.
      99926    2    1    2    0    0 -0.14210854715E-13  0.88817841970E-15  0.51367002272E+03  0.68169399802E+03  0.44816271007E+03 0.  0.
      99925    2    3    3    0    0  0.10266913474E+03 -0.49061852428E+01  0.28185692789E+03  0.39893996902E+03  0.26295389178E+03 0.  0.
         25    1    3    3    0    0 -0.10266913474E+03  0.49061852428E+01  0.23181309483E+03  0.28275402900E+03  0.12509000000E+03 0.  0.
         25    1    4    4    0    0  0.92578744134E+02  0.72202596759E+01  0.14443303544E+03  0.21244144097E+03  0.12509000000E+03 0.  0.
         25    1    4    4    0    0  0.10090390602E+02 -0.12126444919E+02  0.13742389245E+03  0.18649852805E+03  0.12509000000E+03 0.  0.
<mgrwt>
<rscale>  2 0.44816271E+03</rscale>
<asrwt>0</asrwt>
<pdfrwt beam="1">  1       21 0.87894411E-01 0.44816271E+03</pdfrwt>
<pdfrwt beam="2">  1       21 0.12354704E-01 0.44816271E+03</pdfrwt>
<totfact> 0.56910953E+04</totfact>
</mgrwt>
</event>
<event>
 7    0  0.4775379E-002  0.5248836E+03  0.7546771E-02  0.1007481E+00
         21   -1    0    0  502  501  0.00000000000E+00  0.00000000000E+00  0.95002766388E+02  0.95002766388E+02  0.00000000000E+00 0.  1.
         21   -1    0    0  501  502 -0.00000000000E+00 -0.00000000000E+00 -0.72498627722E+03  0.72498627722E+03  0.00000000000E+00 0.  1.
      99926    2    1    2    0    0 -0.14210854715E-13 -0.26645352591E-14 -0.62998351083E+03  0.81998904361E+03  0.52488361350E+03 0.  0.
      99925    2    3    3    0    0  0.11054410624E+03 -0.12608486658E+01 -0.57896779352E+03  0.64542759118E+03  0.26296669058E+03 0.  0.
         25    1    4    4    0    0  0.65289338819E+02 -0.18196682803E+02 -0.21761757888E+03  0.25999756877E+03  0.12509000000E+03 0.  0.
         25    1    4    4    0    0  0.45254767416E+02  0.16935834137E+02 -0.36135021464E+03  0.38543002240E+03  0.12509000000E+03 0.  0.
         25    1    3    3    0    0 -0.11054410624E+03  0.12608486658E+01 -0.51015717313E+02  0.17456145243E+03  0.12509000000E+03 0.  0.
<mgrwt>
<rscale>  2 0.52488361E+03</rscale>
<asrwt>0</asrwt>
<pdfrwt beam="1">  1       21 0.13970995E-01 0.52488361E+03</pdfrwt>
<pdfrwt beam="2">  1       21 0.10661563E+00 0.52488361E+03</pdfrwt>
<totfact> 0.27999689E+04</totfact>
</mgrwt>
</event>
<event>
 7    0  0.4775379E-002  0.4536877E+03  0.7546771E-02  0.1026628E+00
         21   -1    0    0  502  501  0.00000000000E+00  0.00000000000E+00  0.14124888231E+03  0.14124888231E+03  0.00000000000E+00 0. -1.
         21   -1    0    0  501  502 -0.00000000000E+00 -0.00000000000E+00 -0.36430818112E+03  0.36430818112E+03  0.00000000000E+00 0. -1.
      99926    2    1    2    0    0  0.71054273576E-14  0.00000000000E+00 -0.22305929881E+03  0.50555706343E+03  0.45368766084E+03 0.  0.
      99925    2    3    3    0    0  0.38530496333E+02  0.87220764642E+02 -0.75102937687E+02  0.28961574309E+03  0.26295392460E+03 0.  0.
         25    1    4    4    0    0 -0.21380984145E+02  0.40924646836E+02 -0.40543633838E+02  0.13936738337E+03  0.12509000000E+03 0.  0.
         25    1    3    3    0    0 -0.38530496333E+02 -0.87220764642E+02 -0.14795636112E+03  0.21594132034E+03  0.12509000000E+03 0.  0.
         25    1    4    4    0    0  0.59911480479E+02  0.46296117806E+02 -0.34559303849E+02  0.15024835972E+03  0.12509000000E+03 0.  0.
<mgrwt>
<rscale>  2 0.45368766E+03</rscale>
<asrwt>0</asrwt>
<pdfrwt beam="1">  1       21 0.20771895E-01 0.45368766E+03</pdfrwt>
<pdfrwt beam="2">  1       21 0.53574732E-01 0.45368766E+03</pdfrwt>
<totfact> 0.65562245E+04</totfact>
</mgrwt>
</event>
<event>
 7    0  0.4775379E-002  0.4480690E+03  0.7546771E-02  0.1028299E+00
         21   -1    0    0  502  501  0.00000000000E+00  0.00000000000E+00  0.11026651978E+04  0.11026651978E+04  0.00000000000E+00 0.  1.
         21   -1    0    0  501  502 -0.00000000000E+00 -0.00000000000E+00 -0.45518304620E+02  0.45518304620E+02  0.00000000000E+00 0.  1.
      99926    2    1    2    0    0  0.00000000000E+00 -0.35527136788E-14  0.10571468932E+04  0.11481835025E+04  0.44806896955E+03 0.  0.
      99925    2    3    3    0    0 -0.63026770745E+02 -0.11476733031E+02  0.88667094882E+03  0.92724540038E+03  0.26361823118E+03 0.  0.
         25    1    3    3    0    0  0.63026770745E+02  0.11476733031E+02  0.17047594440E+03  0.22093810208E+03  0.12509000000E+03 0.  0.
         25    1    4    4    0    0 -0.26136635146E+02  0.22956971396E+02  0.33390143908E+03  0.35825664732E+03  0.12509000000E+03 0.  0.
         25    1    4    4    0    0 -0.36890135599E+02 -0.34433704427E+02  0.55276950975E+03  0.56898875306E+03  0.12509000000E+03 0.  0.
<mgrwt>
<rscale>  2 0.44806897E+03</rscale>
<asrwt>0</asrwt>
<pdfrwt beam="1">  1       21 0.16215663E+00 0.44806897E+03</pdfrwt>
<pdfrwt beam="2">  1       21 0.66938690E-02 0.44806897E+03</pdfrwt>
<totfact> 0.35734760E+04</totfact>
</mgrwt>
</event>
<event>
 7    0  0.4775379E-002  0.4529068E+03  0.7546771E-02  0.1026859E+00
         21   -1    0    0  502  501  0.00000000000E+00  0.00000000000E+00  0.45833028865E+03  0.45833028865E+03  0.00000000000E+00 0.  1.
         21   -1    0    0  501  502 -0.00000000000E+00 -0.00000000000E+00 -0.11188687614E+03  0.11188687614E+03  0.00000000000E+00 0.  1.
      99926    2    1    2    0    0  0.00000000000E+00  0.00000000000E+00  0.34644341252E+03  0.57021716479E+03  0.45290680823E+03 0.  0.
      99925    2    3    3    0    0  0.51217883904E+02 -0.59489090310E+02  0.31759265579E+03  0.41974425107E+03  0.26297893034E+03 0.  0.
         25    1    3    3    0    0 -0.51217883904E+02  0.59489090310E+02  0.28850756728E+02  0.15047291371E+03  0.12509000000E+03 0.  0.
         25    1    4    4    0    0  0.76968971386E+01 -0.45098004746E+02  0.10839155067E+03  0.17172451373E+03  0.12509000000E+03 0.  0.
         25    1    4    4    0    0  0.43520986765E+02 -0.14391085564E+02  0.20920110512E+03  0.24801973735E+03  0.12509000000E+03 0.  0.
<mgrwt>
<rscale>  2 0.45290681E+03</rscale>
<asrwt>0</asrwt>
<pdfrwt beam="1">  1       21 0.67401513E-01 0.45290681E+03</pdfrwt>
<pdfrwt beam="2">  1       21 0.16453952E-01 0.45290681E+03</pdfrwt>
<totfact> 0.61562682E+04</totfact>
</mgrwt>
</event>
<event>
 7    0  0.4775379E-002  0.4128049E+03  0.7546771E-02  0.1039434E+00
         21   -1    0    0  502  501  0.00000000000E+00  0.00000000000E+00  0.63917680861E+03  0.63917680861E+03  0.00000000000E+00 0.  1.
         21   -1    0    0  501  502 -0.00000000000E+00 -0.00000000000E+00 -0.66651314394E+02  0.66651314394E+02  0.00000000000E+00 0.  1.
      99926    2    1    2    0    0  0.00000000000E+00  0.00000000000E+00  0.57252549422E+03  0.70582812300E+03  0.41280491481E+03 0.  0.
      99925    2    3    3    0    0  0.51898897240E+02 -0.18078452032E+02  0.43971209695E+03  0.51528355458E+03  0.26296404213E+03 0.  0.
         25    1    3    3    0    0 -0.51898897240E+02  0.18078452032E+02  0.13281339727E+03  0.19054456842E+03  0.12509000000E+03 0.  0.
         25    1    4    4    0    0  0.51326575287E+02  0.22563513995E+02  0.22011596038E+03  0.25931076647E+03  0.12509000000E+03 0.  0.
         25    1    4    4    0    0  0.57232195230E+00 -0.40641966026E+02  0.21959613657E+03  0.25597278810E+03  0.12509000000E+03 0.  0.
<mgrwt>
<rscale>  2 0.41280491E+03</rscale>
<asrwt>0</asrwt>
<pdfrwt beam="1">  1       21 0.93996586E-01 0.41280491E+03</pdfrwt>
<pdfrwt beam="2">  1       21 0.98016643E-02 0.41280491E+03</pdfrwt>
<totfact> 0.74372318E+04</totfact>
</mgrwt>
</event>
<event>
 7    0  0.4775379E-002  0.4709944E+03  0.7546771E-02  0.1021640E+00
         21   -1    0    0  502  501  0.00000000000E+00  0.00000000000E+00  0.23244312270E+03  0.23244312270E+03  0.00000000000E+00 0. -1.
         21   -1    0    0  501  502 -0.00000000000E+00 -0.00000000000E+00 -0.23859141386E+03  0.23859141386E+03  0.00000000000E+00 0. -1.
      99926    2    1    2    0    0  0.00000000000E+00 -0.44408920985E-15 -0.61482911605E+01  0.47103453656E+03  0.47099440883E+03 0.  0.
      99925    2    3    3    0    0  0.74407384347E+02  0.28767110598E+01 -0.10741103393E+03  0.29370324918E+03  0.26302040616E+03 0.  0.
         25    1    4    4    0    0  0.52884836124E+02  0.14473020758E+02 -0.93439064424E+02  0.16548305376E+03  0.12509000000E+03 0.  0.
         25    1    4    4    0    0  0.21522548223E+02 -0.11596309698E+02 -0.13971969507E+02  0.12822019542E+03  0.12509000000E+03 0.  0.
         25    1    3    3    0    0 -0.74407384347E+02 -0.28767110598E+01  0.10126274277E+03  0.17733128738E+03  0.12509000000E+03 0.  0.
<mgrwt>
<rscale>  2 0.47099441E+03</rscale>
<asrwt>0</asrwt>
<pdfrwt beam="1">  1       21 0.34182812E-01 0.47099441E+03</pdfrwt>
<pdfrwt beam="2">  1       21 0.35086972E-01 0.47099441E+03</pdfrwt>
<totfact> 0.59432167E+04</totfact>
</mgrwt>
</event>
<event>
 7    0  0.4775379E-002  0.4523808E+03  0.7546771E-02  0.1027014E+00
         21   -1    0    0  502  501  0.00000000000E+00  0.00000000000E+00  0.81849419558E+02  0.81849419558E+02  0.00000000000E+00 0. -1.
         21   -1    0    0  501  502 -0.00000000000E+00 -0.00000000000E+00 -0.62507576902E+03  0.62507576902E+03  0.00000000000E+00 0. -1.
      99926    2    1    2    0    0 -0.35527136788E-14  0.00000000000E+00 -0.54322634946E+03  0.70692518857E+03  0.45238076384E+03 0.  0.
      99925    2    3    3    0    0  0.29006239433E+02  0.30209034505E+02 -0.18266823741E+03  0.32299341344E+03  0.26306484462E+03 0.  0.
         25    1    4    4    0    0 -0.20937363284E+02  0.27764823172E+02 -0.70777202632E+02  0.14787217148E+03  0.12509000000E+03 0.  0.
         25    1    3    3    0    0 -0.29006239433E+02 -0.30209034505E+02 -0.36055811205E+03  0.38393177513E+03  0.12509000000E+03 0.  0.
         25    1    4    4    0    0  0.49943602718E+02  0.24442113336E+01 -0.11189103478E+03  0.17512124196E+03  0.12509000000E+03 0.  0.
<mgrwt>
<rscale>  2 0.45238076E+03</rscale>
<asrwt>0</asrwt>
<pdfrwt beam="1">  1       21 0.12036680E-01 0.45238076E+03</pdfrwt>
<pdfrwt beam="2">  1       21 0.91922904E-01 0.45238076E+03</pdfrwt>
<totfact> 0.53625217E+04</totfact>
</mgrwt>
</event>
<event>
 7    0  0.4775379E-002  0.4523757E+03  0.7546771E-02  0.1027016E+00
         21   -1    0    0  502  501  0.00000000000E+00  0.00000000000E+00  0.35672884846E+02  0.35672884846E+02  0.00000000000E+00 0. -1.
         21   -1    0    0  501  502 -0.00000000000E+00 -0.00000000000E+00 -0.14341690550E+04  0.14341690550E+04  0.00000000000E+00 0. -1.
      99926    2    1    2    0    0  0.00000000000E+00  0.00000000000E+00 -0.13984961702E+04  0.14698419398E+04  0.45237571795E+03 0.  0.
      99925    2    3    3    0    0 -0.58275866713E+02 -0.66518438322E+02 -0.10983893902E+04  0.11328962963E+04  0.26300947933E+03 0.  0.
         25    1    4    4    0    0 -0.47897792957E+02  0.17015925467E+01 -0.57067388473E+03  0.58618536727E+03  0.12509000000E+03 0.  0.
         25    1    4    4    0    0 -0.10378073755E+02 -0.68220030868E+02 -0.52771550552E+03  0.54671092901E+03  0.12509000000E+03 0.  0.
         25    1    3    3    0    0  0.58275866713E+02  0.66518438322E+02 -0.30010677990E+03  0.33694564357E+03  0.12509000000E+03 0.  0.
<mgrwt>
<rscale>  2 0.45237572E+03</rscale>
<asrwt>0</asrwt>
<pdfrwt beam="1">  1       21 0.52460122E-02 0.45237572E+03</pdfrwt>
<pdfrwt beam="2">  1       21 0.21090723E+00 0.45237572E+03</pdfrwt>
<totfact> 0.25034474E+04</totfact>
</mgrwt>
</event>
<event>
 7    0  0.4775379E-002  0.4551166E+03  0.7546771E-02  0.1026207E+00
         21   -1    0    0  502  501  0.00000000000E+00  0.00000000000E+00  0.11167879143E+03  0.11167879143E+03  0.00000000000E+00 0.  1.
         21   -1    0    0  501  502 -0.00000000000E+00 -0.00000000000E+00 -0.46367594935E+03  0.46367594935E+03  0.00000000000E+00 0.  1.
      99926    2    1    2    0    0  0.71054273576E-14  0.00000000000E+00 -0.35199715792E+03  0.57535474077E+03  0.45511655490E+03 0.  0.
      99925    2    3    3    0    0 -0.55246736058E+02  0.64824538215E+02 -0.12704156232E+03  0.30423308784E+03  0.26299009597E+03 0.  0.
         25    1    3    3    0    0  0.55246736058E+02 -0.64824538215E+02 -0.22495559560E+03  0.27112165294E+03  0.12509000000E+03 0.  0.
         25    1    4    4    0    0 -0.62099897833E+02  0.21553392631E+02 -0.44758938108E+02  0.14822893336E+03  0.12509000000E+03 0.  0.
         25    1    4    4    0    0  0.68531617753E+01  0.43271145583E+02 -0.82282624214E+02  0.15600415448E+03  0.12509000000E+03 0.  0.
<mgrwt>
<rscale>  2 0.45511655E+03</rscale>
<asrwt>0</asrwt>
<pdfrwt beam="1">  1       21 0.16423352E-01 0.45511655E+03</pdfrwt>
<pdfrwt beam="2">  1       21 0.68187638E-01 0.45511655E+03</pdfrwt>
<totfact> 0.60166019E+04</totfact>
</mgrwt>
</event>
<event>
 7    0  0.4775379E-002  0.4889510E+03  0.7546771E-02  0.1016704E+00
         21   -1    0    0  502  501  0.00000000000E+00  0.00000000000E+00  0.29004127811E+03  0.29004127811E+03  0.00000000000E+00 0.  1.
         21   -1    0    0  501  502 -0.00000000000E+00 -0.00000000000E+00 -0.20606811105E+03  0.20606811105E+03  0.00000000000E+00 0.  1.
      99926    2    1    2    0    0 -0.14210854715E-13  0.00000000000E+00  0.83973167058E+02  0.49610938916E+03  0.48895095176E+03 0.  0.
      99925    2    3    3    0    0 -0.73430874559E+02 -0.41983186847E+02 -0.65142615943E+02  0.28388849915E+03  0.26304835719E+03 0.  0.
         25    1    4    4    0    0 -0.36465787429E+02 -0.34354861032E+02  0.64419092963E+01  0.13490373021E+03  0.12509000000E+03 0.  0.
         25    1    4    4    0    0 -0.36965087130E+02 -0.76283258148E+01 -0.71584525239E+02  0.14898476894E+03  0.12509000000E+03 0.  0.
         25    1    3    3    0    0  0.73430874559E+02  0.41983186847E+02  0.14911578300E+03  0.21222089001E+03  0.12509000000E+03 0.  0.
<mgrwt>
<rscale>  2 0.48895095E+03</rscale>
<asrwt>0</asrwt>
<pdfrwt beam="1">  1       21 0.42653130E-01 0.48895095E+03</pdfrwt>
<pdfrwt beam="2">  1       21 0.30304134E-01 0.48895095E+03</pdfrwt>
<totfact> 0.50494274E+04</totfact>
</mgrwt>
</event>
<event>
 7    0  0.5334151E-002  0.4281399E+03  0.7546771E-02  0.1034449E+00
         21   -1    0    0  502  501  0.00000000000E+00  0.00000000000E+00  0.12215154756E+03  0.12215154756E+03  0.00000000000E+00 0. -1.
         21   -1    0    0  501  502 -0.00000000000E+00 -0.00000000000E+00 -0.37515646728E+03  0.37515646728E+03  0.00000000000E+00 0. -1.
      99926    2    1    2    0    0  0.00000000000E+00  0.00000000000E+00 -0.25300491973E+03  0.49730801484E+03  0.42813989795E+03 0.  0.
      99925    2    3    3    0    0  0.46528326312E+02  0.40407993338E+02 -0.23228707671E+03  0.35633132104E+03  0.26309130216E+03 0.  0.
         25    1    3    3    0    0 -0.46528326312E+02 -0.40407993338E+02 -0.20717843015E+02  0.14097669380E+03  0.12509000000E+03 0.  0.
         25    1    4    4    0    0  0.44798720861E+02  0.36704322523E+02 -0.16228738655E+03  0.21292918216E+03  0.12509000000E+03 0.  0.
         25    1    4    4    0    0  0.17296054509E+01  0.37036708149E+01 -0.69999690155E+02  0.14340213888E+03  0.12509000000E+03 0.  0.
<mgrwt>
<rscale>  2 0.42813990E+03</rscale>
<asrwt>0</asrwt>
<pdfrwt beam="1">  1       21 0.17963463E-01 0.42813990E+03</pdfrwt>
<pdfrwt beam="2">  1       21 0.55170069E-01 0.42813990E+03</pdfrwt>
<totfact> 0.81488565E+04</totfact>
</mgrwt>
</event>
<event>
 7    0  0.4775379E-002  0.4548978E+03  0.7546771E-02  0.1026271E+00
         21   -1    0    0  502  501  0.00000000000E+00  0.00000000000E+00  0.51314771170E+02  0.51314771170E+02  0.00000000000E+00 0.  1.
         21   -1    0    0  501  502 -0.00000000000E+00 -0.00000000000E+00 -0.10081502153E+04  0.10081502153E+04  0.00000000000E+00 0.  1.
      99926    2    1    2    0    0  0.00000000000E+00  0.00000000000E+00 -0.95683544409E+03  0.10594649864E+04  0.45489778017E+03 0.  0.
      99925    2    3    3    0    0 -0.26338320309E+02 -0.10983678608E+03 -0.58812402244E+03  0.65405969879E+03  0.26295702522E+03 0.  0.
         25    1    4    4    0    0 -0.46318819777E+02 -0.30887665707E+02 -0.27932335860E+03  0.31107640174E+03  0.12509000000E+03 0.  0.
         25    1    4    4    0    0  0.19980499467E+02 -0.78949120375E+02 -0.30880066384E+03  0.34298329705E+03  0.12509000000E+03 0.  0.
         25    1    3    3    0    0  0.26338320309E+02  0.10983678608E+03 -0.36871142165E+03  0.40540528764E+03  0.12509000000E+03 0.  0.
<mgrwt>
<rscale>  2 0.45489778E+03</rscale>
<asrwt>0</asrwt>
<pdfrwt beam="1">  1       21 0.75462901E-02 0.45489778E+03</pdfrwt>
<pdfrwt beam="2">  1       21 0.14825738E+00 0.45489778E+03</pdfrwt>
<totfact> 0.36961474E+04</totfact>
</mgrwt>
</event>
<event>
 7    0  0.4775379E-002  0.4519364E+03  0.7546771E-02  0.1027146E+00
         21   -1    0    0  502  501  0.00000000000E+00  0.00000000000E+00  0.56224482797E+03  0.56224482797E+03  0.00000000000E+00 0. -1.
         21   -1    0    0  501  502 -0.00000000000E+00 -0.00000000000E+00 -0.90817421963E+02  0.90817421963E+02  0.00000000000E+00 0. -1.
      99926    2    1    2    0    0  0.00000000000E+00  0.00000000000E+00  0.47142740601E+03  0.65306224994E+03  0.45193639282E+03 0.  0.
      99925    2    3    3    0    0  0.45456560683E+02  0.79836020439E+02  0.20897889657E+03  0.34815764637E+03  0.26287160068E+03 0.  0.
         25    1    4    4    0    0  0.55348390478E+02  0.61330473909E+02  0.13232927291E+03  0.19995853552E+03  0.12509000000E+03 0.  0.
         25    1    3    3    0    0 -0.45456560683E+02 -0.79836020439E+02  0.26244850944E+03  0.30490460357E+03  0.12509000000E+03 0.  0.
         25    1    4    4    0    0 -0.98918297952E+01  0.18505546529E+02  0.76649623653E+02  0.14819911084E+03  0.12509000000E+03 0.  0.
<mgrwt>
<rscale>  2 0.45193639E+03</rscale>
<asrwt>0</asrwt>
<pdfrwt beam="1">  1       21 0.82683061E-01 0.45193639E+03</pdfrwt>
<pdfrwt beam="2">  1       21 0.13355503E-01 0.45193639E+03</pdfrwt>
<totfact> 0.56887732E+04</totfact>
</mgrwt>
</event>
<event>
 7    0  0.4775379E-002  0.4592839E+03  0.7546771E-02  0.1024989E+00
         21   -1    0    0  502  501  0.00000000000E+00  0.00000000000E+00  0.42223845465E+03  0.42223845465E+03  0.00000000000E+00 0. -1.
         21   -1    0    0  501  502 -0.00000000000E+00 -0.00000000000E+00 -0.12489490196E+03  0.12489490196E+03  0.00000000000E+00 0. -1.
      99926    2    1    2    0    0  0.00000000000E+00  0.00000000000E+00  0.29734355269E+03  0.54713335661E+03  0.45928392263E+03 0.  0.
      99925    2    3    3    0    0 -0.95868775397E+02  0.32289695074E+02  0.25673061513E+03  0.38121058752E+03  0.26301607706E+03 0.  0.
         25    1    4    4    0    0 -0.23929259809E+02 -0.10185198268E+02  0.14849837697E+03  0.19589697242E+03  0.12509000000E+03 0.  0.
         25    1    3    3    0    0  0.95868775397E+02 -0.32289695074E+02  0.40612937563E+02  0.16592276909E+03  0.12509000000E+03 0.  0.
         25    1    4    4    0    0 -0.71939515588E+02  0.42474893342E+02  0.10823223816E+03  0.18531361511E+03  0.12509000000E+03 0.  0.
<mgrwt>
<rscale>  2 0.45928392E+03</rscale>
<asrwt>0</asrwt>
<pdfrwt beam="1">  1       21 0.62093890E-01 0.45928392E+03</pdfrwt>
<pdfrwt beam="2">  1       21 0.18366898E-01 0.45928392E+03</pdfrwt>
<totfact> 0.59996635E+04</totfact>
</mgrwt>
</event>
<event>
 6    0  0.4775379E-002  0.4360270E+03  0.7546771E-02  0.1031973E+00
         21   -1    0    0  502  501  0.00000000000E+00  0.00000000000E+00  0.87573170405E+03  0.87573170405E+03  0.00000000000E+00 0.  1.
         21   -1    0    0  501  502 -0.00000000000E+00 -0.00000000000E+00 -0.54274495607E+02  0.54274495607E+02  0.00000000000E+00 0.  1.
      99926    2    1    2    0    0  0.00000000000E+00  0.00000000000E+00  0.82145720844E+03  0.93000619966E+03  0.43602704744E+03 0.  0.
         25    1    3    3    0    0 -0.27975784268E+02 -0.32292010464E+02  0.36007157214E+03  0.38356806907E+03  0.12509000000E+03 0.  0.
         25    1    3    3    0    0  0.64299333359E+02  0.70088004796E+02  0.24653829160E+03  0.29236171092E+03  0.12509000000E+03 0.  0.
         25    1    3    3    0    0 -0.36323549091E+02 -0.37795994332E+02  0.21484734470E+03  0.25407641967E+03  0.12509000000E+03 0.  0.
<mgrwt>
<rscale>  2 0.43602705E+03</rscale>
<asrwt>0</asrwt>
<pdfrwt beam="1">  1       21 0.12878407E+00 0.43602705E+03</pdfrwt>
<pdfrwt beam="2">  1       21 0.79815440E-02 0.43602705E+03</pdfrwt>
<totfact> 0.48812002E+04</totfact>
</mgrwt>
</event>
<event>
 7    0  0.4775379E-002  0.4351479E+03  0.7546771E-02  0.1032246E+00
         21   -1    0    0  502  501  0.00000000000E+00  0.00000000000E+00  0.26684039794E+03  0.26684039794E+03  0.00000000000E+00 0.  1.
         21   -1    0    0  501  502 -0.00000000000E+00 -0.00000000000E+00 -0.17740349285E+03  0.17740349285E+03  0.00000000000E+00 0.  1.
      99926    2    1    2    0    0 -0.71054273576E-14 -0.14210854715E-13  0.89436905089E+02  0.44424389079E+03  0.43514787661E+03 0.  0.
      99925    2    3    3    0    0 -0.31905433072E+02 -0.67202307269E+02  0.15542810008E+01  0.27422927237E+03  0.26394160580E+03 0.  0.
         25    1    3    3    0    0  0.31905433072E+02  0.67202307269E+02  0.87882624088E+02  0.17001461843E+03  0.12509000000E+03 0.  0.
         25    1    4    4    0    0  0.25486150704E+02 -0.24551079230E+02  0.51248907815E+01  0.13010023818E+03  0.12509000000E+03 0.  0.
         25    1    4    4    0    0 -0.57391583776E+02 -0.42651228039E+02 -0.35706097807E+01  0.14412903419E+03  0.12509000000E+03 0.  0.
<mgrwt>
<rscale>  2 0.43514788E+03</rscale>
<asrwt>0</asrwt>
<pdfrwt beam="1">  1       21 0.39241235E-01 0.43514788E+03</pdfrwt>
<pdfrwt beam="2">  1       21 0.26088749E-01 0.43514788E+03</pdfrwt>
<totfact> 0.81495424E+04</totfact>
</mgrwt>
</event>
<event>
 7    0  0.4775379E-002  0.4640002E+03  0.7546771E-02  0.1023627E+00
         21   -1    0    0  502  501  0.00000000000E+00  0.00000000000E+00  0.11216137020E+03  0.11216137020E+03  0.00000000000E+00 0.  1.
         21   -1    0    0  501  502 -0.00000000000E+00 -0.00000000000E+00 -0.47988051718E+03  0.47988051718E+03  0.00000000000E+00 0.  1.
      99926    2    1    2    0    0  0.00000000000E+00  0.17763568394E-14 -0.36771914698E+03  0.59204188738E+03  0.46400024285E+03 0.  0.
      99925    2    3    3    0    0 -0.11756060423E+03  0.11699485605E+02 -0.26494798058E+03  0.39162533525E+03  0.26308857284E+03 0.  0.
         25    1    3    3    0    0  0.11756060423E+03 -0.11699485605E+02 -0.10277116639E+03  0.20041655214E+03  0.12509000000E+03 0.  0.
         25    1    4    4    0    0 -0.31625976672E+02 -0.23552009950E+02 -0.10177019570E+03  0.16601078401E+03  0.12509000000E+03 0.  0.
         25    1    4    4    0    0 -0.85934627554E+02  0.35251495554E+02 -0.16317778488E+03  0.22561455124E+03  0.12509000000E+03 0.  0.
<mgrwt>
<rscale>  2 0.46400024E+03</rscale>
<asrwt>0</asrwt>
<pdfrwt beam="1">  1       21 0.16494319E-01 0.46400024E+03</pdfrwt>
<pdfrwt beam="2">  1       21 0.70570665E-01 0.46400024E+03</pdfrwt>
<totfact> 0.55142461E+04</totfact>
</mgrwt>
</event>
<event>
 7    0  0.4775379E-002  0.4563227E+03  0.7546771E-02  0.1025853E+00
         21   -1    0    0  502  501  0.00000000000E+00  0.00000000000E+00  0.18206448990E+03  0.18206448990E+03  0.00000000000E+00 0.  1.
         21   -1    0    0  501  502 -0.00000000000E+00 -0.00000000000E+00 -0.28592942314E+03  0.28592942314E+03  0.00000000000E+00 0.  1.
      99926    2    1    2    0    0  0.00000000000E+00  0.00000000000E+00 -0.10386493324E+03  0.46799391304E+03  0.45632266905E+03 0.  0.
      99925    2    3    3    0    0  0.38555583299E+02  0.10681378688E+03 -0.79850091146E+02  0.29734826027E+03  0.26295290977E+03 0.  0.
         25    1    4    4    0    0  0.44623271944E+02  0.87670513237E+02 -0.34909280334E+02  0.16292182556E+03  0.12509000000E+03 0.  0.
         25    1    4    4    0    0 -0.60676886450E+01  0.19143273643E+02 -0.44940810812E+02  0.13442643471E+03  0.12509000000E+03 0.  0.
         25    1    3    3    0    0 -0.38555583299E+02 -0.10681378688E+03 -0.24014842095E+02  0.17064565278E+03  0.12509000000E+03 0.  0.
<mgrwt>
<rscale>  2 0.45632267E+03</rscale>
<asrwt>0</asrwt>
<pdfrwt beam="1">  1       21 0.26774190E-01 0.45632267E+03</pdfrwt>
<pdfrwt beam="2">  1       21 0.42048444E-01 0.45632267E+03</pdfrwt>
<totfact> 0.66881041E+04</totfact>
</mgrwt>
</event>
<event>
 7    0  0.4775379E-002  0.4577149E+03  0.7546771E-02  0.1025446E+00
         21   -1    0    0  502  501  0.00000000000E+00  0.00000000000E+00  0.26037267072E+03  0.26037267072E+03  0.00000000000E+00 0.  1.
         21   -1    0    0  501  502 -0.00000000000E+00 -0.00000000000E+00 -0.20115676590E+03  0.20115676590E+03  0.00000000000E+00 0.  1.
      99926    2    1    2    0    0 -0.14210854715E-13  0.71054273576E-14  0.59215904825E+02  0.46152943662E+03  0.45771486482E+03 0.  0.
      99925    2    3    3    0    0  0.81251283828E+02 -0.63696839624E+02  0.89974388923E+02  0.29644566714E+03  0.26291744788E+03 0.  0.
         25    1    4    4    0    0  0.44980697091E+02  0.60913024702E+01  0.58537028262E+02  0.14537695434E+03  0.12509000000E+03 0.  0.
         25    1    3    3    0    0 -0.81251283828E+02  0.63696839624E+02 -0.30758484098E+02  0.16508376948E+03  0.12509000000E+03 0.  0.
         25    1    4    4    0    0  0.36270586736E+02 -0.69788142094E+02  0.31437360661E+02  0.15106871279E+03  0.12509000000E+03 0.  0.
<mgrwt>
<rscale>  2 0.45771486E+03</rscale>
<asrwt>0</asrwt>
<pdfrwt beam="1">  1       21 0.38290099E-01 0.45771486E+03</pdfrwt>
<pdfrwt beam="2">  1       21 0.29581877E-01 0.45771486E+03</pdfrwt>
<totfact> 0.66615246E+04</totfact>
</mgrwt>
</event>
<event>
 7    0  0.4775379E-002  0.4575837E+03  0.7546771E-02  0.1025484E+00
         21   -1    0    0  502  501  0.00000000000E+00  0.00000000000E+00  0.12361477564E+04  0.12361477564E+04  0.00000000000E+00 0.  1.
         21   -1    0    0  501  502 -0.00000000000E+00 -0.00000000000E+00 -0.42345841550E+02  0.42345841550E+02  0.00000000000E+00 0.  1.
      99926    2    1    2    0    0  0.00000000000E+00  0.00000000000E+00  0.11938019149E+04  0.12784935980E+04  0.45758372797E+03 0.  0.
      99925    2    3    3    0    0 -0.66842673452E+02  0.90762575255E+02  0.67722211179E+03  0.73516313765E+03  0.26292444200E+03 0.  0.
         25    1    4    4    0    0 -0.29457887411E+02  0.41749720422E+02  0.43681455750E+03  0.45723656025E+03  0.12509000000E+03 0.  0.
         25    1    3    3    0    0  0.66842673452E+02 -0.90762575255E+02  0.51657980311E+03  0.54333046035E+03  0.12509000000E+03 0.  0.
         25    1    4    4    0    0 -0.37384786041E+02  0.49012854833E+02  0.24040755430E+03  0.27792657741E+03  0.12509000000E+03 0.  0.
<mgrwt>
<rscale>  2 0.45758373E+03</rscale>
<asrwt>0</asrwt>
<pdfrwt beam="1">  1       21 0.18178641E+00 0.45758373E+03</pdfrwt>
<pdfrwt beam="2">  1       21 0.62273304E-02 0.45758373E+03</pdfrwt>
<totfact> 0.29155150E+04</totfact>
</mgrwt>
</event>
<event>
 7    0  0.4775379E-002  0.4541916E+03  0.7546771E-02  0.1026479E+00
         21   -1    0    0  502  501  0.00000000000E+00  0.00000000000E+00  0.33878310244E+02  0.33878310244E+02  0.00000000000E+00 0.  1.
         21   -1    0    0  501  502 -0.00000000000E+00 -0.00000000000E+00 -0.15222867771E+04  0.15222867771E+04  0.00000000000E+00 0.  1.
      99926    2    1    2    0    0  0.00000000000E+00  0.00000000000E+00 -0.14884084668E+04  0.15561650873E+04  0.45419160588E+03 0.  0.
      99925    2    3    3    0    0 -0.94779685109E+02  0.59309859330E+02 -0.97012643342E+03  0.10114040182E+04  0.26323362851E+03 0.  0.
         25    1    3    3    0    0  0.94779685109E+02 -0.59309859330E+02 -0.51828203341E+03  0.54476106907E+03  0.12509000000E+03 0.  0.
         25    1    4    4    0    0 -0.35246172743E+02  0.62966092619E+02 -0.42179428419E+03  0.44583062680E+03  0.12509000000E+03 0.  0.
         25    1    4    4    0    0 -0.59533512366E+02 -0.36562332891E+01 -0.54833214923E+03  0.56557339145E+03  0.12509000000E+03 0.  0.
<mgrwt>
<rscale>  2 0.45419161E+03</rscale>
<asrwt>0</asrwt>
<pdfrwt beam="1">  1       21 0.49821043E-02 0.45419161E+03</pdfrwt>
<pdfrwt beam="2">  1       21 0.22386571E+00 0.45419161E+03</pdfrwt>
<totfact> 0.22577005E+04</totfact>
</mgrwt>
</event>
<event>
 7    0  0.4775379E-002  0.4546928E+03  0.7546771E-02  0.1026332E+00
         21   -1    0    0  502  501  0.00000000000E+00  0.00000000000E+00  0.34020680924E+03  0.34020680924E+03  0.00000000000E+00 0. -1.
         21   -1    0    0  501  502 -0.00000000000E+00 -0.00000000000E+00 -0.15192636976E+03  0.15192636976E+03  0.00000000000E+00 0. -1.
      99926    2    1    2    0    0 -0.26645352591E-14  0.14210854715E-13  0.18828043948E+03  0.49213317900E+03  0.45469279957E+03 0.  0.
      99925    2    3    3    0    0 -0.48768963783E+01  0.89761778011E+02  0.44587999612E+02  0.28147709367E+03  0.26298346648E+03 0.  0.
         25    1    4    4    0    0  0.12817898096E+02  0.62485830400E+01  0.11202566221E+02  0.12639758262E+03  0.12509000000E+03 0.  0.
         25    1    4    4    0    0 -0.17694794474E+02  0.83513194971E+02  0.33385433391E+02  0.15507951105E+03  0.12509000000E+03 0.  0.
         25    1    3    3    0    0  0.48768963783E+01 -0.89761778011E+02  0.14369243987E+03  0.21065608533E+03  0.12509000000E+03 0.  0.
<mgrwt>
<rscale>  2 0.45469280E+03</rscale>
<asrwt>0</asrwt>
<pdfrwt beam="1">  1       21 0.50030413E-01 0.45469280E+03</pdfrwt>
<pdfrwt beam="2">  1       21 0.22342113E-01 0.45469280E+03</pdfrwt>
<totfact> 0.65987716E+04</totfact>
</mgrwt>
</event>
<event>
 7    0  0.4775379E-002  0.4444928E+03  0.7546771E-02  0.1029377E+00
         21   -1    0    0  502  501  0.00000000000E+00  0.00000000000E+00  0.77986424174E+02  0.77986424174E+02  0.00000000000E+00 0. -1.
         21   -1    0    0  501  502 -0.00000000000E+00 -0.00000000000E+00 -0.63335981693E+03  0.63335981693E+03  0.00000000000E+00 0. -1.
      99926    2    1    2    0    0  0.00000000000E+00  0.00000000000E+00 -0.55537339275E+03  0.71134624110E+03  0.44449282261E+03 0.  0.
      99925    2    3    3    0    0 -0.98636945086E+02  0.29612957105E+02 -0.36818578931E+03  0.46377224985E+03  0.26252190406E+03 0.  0.
         25    1    4    4    0    0 -0.37834613299E+02  0.48760868006E+02 -0.21186286906E+03  0.25365816288E+03  0.12509000000E+03 0.  0.
         25    1    4    4    0    0 -0.60802331787E+02 -0.19147910901E+02 -0.15632292026E+03  0.21011408696E+03  0.12509000000E+03 0.  0.
         25    1    3    3    0    0  0.98636945086E+02 -0.29612957105E+02 -0.18718760344E+03  0.24757399125E+03  0.12509000000E+03 0.  0.
<mgrwt>
<rscale>  2 0.44449282E+03</rscale>
<asrwt>0</asrwt>
<pdfrwt beam="1">  1       21 0.11468592E-01 0.44449282E+03</pdfrwt>
<pdfrwt beam="2">  1       21 0.93141145E-01 0.44449282E+03</pdfrwt>
<totfact> 0.56846637E+04</totfact>
</mgrwt>
</event>
<event>
 7    0  0.4775379E-002  0.4550076E+03  0.7546771E-02  0.1026239E+00
         21   -1    0    0  502  501  0.00000000000E+00  0.00000000000E+00  0.26240446376E+03  0.26240446376E+03  0.00000000000E+00 0. -1.
         21   -1    0    0  501  502 -0.00000000000E+00 -0.00000000000E+00 -0.19724505412E+03  0.19724505412E+03  0.00000000000E+00 0. -1.
      99926    2    1    2    0    0  0.00000000000E+00  0.00000000000E+00  0.65159409639E+02  0.45964951789E+03  0.45500761601E+03 0.  0.
      99925    2    3    3    0    0 -0.64964422679E+02 -0.86435122051E+02  0.74975850264E+02  0.29401354008E+03  0.26292808349E+03 0.  0.
         25    1    3    3    0    0  0.64964422679E+02  0.86435122051E+02 -0.98164406249E+01  0.16563597781E+03  0.12509000000E+03 0.  0.
         25    1    4    4    0    0 -0.12328332485E+02 -0.54629178264E+02  0.71491306532E+02  0.15457959086E+03  0.12509000000E+03 0.  0.
         25    1    4    4    0    0 -0.52636090194E+02 -0.31805943787E+02  0.34845437322E+01  0.13943394922E+03  0.12509000000E+03 0.  0.
<mgrwt>
<rscale>  2 0.45500762E+03</rscale>
<asrwt>0</asrwt>
<pdfrwt beam="1">  1       21 0.38588892E-01 0.45500762E+03</pdfrwt>
<pdfrwt beam="2">  1       21 0.29006626E-01 0.45500762E+03</pdfrwt>
<totfact> 0.68201983E+04</totfact>
</mgrwt>
</event>
<event>
 7    0  0.4775379E-002  0.4545834E+03  0.7546771E-02  0.1026364E+00
         21   -1    0    0  502  501  0.00000000000E+00  0.00000000000E+00  0.48676036206E+03  0.48676036206E+03  0.00000000000E+00 0. -1.
         21   -1    0    0  501  502 -0.00000000000E+00 -0.00000000000E+00 -0.10613337917E+03  0.10613337917E+03  0.00000000000E+00 0. -1.
      99926    2    1    2    0    0 -0.14210854715E-13  0.00000000000E+00  0.38062698289E+03  0.59289374123E+03  0.45458342281E+03 0.  0.
      99925    2    3    3    0    0  0.86508270867E+02  0.69947208745E+02  0.26399712052E+03  0.38886843438E+03  0.26295985754E+03 0.  0.
         25    1    4    4    0    0  0.81095121440E+02  0.38617170771E+02  0.11805576840E+03  0.19404220456E+03  0.12509000000E+03 0.  0.
         25    1    4    4    0    0  0.54131494269E+01  0.31330037974E+02  0.14594135212E+03  0.19482622982E+03  0.12509000000E+03 0.  0.
         25    1    3    3    0    0 -0.86508270867E+02 -0.69947208745E+02  0.11662986237E+03  0.20402530685E+03  0.12509000000E+03 0.  0.
<mgrwt>
<rscale>  2 0.45458342E+03</rscale>
<asrwt>0</asrwt>
<pdfrwt beam="1">  1       21 0.71582405E-01 0.45458342E+03</pdfrwt>
<pdfrwt beam="2">  1       21 0.15607850E-01 0.45458342E+03</pdfrwt>
<totfact> 0.59312846E+04</totfact>
</mgrwt>
</event>
<event>
 7    0  0.4775379E-002  0.4510191E+03  0.7546771E-02  0.1027419E+00
         21   -1    0    0  502  501  0.00000000000E+00  0.00000000000E+00  0.80824704790E+02  0.80824704790E+02  0.00000000000E+00 0. -1.
         21   -1    0    0  501  502 -0.00000000000E+00 -0.00000000000E+00 -0.62919584475E+03  0.62919584475E+03  0.00000000000E+00 0. -1.
      99926    2    1    2    0    0  0.00000000000E+00  0.00000000000E+00 -0.54837113996E+03  0.71002054954E+03  0.45101914996E+03 0.  0.
      99925    2    3    3    0    0  0.89584759319E+02  0.34949794902E+02 -0.26392809245E+03  0.38474793673E+03  0.26291827546E+03 0.  0.
         25    1    4    4    0    0  0.26168625839E+02  0.20050683983E+02 -0.17643510061E+03  0.21877769478E+03  0.12509000000E+03 0.  0.
         25    1    3    3    0    0 -0.89584759319E+02 -0.34949794902E+02 -0.28444304751E+03  0.32527261280E+03  0.12509000000E+03 0.  0.
         25    1    4    4    0    0  0.63416133480E+02  0.14899110919E+02 -0.87492991837E+02  0.16597024195E+03  0.12509000000E+03 0.  0.
<mgrwt>
<rscale>  2 0.45101915E+03</rscale>
<asrwt>0</asrwt>
<pdfrwt beam="1">  1       21 0.11885986E-01 0.45101915E+03</pdfrwt>
<pdfrwt beam="2">  1       21 0.92528802E-01 0.45101915E+03</pdfrwt>
<totfact> 0.54034866E+04</totfact>
</mgrwt>
</event>
<event>
 7    0  0.4775379E-002  0.4917265E+03  0.7546771E-02  0.1015961E+00
         21   -1    0    0  502  501  0.00000000000E+00  0.00000000000E+00  0.31322556672E+02  0.31322556672E+02  0.00000000000E+00 0. -1.
         21   -1    0    0  501  502 -0.00000000000E+00 -0.00000000000E+00 -0.19298788029E+04  0.19298788029E+04  0.00000000000E+00 0. -1.
      99926    2    1    2    0    0  0.00000000000E+00  0.14210854715E-13 -0.18985562462E+04  0.19612013596E+04  0.49172650193E+03 0.  0.
      99925    2    3    3    0    0 -0.11559444687E+03  0.87016689193E+02 -0.11275430232E+04  0.11668192862E+04  0.26302090618E+03 0.  0.
         25    1    4    4    0    0 -0.50213792609E+02  0.44990115464E+02 -0.39923121344E+03  0.42376715935E+03  0.12509000000E+03 0.  0.
         25    1    3    3    0    0  0.11559444687E+03 -0.87016689193E+02 -0.77101322302E+03  0.79438207339E+03  0.12509000000E+03 0.  0.
         25    1    4    4    0    0 -0.65380654261E+02  0.42026573729E+02 -0.72831180979E+03  0.74305212686E+03  0.12509000000E+03 0.  0.
<mgrwt>
<rscale>  2 0.49172650E+03</rscale>
<asrwt>0</asrwt>
<pdfrwt beam="1">  1       21 0.46062571E-02 0.49172650E+03</pdfrwt>
<pdfrwt beam="2">  1       21 0.28380578E+00 0.49172650E+03</pdfrwt>
<totfact> 0.10899330E+04</totfact>
</mgrwt>
</event>
<event>
 7    0  0.4775379E-002  0.4537846E+03  0.7546771E-02  0.1026599E+00
         21   -1    0    0  502  501  0.00000000000E+00  0.00000000000E+00  0.77412223654E+02  0.77412223654E+02  0.00000000000E+00 0.  1.
         21   -1    0    0  501  502 -0.00000000000E+00 -0.00000000000E+00 -0.66501279164E+03  0.66501279164E+03  0.00000000000E+00 0.  1.
      99926    2    1    2    0    0  0.00000000000E+00 -0.71054273576E-14 -0.58760056799E+03  0.74242501529E+03  0.45378461393E+03 0.  0.
      99925    2    3    3    0    0 -0.27059717149E+02  0.57276068492E+02 -0.21902905327E+03  0.34808348074E+03  0.26301256068E+03 0.  0.
         25    1    4    4    0    0 -0.29104383238E+02  0.41225971852E+02 -0.67203664377E+02  0.15069998834E+03  0.12509000000E+03 0.  0.
         25    1    4    4    0    0  0.20446660893E+01  0.16050096640E+02 -0.15182538890E+03  0.19738349241E+03  0.12509000000E+03 0.  0.
         25    1    3    3    0    0  0.27059717149E+02 -0.57276068492E+02 -0.36857151471E+03  0.39434153455E+03  0.12509000000E+03 0.  0.
<mgrwt>
<rscale>  2 0.45378461E+03</rscale>
<asrwt>0</asrwt>
<pdfrwt beam="1">  1       21 0.11384151E-01 0.45378461E+03</pdfrwt>
<pdfrwt beam="2">  1       21 0.97795997E-01 0.45378461E+03</pdfrwt>
<totfact> 0.51146249E+04</totfact>
</mgrwt>
</event>
<event>
 7    0  0.4775379E-002  0.4516359E+03  0.7546771E-02  0.1027235E+00
         21   -1    0    0  502  501  0.00000000000E+00  0.00000000000E+00  0.57888589441E+03  0.57888589441E+03  0.00000000000E+00 0.  1.
         21   -1    0    0  501  502 -0.00000000000E+00 -0.00000000000E+00 -0.88089480271E+02  0.88089480271E+02  0.00000000000E+00 0.  1.
      99926    2    1    2    0    0  0.71054273576E-14  0.00000000000E+00  0.49079641414E+03  0.66697537468E+03  0.45163594886E+03 0.  0.
      99925    2    3    3    0    0 -0.57925497570E+02 -0.91783513657E+02  0.28320756811E+03  0.40141895178E+03  0.26296591332E+03 0.  0.
         25    1    3    3    0    0  0.57925497570E+02  0.91783513657E+02  0.20758884603E+03  0.26555642290E+03  0.12509000000E+03 0.  0.
         25    1    4    4    0    0 -0.46457720123E+02 -0.44180523095E+02  0.19625938138E+03  0.24140317161E+03  0.12509000000E+03 0.  0.
         25    1    4    4    0    0 -0.11467777447E+02 -0.47602990562E+02  0.86948186724E+02  0.16001578017E+03  0.12509000000E+03 0.  0.
<mgrwt>
<rscale>  2 0.45163595E+03</rscale>
<asrwt>0</asrwt>
<pdfrwt beam="1">  1       21 0.85130277E-01 0.45163595E+03</pdfrwt>
<pdfrwt beam="2">  1       21 0.12954336E-01 0.45163595E+03</pdfrwt>
<totfact> 0.56208750E+04</totfact>
</mgrwt>
</event>
<event>
 7    0  0.4775379E-002  0.4412703E+03  0.7546771E-02  0.1030358E+00
         21   -1    0    0  502  501  0.00000000000E+00  0.00000000000E+00  0.31947386428E+02  0.31947386428E+02  0.00000000000E+00 0. -1.
         21   -1    0    0  501  502 -0.00000000000E+00 -0.00000000000E+00 -0.15237509773E+04  0.15237509773E+04  0.00000000000E+00 0. -1.
      99926    2    1    2    0    0  0.00000000000E+00  0.66613381478E-15 -0.14918035909E+04  0.15556983637E+04  0.44127026318E+03 0.  0.
      99925    2    3    3    0    0  0.87984896538E+02  0.14511469084E+01 -0.11161942446E+04  0.11501452391E+04  0.26306088902E+03 0.  0.
         25    1    4    4    0    0  0.52144718239E+02  0.12692236660E+02 -0.72664739968E+03  0.73928622067E+03  0.12509000000E+03 0.  0.
         25    1    4    4    0    0  0.35840178299E+02 -0.11241089752E+02 -0.38954684497E+03  0.41085901841E+03  0.12509000000E+03 0.  0.
         25    1    3    3    0    0 -0.87984896538E+02 -0.14511469084E+01 -0.37560934624E+03  0.40555312467E+03  0.12509000000E+03 0.  0.
<mgrwt>
<rscale>  2 0.44127026E+03</rscale>
<asrwt>0</asrwt>
<pdfrwt beam="1">  1       21 0.46981455E-02 0.44127026E+03</pdfrwt>
<pdfrwt beam="2">  1       21 0.22408101E+00 0.44127026E+03</pdfrwt>
<totfact> 0.25008831E+04</totfact>
</mgrwt>
</event>
<event>
 7    0  0.4775379E-002  0.4540994E+03  0.7546771E-02  0.1026507E+00
         21   -1    0    0  502  501  0.00000000000E+00  0.00000000000E+00  0.48646261690E+02  0.48646261690E+02  0.00000000000E+00 0. -1.
         21   -1    0    0  501  502 -0.00000000000E+00 -0.00000000000E+00 -0.10597230626E+04  0.10597230626E+04  0.00000000000E+00 0. -1.
      99926    2    1    2    0    0 -0.88817841970E-15  0.00000000000E+00 -0.10110768009E+04  0.11083693243E+04  0.45409939627E+03 0.  0.
      99925    2    3    3    0    0  0.44520533289E+01  0.91361050970E+02 -0.47745893992E+03  0.55270558417E+03  0.26296342151E+03 0.  0.
         25    1    3    3    0    0 -0.44520533289E+01 -0.91361050970E+02 -0.53361786101E+03  0.55566374014E+03  0.12509000000E+03 0.  0.
         25    1    4    4    0    0 -0.14802087826E+02  0.60664252324E+02 -0.31392781856E+03  0.34365307605E+03  0.12509000000E+03 0.  0.
         25    1    4    4    0    0  0.19254141155E+02  0.30696798645E+02 -0.16353112136E+03  0.20905250812E+03  0.12509000000E+03 0.  0.
<mgrwt>
<rscale>  2 0.45409940E+03</rscale>
<asrwt>0</asrwt>
<pdfrwt beam="1">  1       21 0.71538626E-02 0.45409940E+03</pdfrwt>
<pdfrwt beam="2">  1       21 0.15584161E+00 0.45409940E+03</pdfrwt>
<totfact> 0.35451301E+04</totfact>
</mgrwt>
</event>
<event>
 7    0  0.4775379E-002  0.4643808E+03  0.7546771E-02  0.1023518E+00
         21   -1    0    0  502  501  0.00000000000E+00  0.00000000000E+00  0.91691905831E+02  0.91691905831E+02  0.00000000000E+00 0.  1.
         21   -1    0    0  501  502 -0.00000000000E+00 -0.00000000000E+00 -0.58797316775E+03  0.58797316775E+03  0.00000000000E+00 0.  1.
      99926    2    1    2    0    0  0.00000000000E+00  0.00000000000E+00 -0.49628126192E+03  0.67966507358E+03  0.46438079344E+03 0.  0.
      99925    2    3    3    0    0 -0.94715353506E+02 -0.70183819341E+02 -0.35440262007E+03  0.45678882137E+03  0.26297916938E+03 0.  0.
         25    1    4    4    0    0 -0.56577454421E+02 -0.46489807874E+01 -0.21220326856E+03  0.25278519865E+03  0.12509000000E+03 0.  0.
         25    1    4    4    0    0 -0.38137899085E+02 -0.65534838554E+02 -0.14219935152E+03  0.20400362272E+03  0.12509000000E+03 0.  0.
         25    1    3    3    0    0  0.94715353506E+02  0.70183819341E+02 -0.14187864184E+03  0.22287625221E+03  0.12509000000E+03 0.  0.
<mgrwt>
<rscale>  2 0.46438079E+03</rscale>
<asrwt>0</asrwt>
<pdfrwt beam="1">  1       21 0.13484104E-01 0.46438079E+03</pdfrwt>
<pdfrwt beam="2">  1       21 0.86466643E-01 0.46438079E+03</pdfrwt>
<totfact> 0.50205674E+04</totfact>
</mgrwt>
</event>
<event>
 7    0  0.4775379E-002  0.4584460E+03  0.7546771E-02  0.1025233E+00
         21   -1    0    0  502  501  0.00000000000E+00  0.00000000000E+00  0.15259789153E+03  0.15259789153E+03  0.00000000000E+00 0. -1.
         21   -1    0    0  501  502 -0.00000000000E+00 -0.00000000000E+00 -0.34432441542E+03  0.34432441542E+03  0.00000000000E+00 0. -1.
      99926    2    1    2    0    0  0.17763568394E-14  0.00000000000E+00 -0.19172652388E+03  0.49692230695E+03  0.45844598284E+03 0.  0.
      99925    2    3    3    0    0  0.67029019884E+01 -0.11540553139E+03 -0.10541623859E+03  0.30597640095E+03  0.26295552667E+03 0.  0.
         25    1    4    4    0    0  0.40845628491E+02 -0.62646783644E+02 -0.69443440378E+02  0.16144003338E+03  0.12509000000E+03 0.  0.
         25    1    4    4    0    0 -0.34142726502E+02 -0.52758747750E+02 -0.35972798210E+02  0.14453636756E+03  0.12509000000E+03 0.  0.
         25    1    3    3    0    0 -0.67029019884E+01  0.11540553139E+03 -0.86310285293E+02  0.19094590600E+03  0.12509000000E+03 0.  0.
<mgrwt>
<rscale>  2 0.45844598E+03</rscale>
<asrwt>0</asrwt>
<pdfrwt beam="1">  1       21 0.22440867E-01 0.45844598E+03</pdfrwt>
<pdfrwt beam="2">  1       21 0.50635943E-01 0.45844598E+03</pdfrwt>
<totfact> 0.63726201E+04</totfact>
</mgrwt>
</event>
<event>
 7    0  0.4775379E-002  0.4448664E+03  0.7546771E-02  0.1029264E+00
         21   -1    0    0  502  501  0.00000000000E+00  0.00000000000E+00  0.21307519356E+03  0.21307519356E+03  0.00000000000E+00 0. -1.
         21   -1    0    0  501  502 -0.00000000000E+00 -0.00000000000E+00 -0.23220220957E+03  0.23220220957E+03  0.00000000000E+00 0. -1.
      99926    2    1    2    0    0  0.71054273576E-14  0.00000000000E+00 -0.19127016009E+02  0.44527740313E+03  0.44486641028E+03 0.  0.
      99925    2    3    3    0    0 -0.47981416863E+02 -0.91381729359E+02 -0.78246629356E+01  0.28271022283E+03  0.26307985084E+03 0.  0.
         25    1    4    4    0    0 -0.27667850373E+01 -0.68252699949E+02 -0.30659026477E+02  0.14578604239E+03  0.12509000000E+03 0.  0.
         25    1    3    3    0    0  0.47981416863E+02  0.91381729359E+02 -0.11302353073E+02  0.16256718030E+03  0.12509000000E+03 0.  0.
         25    1    4    4    0    0 -0.45214631826E+02 -0.23129029410E+02  0.22834363541E+02  0.13692418045E+03  0.12509000000E+03 0.  0.
<mgrwt>
<rscale>  2 0.44486641E+03</rscale>
<asrwt>0</asrwt>
<pdfrwt beam="1">  1       21 0.31334587E-01 0.44486641E+03</pdfrwt>
<pdfrwt beam="2">  1       21 0.34147384E-01 0.44486641E+03</pdfrwt>
<totfact> 0.75159686E+04</totfact>
</mgrwt>
</event>
<event>
 7    0  0.4775379E-002  0.4652126E+03  0.7546771E-02  0.1023280E+00
         21   -1    0    0  502  501  0.00000000000E+00  0.00000000000E+00  0.63070711145E+02  0.63070711145E+02  0.00000000000E+00 0. -1.
         21   -1    0    0  501  502 -0.00000000000E+00 -0.00000000000E+00 -0.85785746330E+03  0.85785746330E+03  0.00000000000E+00 0. -1.
      99926    2    1    2    0    0  0.00000000000E+00  0.00000000000E+00 -0.79478675216E+03  0.92092817445E+03  0.46521255474E+03 0.  0.
      99925    2    3    3    0    0 -0.33835157507E+02  0.86337242899E+02 -0.33725353071E+03  0.43762382497E+03  0.26301279591E+03 0.  0.
         25    1    3    3    0    0  0.33835157507E+02 -0.86337242899E+02 -0.45753322145E+03  0.48330434948E+03  0.12509000000E+03 0.  0.
         25    1    4    4    0    0 -0.44576404130E+02  0.60352743679E+02 -0.21947442532E+03  0.26352616747E+03  0.12509000000E+03 0.  0.
         25    1    4    4    0    0  0.10741246623E+02  0.25984499220E+02 -0.11777910539E+03  0.17409765749E+03  0.12509000000E+03 0.  0.
<mgrwt>
<rscale>  2 0.46521255E+03</rscale>
<asrwt>0</asrwt>
<pdfrwt beam="1">  1       21 0.92751044E-02 0.46521255E+03</pdfrwt>
<pdfrwt beam="2">  1       21 0.12615551E+00 0.46521255E+03</pdfrwt>
<totfact> 0.39119231E+04</totfact>
</mgrwt>
</event>
<event>
 7    0  0.4775379E-002  0.4767968E+03  0.7546771E-02  0.1020019E+00
         21   -1    0    0  502  501  0.00000000000E+00  0.00000000000E+00  0.81914059347E+02  0.81914059347E+02  0.00000000000E+00 0.  1.
         21   -1    0    0  501  502 -0.00000000000E+00 -0.00000000000E+00 -0.69382214868E+03  0.69382214868E+03  0.00000000000E+00 0.  1.
      99926    2    1    2    0    0  0.00000000000E+00  0.71054273576E-14 -0.61190808933E+03  0.77573620803E+03  0.47679676452E+03 0.  0.
      99925    2    3    3    0    0  0.11669644564E+03  0.42813597337E+02 -0.30317394637E+03  0.42018685326E+03  0.26304274435E+03 0.  0.
         25    1    4    4    0    0  0.10155116680E+03  0.17648204393E+02 -0.15873680912E+03  0.22686776163E+03  0.12509000000E+03 0.  0.
         25    1    4    4    0    0  0.15145278840E+02  0.25165392945E+02 -0.14443713725E+03  0.19331909163E+03  0.12509000000E+03 0.  0.
         25    1    3    3    0    0 -0.11669644564E+03 -0.42813597337E+02 -0.30873414296E+03  0.35554935476E+03  0.12509000000E+03 0.  0.
<mgrwt>
<rscale>  2 0.47679676E+03</rscale>
<asrwt>0</asrwt>
<pdfrwt beam="1">  1       21 0.12046185E-01 0.47679676E+03</pdfrwt>
<pdfrwt beam="2">  1       21 0.10203267E+00 0.47679676E+03</pdfrwt>
<totfact> 0.41408424E+04</totfact>
</mgrwt>
</event>
<event>
 7    0  0.4775379E-002  0.4424384E+03  0.7546771E-02  0.1030001E+00
         21   -1    0    0  502  501  0.00000000000E+00  0.00000000000E+00  0.82908474578E+02  0.82908474578E+02  0.00000000000E+00 0. -1.
         21   -1    0    0  501  502 -0.00000000000E+00 -0.00000000000E+00 -0.59026462637E+03  0.59026462637E+03  0.00000000000E+00 0. -1.
      99926    2    1    2    0    0  0.00000000000E+00  0.00000000000E+00 -0.50735615179E+03  0.67317310095E+03  0.44243842405E+03 0.  0.
      99925    2    3    3    0    0 -0.65999113524E+02 -0.58081769694E+02 -0.24765240244E+03  0.37180468773E+03  0.26301642236E+03 0.  0.
         25    1    4    4    0    0 -0.21065332858E+02 -0.36079747410E+02 -0.71434477860E+02  0.14998629654E+03  0.12509000000E+03 0.  0.
         25    1    4    4    0    0 -0.44933780666E+02 -0.22002022284E+02 -0.17621792458E+03  0.22181839119E+03  0.12509000000E+03 0.  0.
         25    1    3    3    0    0  0.65999113524E+02  0.58081769694E+02 -0.25970374936E+03  0.30136841322E+03  0.12509000000E+03 0.  0.
<mgrwt>
<rscale>  2 0.44243842E+03</rscale>
<asrwt>0</asrwt>
<pdfrwt beam="1">  1       21 0.12192422E-01 0.44243842E+03</pdfrwt>
<pdfrwt beam="2">  1       21 0.86803625E-01 0.44243842E+03</pdfrwt>
<totfact> 0.60114524E+04</totfact>
</mgrwt>
</event>
<event>
 7    0  0.4775379E-002  0.4518544E+03  0.7546771E-02  0.1027170E+00
         21   -1    0    0  502  501  0.00000000000E+00  0.00000000000E+00  0.45460671641E+02  0.45460671641E+02  0.00000000000E+00 0. -1.
         21   -1    0    0  501  502 -0.00000000000E+00 -0.00000000000E+00 -0.11227970534E+04  0.11227970534E+04  0.00000000000E+00 0. -1.
      99926    2    1    2    0    0  0.14210854715E-13  0.14210854715E-13 -0.10773363817E+04  0.11682577250E+04  0.45185443746E+03 0.  0.
      99925    2    3    3    0    0  0.75598822691E+02  0.78032027866E+02 -0.63169409727E+03  0.69281189932E+03  0.26295763148E+03 0.  0.
         25    1    4    4    0    0  0.33547856541E+02  0.14442415725E+02 -0.21838356117E+03  0.25430872958E+03  0.12509000000E+03 0.  0.
         25    1    4    4    0    0  0.42050966150E+02  0.63589612141E+02 -0.41331053610E+03  0.43850316975E+03  0.12509000000E+03 0.  0.
         25    1    3    3    0    0 -0.75598822691E+02 -0.78032027866E+02 -0.44564228448E+03  0.47544582570E+03  0.12509000000E+03 0.  0.
<mgrwt>
<rscale>  2 0.45185444E+03</rscale>
<asrwt>0</asrwt>
<pdfrwt beam="1">  1       21 0.66853931E-02 0.45185444E+03</pdfrwt>
<pdfrwt beam="2">  1       21 0.16511721E+00 0.45185444E+03</pdfrwt>
<totfact> 0.34004468E+04</totfact>
</mgrwt>
</event>
<event>
 7    0  0.4775379E-002  0.4536703E+03  0.7546771E-02  0.1026633E+00
         21   -1    0    0  502  501  0.00000000000E+00  0.00000000000E+00  0.38515470591E+03  0.38515470591E+03  0.00000000000E+00 0.  1.
         21   -1    0    0  501  502 -0.00000000000E+00 -0.00000000000E+00 -0.13359352640E+03  0.13359352640E+03  0.00000000000E+00 0.  1.
      99926    2    1    2    0    0 -0.71054273576E-14  0.00000000000E+00  0.25156117951E+03  0.51874823231E+03  0.45367025634E+03 0.  0.
      99925    2    3    3    0    0 -0.57147351921E+02  0.90076209237E+02  0.12046211878E+03  0.30847694295E+03  0.26318692781E+03 0.  0.
         25    1    4    4    0    0 -0.22167468424E+02  0.86647105274E+02  0.72048823832E+02  0.16981654402E+03  0.12509000000E+03 0.  0.
         25    1    4    4    0    0 -0.34979883498E+02  0.34291039631E+01  0.48413294953E+02  0.13866039893E+03  0.12509000000E+03 0.  0.
         25    1    3    3    0    0  0.57147351921E+02 -0.90076209237E+02  0.13109906073E+03  0.21027128935E+03  0.12509000000E+03 0.  0.
<mgrwt>
<rscale>  2 0.45367026E+03</rscale>
<asrwt>0</asrwt>
<pdfrwt beam="1">  1       21 0.56640398E-01 0.45367026E+03</pdfrwt>
<pdfrwt beam="2">  1       21 0.19646107E-01 0.45367026E+03</pdfrwt>
<totfact> 0.64652029E+04</totfact>
</mgrwt>
</event>
<event>
 7    0  0.4775379E-002  0.4552725E+03  0.7546771E-02  0.1026161E+00
         21   -1    0    0  502  501  0.00000000000E+00  0.00000000000E+00  0.33777128624E+03  0.33777128624E+03  0.00000000000E+00 0.  1.
         21   -1    0    0  501  502 -0.00000000000E+00 -0.00000000000E+00 -0.15341231087E+03  0.15341231087E+03  0.00000000000E+00 0.  1.
      99926    2    1    2    0    0  0.00000000000E+00  0.00000000000E+00  0.18435897537E+03  0.49118359711E+03  0.45527254943E+03 0.  0.
      99925    2    3    3    0    0 -0.66987780783E+02 -0.73583159418E+02  0.17453464442E+03  0.33104031844E+03  0.26310360356E+03 0.  0.
         25    1    4    4    0    0 -0.14770009003E+02  0.22255296599E+01  0.77315209463E+02  0.14781155524E+03  0.12509000000E+03 0.  0.
         25    1    3    3    0    0  0.66987780783E+02  0.73583159418E+02  0.98243309504E+01  0.16014327867E+03  0.12509000000E+03 0.  0.
         25    1    4    4    0    0 -0.52217771780E+02 -0.75808689078E+02  0.97219434954E+02  0.18322876320E+03  0.12509000000E+03 0.  0.
<mgrwt>
<rscale>  2 0.45527255E+03</rscale>
<asrwt>0</asrwt>
<pdfrwt beam="1">  1       21 0.49672248E-01 0.45527255E+03</pdfrwt>
<pdfrwt beam="2">  1       21 0.22560634E-01 0.45527255E+03</pdfrwt>
<totfact> 0.65752201E+04</totfact>
</mgrwt>
</event>
<event>
 7    0  0.4775379E-002  0.4676661E+03  0.7546771E-02  0.1022581E+00
         21   -1    0    0  502  501  0.00000000000E+00  0.00000000000E+00  0.33620403903E+03  0.33620403903E+03  0.00000000000E+00 0.  1.
         21   -1    0    0  501  502 -0.00000000000E+00 -0.00000000000E+00 -0.16263304192E+03  0.16263304192E+03  0.00000000000E+00 0.  1.
      99926    2    1    2    0    0  0.71054273576E-14 -0.14210854715E-13  0.17357099711E+03  0.49883708094E+03  0.46766605852E+03 0.  0.
      99925    2    3    3    0    0  0.42430238278E+02 -0.11438802410E+03  0.80701230632E+02  0.30095517979E+03  0.26301404229E+03 0.  0.
         25    1    4    4    0    0  0.34735032165E+02 -0.16754419429E+02  0.41521503839E+02  0.13732726026E+03  0.12509000000E+03 0.  0.
         25    1    3    3    0    0 -0.42430238278E+02  0.11438802410E+03  0.92869766476E+02  0.19788190115E+03  0.12509000000E+03 0.  0.
         25    1    4    4    0    0  0.76952061130E+01 -0.97633604673E+02  0.39179726793E+02  0.16362791953E+03  0.12509000000E+03 0.  0.
<mgrwt>
<rscale>  2 0.46766606E+03</rscale>
<asrwt>0</asrwt>
<pdfrwt beam="1">  1       21 0.49441770E-01 0.46766606E+03</pdfrwt>
<pdfrwt beam="2">  1       21 0.23916624E-01 0.46766606E+03</pdfrwt>
<totfact> 0.59174787E+04</totfact>
</mgrwt>
</event>
<event>
 7    0  0.4775379E-002  0.4535481E+03  0.7546771E-02  0.1026669E+00
         21   -1    0    0  502  501  0.00000000000E+00  0.00000000000E+00  0.51047050527E+02  0.51047050527E+02  0.00000000000E+00 0.  1.
         21   -1    0    0  501  502 -0.00000000000E+00 -0.00000000000E+00 -0.10074325512E+04  0.10074325512E+04  0.00000000000E+00 0.  1.
      99926    2    1    2    0    0  0.00000000000E+00 -0.35527136788E-14 -0.95638550066E+03  0.10584796017E+04  0.45354805850E+03 0.  0.
      99925    2    3    3    0    0  0.88853224209E+02  0.21633655530E+02 -0.45208685565E+03  0.53091203072E+03  0.26291091421E+03 0.  0.
         25    1    3    3    0    0 -0.88853224209E+02 -0.21633655530E+02 -0.50429864501E+03  0.52756757100E+03  0.12509000000E+03 0.  0.
         25    1    4    4    0    0  0.70453834981E+02  0.37718052950E+02 -0.20775987271E+03  0.25533912193E+03  0.12509000000E+03 0.  0.
         25    1    4    4    0    0  0.18399389228E+02 -0.16084397419E+02 -0.24432698294E+03  0.27557290879E+03  0.12509000000E+03 0.  0.
<mgrwt>
<rscale>  2 0.45354806E+03</rscale>
<asrwt>0</asrwt>
<pdfrwt beam="1">  1       21 0.75069196E-02 0.45354806E+03</pdfrwt>
<pdfrwt beam="2">  1       21 0.14815184E+00 0.45354806E+03</pdfrwt>
<totfact> 0.37389673E+04</totfact>
</mgrwt>
</event>
<event>
 7    0  0.4775379E-002  0.4515145E+03  0.7546771E-02  0.1027271E+00
         21   -1    0    0  502  501  0.00000000000E+00  0.00000000000E+00  0.55199949516E+03  0.55199949516E+03  0.00000000000E+00 0. -1.
         21   -1    0    0  501  502 -0.00000000000E+00 -0.00000000000E+00 -0.92330393428E+02  0.92330393428E+02  0.00000000000E+00 0. -1.
      99926    2    1    2    0    0  0.00000000000E+00  0.00000000000E+00  0.45966910173E+03  0.64432988859E+03  0.45151447623E+03 0.  0.
      99925    2    3    3    0    0  0.50195848899E+02 -0.96510636673E+02  0.26927262347E+03  0.39187741133E+03  0.26310878648E+03 0.  0.
         25    1    4    4    0    0 -0.11625696431E+02 -0.54709732607E+02  0.15390565734E+03  0.20606496821E+03  0.12509000000E+03 0.  0.
         25    1    4    4    0    0  0.61821545330E+02 -0.41800904065E+02  0.11536696613E+03  0.18581244313E+03  0.12509000000E+03 0.  0.
         25    1    3    3    0    0 -0.50195848899E+02  0.96510636673E+02  0.19039647826E+03  0.25245247725E+03  0.12509000000E+03 0.  0.
<mgrwt>
<rscale>  2 0.45151448E+03</rscale>
<asrwt>0</asrwt>
<pdfrwt beam="1">  1       21 0.81176395E-01 0.45151448E+03</pdfrwt>
<pdfrwt beam="2">  1       21 0.13577999E-01 0.45151448E+03</pdfrwt>
<totfact> 0.57597066E+04</totfact>
</mgrwt>
</event>
<event>
 7    0  0.4775379E-002  0.4561635E+03  0.7546771E-02  0.1025900E+00
         21   -1    0    0  502  501  0.00000000000E+00  0.00000000000E+00  0.13495916917E+03  0.13495916917E+03  0.00000000000E+00 0.  1.
         21   -1    0    0  501  502 -0.00000000000E+00 -0.00000000000E+00 -0.38545947394E+03  0.38545947394E+03  0.00000000000E+00 0.  1.
      99926    2    1    2    0    0  0.00000000000E+00  0.00000000000E+00 -0.25050030476E+03  0.52041864311E+03  0.45616352486E+03 0.  0.
      99925    2    3    3    0    0  0.49983558595E+02 -0.37587419093E+02 -0.26656100335E+03  0.37964711068E+03  0.26299427738E+03 0.  0.
         25    1    3    3    0    0 -0.49983558595E+02  0.37587419093E+02  0.16060698590E+02  0.14077153243E+03  0.12509000000E+03 0.  0.
         25    1    4    4    0    0  0.88762798858E+01 -0.36763913908E+02 -0.17856402246E+03  0.22127582770E+03  0.12509000000E+03 0.  0.
         25    1    4    4    0    0  0.41107278709E+02 -0.82350518546E+00 -0.87996980899E+02  0.15837128297E+03  0.12509000000E+03 0.  0.
<mgrwt>
<rscale>  2 0.45616352E+03</rscale>
<asrwt>0</asrwt>
<pdfrwt beam="1">  1       21 0.19846937E-01 0.45616352E+03</pdfrwt>
<pdfrwt beam="2">  1       21 0.56685216E-01 0.45616352E+03</pdfrwt>
<totfact> 0.63272648E+04</totfact>
</mgrwt>
</event>
<event>
 7    0  0.4775379E-002  0.4549041E+03  0.7546771E-02  0.1026270E+00
         21   -1    0    0  502  501  0.00000000000E+00  0.00000000000E+00  0.46949808599E+03  0.46949808599E+03  0.00000000000E+00 0.  1.
         21   -1    0    0  501  502 -0.00000000000E+00 -0.00000000000E+00 -0.11019096220E+03  0.11019096220E+03  0.00000000000E+00 0.  1.
      99926    2    1    2    0    0  0.00000000000E+00  0.00000000000E+00  0.35930712379E+03  0.57968904819E+03  0.45490414748E+03 0.  0.
      99925    2    3    3    0    0 -0.59057127858E+02 -0.25810815599E+02  0.10825284523E+03  0.29188755161E+03  0.26329778148E+03 0.  0.
         25    1    4    4    0    0 -0.91584553628E+01 -0.22980511537E+02  0.15754871911E+02  0.12848231514E+03  0.12509000000E+03 0.  0.
         25    1    3    3    0    0  0.59057127858E+02  0.25810815599E+02  0.25105427856E+03  0.28780149658E+03  0.12509000000E+03 0.  0.
         25    1    4    4    0    0 -0.49898672496E+02 -0.28303040623E+01  0.92497973320E+02  0.16340523647E+03  0.12509000000E+03 0.  0.
<mgrwt>
<rscale>  2 0.45490415E+03</rscale>
<asrwt>0</asrwt>
<pdfrwt beam="1">  1       21 0.69043835E-01 0.45490415E+03</pdfrwt>
<pdfrwt beam="2">  1       21 0.16204553E-01 0.45490415E+03</pdfrwt>
<totfact> 0.59991654E+04</totfact>
</mgrwt>
</event>
<event>
 7    0  0.4775379E-002  0.4594209E+03  0.7546771E-02  0.1024949E+00
         21   -1    0    0  502  501  0.00000000000E+00  0.00000000000E+00  0.12813465638E+03  0.12813465638E+03  0.00000000000E+00 0.  1.
         21   -1    0    0  501  502 -0.00000000000E+00 -0.00000000000E+00 -0.41180811359E+03  0.41180811359E+03  0.00000000000E+00 0.  1.
      99926    2    1    2    0    0  0.00000000000E+00  0.71054273576E-14 -0.28367345721E+03  0.53994276998E+03  0.45942090127E+03 0.  0.
      99925    2    3    3    0    0 -0.74132803872E+02 -0.41349216598E+02 -0.27284867910E+03  0.38838382354E+03  0.26304022958E+03 0.  0.
         25    1    4    4    0    0 -0.12803441251E+02 -0.38881154195E+02 -0.94356629783E+02  0.16194552770E+03  0.12509000000E+03 0.  0.
         25    1    3    3    0    0  0.74132803872E+02  0.41349216598E+02 -0.10824778110E+02  0.15155894643E+03  0.12509000000E+03 0.  0.
         25    1    4    4    0    0 -0.61329362621E+02 -0.24680624022E+01 -0.17849204932E+03  0.22643829584E+03  0.12509000000E+03 0.  0.
<mgrwt>
<rscale>  2 0.45942090E+03</rscale>
<asrwt>0</asrwt>
<pdfrwt beam="1">  1       21 0.18843332E-01 0.45942090E+03</pdfrwt>
<pdfrwt beam="2">  1       21 0.60560018E-01 0.45942090E+03</pdfrwt>
<totfact> 0.60394571E+04</totfact>
</mgrwt>
</event>
<event>
 7    0  0.4775379E-002  0.4495281E+03  0.7546771E-02  0.1027863E+00
         21   -1    0    0  502  501  0.00000000000E+00  0.00000000000E+00  0.68694966933E+02  0.68694966933E+02  0.00000000000E+00 0.  1.
         21   -1    0    0  501  502 -0.00000000000E+00 -0.00000000000E+00 -0.73540880664E+03  0.73540880664E+03  0.00000000000E+00 0.  1.
      99926    2    1    2    0    0  0.00000000000E+00  0.00000000000E+00 -0.66671383971E+03  0.80410377357E+03  0.44952812439E+03 0.  0.
      99925    2    3    3    0    0  0.11654287472E+02 -0.58902459011E+02 -0.58235643524E+03  0.64171842361E+03  0.26278926052E+03 0.  0.
         25    1    4    4    0    0 -0.25353567210E+02 -0.41988245191E+02 -0.24151088145E+03  0.27637081985E+03  0.12509000000E+03 0.  0.
         25    1    4    4    0    0  0.37007854681E+02 -0.16914213820E+02 -0.34084555379E+03  0.36534760376E+03  0.12509000000E+03 0.  0.
         25    1    3    3    0    0 -0.11654287472E+02  0.58902459011E+02 -0.84357404468E+02  0.16238534996E+03  0.12509000000E+03 0.  0.
<mgrwt>
<rscale>  2 0.44952812E+03</rscale>
<asrwt>0</asrwt>
<pdfrwt beam="1">  1       21 0.10102200E-01 0.44952812E+03</pdfrwt>
<pdfrwt beam="2">  1       21 0.10814836E+00 0.44952812E+03</pdfrwt>
<totfact> 0.49665544E+04</totfact>
</mgrwt>
</event>
<event>
 7    0  0.4775379E-002  0.4570004E+03  0.7546771E-02  0.1025655E+00
         21   -1    0    0  502  501  0.00000000000E+00  0.00000000000E+00  0.18752932398E+03  0.18752932398E+03  0.00000000000E+00 0. -1.
         21   -1    0    0  501  502 -0.00000000000E+00 -0.00000000000E+00 -0.27842224487E+03  0.27842224487E+03  0.00000000000E+00 0. -1.
      99926    2    1    2    0    0  0.00000000000E+00  0.17763568394E-14 -0.90892920883E+02  0.46595156885E+03  0.45700037357E+03 0.  0.
      99925    2    3    3    0    0  0.10582633937E+03 -0.11021282686E+02 -0.10160602276E+03  0.30138255163E+03  0.26303417228E+03 0.  0.
         25    1    3    3    0    0 -0.10582633937E+03  0.11021282686E+02  0.10713101881E+02  0.16456901722E+03  0.12509000000E+03 0.  0.
         25    1    4    4    0    0  0.44994560804E+02  0.25859331796E+02 -0.75754251248E+02  0.15517548204E+03  0.12509000000E+03 0.  0.
         25    1    4    4    0    0  0.60831778569E+02 -0.36880614482E+02 -0.25851771516E+02  0.14620706959E+03  0.12509000000E+03 0.  0.
<mgrwt>
<rscale>  2 0.45700037E+03</rscale>
<asrwt>0</asrwt>
<pdfrwt beam="1">  1       21 0.27577842E-01 0.45700037E+03</pdfrwt>
<pdfrwt beam="2">  1       21 0.40944447E-01 0.45700037E+03</pdfrwt>
<totfact> 0.66673132E+04</totfact>
</mgrwt>
</event>
<event>
 7    0  0.4775379E-002  0.4466950E+03  0.7546771E-02  0.1028712E+00
         21   -1    0    0  502  501  0.00000000000E+00  0.00000000000E+00  0.53756132999E+03  0.53756132999E+03  0.00000000000E+00 0. -1.
         21   -1    0    0  501  502 -0.00000000000E+00 -0.00000000000E+00 -0.92797052728E+02  0.92797052728E+02  0.00000000000E+00 0. -1.
      99926    2    1    2    0    0  0.00000000000E+00  0.00000000000E+00  0.44476427726E+03  0.63035838271E+03  0.44669500594E+03 0.  0.
      99925    2    3    3    0    0  0.97688253450E+02 -0.30041146519E+02  0.31682494765E+03  0.42429663103E+03  0.26306675636E+03 0.  0.
         25    1    3    3    0    0 -0.97688253450E+02  0.30041146519E+02  0.12793932961E+03  0.20606175168E+03  0.12509000000E+03 0.  0.
         25    1    4    4    0    0  0.62907654029E+02 -0.34349174746E+01  0.10756740708E+03  0.17659962276E+03  0.12509000000E+03 0.  0.
         25    1    4    4    0    0  0.34780599422E+02 -0.26606229044E+02  0.20925754057E+03  0.24769700827E+03  0.12509000000E+03 0.  0.
<mgrwt>
<rscale>  2 0.44669501E+03</rscale>
<asrwt>0</asrwt>
<pdfrwt beam="1">  1       21 0.79053136E-01 0.44669501E+03</pdfrwt>
<pdfrwt beam="2">  1       21 0.13646626E-01 0.44669501E+03</pdfrwt>
<totfact> 0.60731937E+04</totfact>
</mgrwt>
</event>
<event>
 7    0  0.4775379E-002  0.4552716E+03  0.7546771E-02  0.1026162E+00
         21   -1    0    0  502  501  0.00000000000E+00  0.00000000000E+00  0.15649193594E+03  0.15649193594E+03  0.00000000000E+00 0.  1.
         21   -1    0    0  501  502 -0.00000000000E+00 -0.00000000000E+00 -0.33112284428E+03  0.33112284428E+03  0.00000000000E+00 0.  1.
      99926    2    1    2    0    0  0.00000000000E+00  0.00000000000E+00 -0.17463090834E+03  0.48761478022E+03  0.45527158899E+03 0.  0.
      99925    2    3    3    0    0  0.71183052400E+02  0.16305219702E+02 -0.16919613416E+02  0.27348106549E+03  0.26300709634E+03 0.  0.
         25    1    4    4    0    0  0.78660711764E+01  0.32210671477E+02  0.10148141571E+02  0.12980714661E+03  0.12509000000E+03 0.  0.
         25    1    4    4    0    0  0.63316981223E+02 -0.15905451774E+02 -0.27067754987E+02  0.14367391888E+03  0.12509000000E+03 0.  0.
         25    1    3    3    0    0 -0.71183052400E+02 -0.16305219702E+02 -0.15771129492E+03  0.21413371473E+03  0.12509000000E+03 0.  0.
<mgrwt>
<rscale>  2 0.45527159E+03</rscale>
<asrwt>0</asrwt>
<pdfrwt beam="1">  1       21 0.23013520E-01 0.45527159E+03</pdfrwt>
<pdfrwt beam="2">  1       21 0.48694535E-01 0.45527159E+03</pdfrwt>
<totfact> 0.66007412E+04</totfact>
</mgrwt>
</event>
<event>
 7    0  0.4775379E-002  0.4511585E+03  0.7546771E-02  0.1027377E+00
         21   -1    0    0  502  501  0.00000000000E+00  0.00000000000E+00  0.10294014823E+03  0.10294014823E+03  0.00000000000E+00 0.  1.
         21   -1    0    0  501  502 -0.00000000000E+00 -0.00000000000E+00 -0.49432608014E+03  0.49432608014E+03  0.00000000000E+00 0.  1.
      99926    2    1    2    0    0  0.00000000000E+00  0.35527136788E-14 -0.39138593190E+03  0.59726622837E+03  0.45115850857E+03 0.  0.
      99925    2    3    3    0    0 -0.93015195433E+02 -0.23101300104E+02 -0.31607061237E+03  0.42260827091E+03  0.26365056796E+03 0.  0.
         25    1    3    3    0    0  0.93015195433E+02  0.23101300104E+02 -0.75315319535E+02  0.17465795746E+03  0.12509000000E+03 0.  0.
         25    1    4    4    0    0 -0.88257469723E+01  0.88247044360E+01 -0.15684090742E+03  0.20100335211E+03  0.12509000000E+03 0.  0.
         25    1    4    4    0    0 -0.84189448460E+02 -0.31926004540E+02 -0.15922970494E+03  0.22160491880E+03  0.12509000000E+03 0.  0.
<mgrwt>
<rscale>  2 0.45115851E+03</rscale>
<asrwt>0</asrwt>
<pdfrwt beam="1">  1       21 0.15138257E-01 0.45115851E+03</pdfrwt>
<pdfrwt beam="2">  1       21 0.72695010E-01 0.45115851E+03</pdfrwt>
<totfact> 0.60667519E+04</totfact>
</mgrwt>
</event>
<event>
 7    0  0.4775379E-002  0.4670953E+03  0.7546771E-02  0.1022743E+00
         21   -1    0    0  502  501  0.00000000000E+00  0.00000000000E+00  0.12178446775E+03  0.12178446775E+03  0.00000000000E+00 0. -1.
         21   -1    0    0  501  502 -0.00000000000E+00 -0.00000000000E+00 -0.44787742232E+03  0.44787742232E+03  0.00000000000E+00 0. -1.
      99926    2    1    2    0    0  0.00000000000E+00 -0.71054273576E-14 -0.32609295457E+03  0.56966189007E+03  0.46709533714E+03 0.  0.
      99925    2    3    3    0    0  0.65658254253E+02 -0.48921348070E+02 -0.89227428387E+02  0.28955996176E+03  0.26301926323E+03 0.  0.
         25    1    3    3    0    0 -0.65658254253E+02  0.48921348070E+02 -0.23686552618E+03  0.28010192831E+03  0.12509000000E+03 0.  0.
         25    1    4    4    0    0  0.46778124911E+02 -0.17771206966E+02 -0.57999348379E+01  0.13485234930E+03  0.12509000000E+03 0.  0.
         25    1    4    4    0    0  0.18880129341E+02 -0.31150141105E+02 -0.83427493549E+02  0.15470761247E+03  0.12509000000E+03 0.  0.
<mgrwt>
<rscale>  2 0.46709534E+03</rscale>
<asrwt>0</asrwt>
<pdfrwt beam="1">  1       21 0.17909480E-01 0.46709534E+03</pdfrwt>
<pdfrwt beam="2">  1       21 0.65864328E-01 0.46709534E+03</pdfrwt>
<totfact> 0.55120921E+04</totfact>
</mgrwt>
</event>
<event>
 7    0  0.4775379E-002  0.4535707E+03  0.7546771E-02  0.1026663E+00
         21   -1    0    0  502  501  0.00000000000E+00  0.00000000000E+00  0.10774235248E+04  0.10774235248E+04  0.00000000000E+00 0.  1.
         21   -1    0    0  501  502 -0.00000000000E+00 -0.00000000000E+00 -0.47735728268E+02  0.47735728268E+02  0.00000000000E+00 0.  1.
      99926    2    1    2    0    0 -0.14210854715E-13  0.00000000000E+00  0.10296877966E+04  0.11251592531E+04  0.45357070722E+03 0.  0.
      99925    2    3    3    0    0  0.65260972940E+02  0.73246521296E+02  0.78192013495E+03  0.83077791926E+03  0.26299963161E+03 0.  0.
         25    1    4    4    0    0 -0.28402503667E+01  0.48304911112E+02  0.42574514036E+03  0.44637188991E+03  0.12509000000E+03 0.  0.
         25    1    4    4    0    0  0.68101223306E+02  0.24941610184E+02  0.35617499459E+03  0.38440602935E+03  0.12509000000E+03 0.  0.
         25    1    3    3    0    0 -0.65260972940E+02 -0.73246521296E+02  0.24776766163E+03  0.29438133385E+03  0.12509000000E+03 0.  0.
<mgrwt>
<rscale>  2 0.45357071E+03</rscale>
<asrwt>0</asrwt>
<pdfrwt beam="1">  1       21 0.15844462E+00 0.45357071E+03</pdfrwt>
<pdfrwt beam="2">  1       21 0.70199607E-02 0.45357071E+03</pdfrwt>
<totfact> 0.35011135E+04</totfact>
</mgrwt>
</event>
<event>
 7    0  0.4775379E-002  0.4494033E+03  0.7546771E-02  0.1027900E+00
         21   -1    0    0  502  501  0.00000000000E+00  0.00000000000E+00  0.75351258835E+03  0.75351258835E+03  0.00000000000E+00 0.  1.
         21   -1    0    0  501  502 -0.00000000000E+00 -0.00000000000E+00 -0.67007282003E+02  0.67007282003E+02  0.00000000000E+00 0.  1.
      99926    2    1    2    0    0  0.00000000000E+00  0.35527136788E-14  0.68650530635E+03  0.82051987035E+03  0.44940329549E+03 0.  0.
      99925    2    3    3    0    0  0.64182186743E+02  0.21681362190E+02  0.28100366451E+03  0.39078911256E+03  0.26298980297E+03 0.  0.
         25    1    3    3    0    0 -0.64182186743E+02 -0.21681362190E+02  0.40550164183E+03  0.42973075779E+03  0.12509000000E+03 0.  0.
         25    1    4    4    0    0  0.52809572390E+02 -0.23766927969E+02  0.14930537926E+03  0.20320758395E+03  0.12509000000E+03 0.  0.
         25    1    4    4    0    0  0.11372614353E+02  0.45448290159E+02  0.13169828526E+03  0.18758152861E+03  0.12509000000E+03 0.  0.
<mgrwt>
<rscale>  2 0.44940330E+03</rscale>
<asrwt>0</asrwt>
<pdfrwt beam="1">  1       21 0.11081067E+00 0.44940330E+03</pdfrwt>
<pdfrwt beam="2">  1       21 0.98540125E-02 0.44940330E+03</pdfrwt>
<totfact> 0.48900634E+04</totfact>
</mgrwt>
</event>
<event>
 7    0  0.4775379E-002  0.4737957E+03  0.7546771E-02  0.1020854E+00
         21   -1    0    0  502  501  0.00000000000E+00  0.00000000000E+00  0.13414389739E+04  0.13414389739E+04  0.00000000000E+00 0. -1.
         21   -1    0    0  501  502 -0.00000000000E+00 -0.00000000000E+00 -0.41836119726E+02  0.41836119726E+02  0.00000000000E+00 0. -1.
      99926    2    1    2    0    0  0.44408920985E-15 -0.17763568394E-14  0.12996028542E+04  0.13832750937E+04  0.47379574299E+03 0.  0.
      99925    2    3    3    0    0 -0.34577429064E+01 -0.13898614830E+02  0.42793556960E+03  0.50256146788E+03  0.26312363974E+03 0.  0.
         25    1    4    4    0    0 -0.15195577958E+02 -0.70236005826E-01  0.14148604682E+03  0.18946429760E+03  0.12509000000E+03 0.  0.
         25    1    3    3    0    0  0.34577429064E+01  0.13898614830E+02  0.87166728463E+03  0.88071362580E+03  0.12509000000E+03 0.  0.
         25    1    4    4    0    0  0.11737835051E+02 -0.13828378824E+02  0.28644952278E+03  0.31309717027E+03  0.12509000000E+03 0.  0.
<mgrwt>
<rscale>  2 0.47379574E+03</rscale>
<asrwt>0</asrwt>
<pdfrwt beam="1">  1       21 0.19727041E+00 0.47379574E+03</pdfrwt>
<pdfrwt beam="2">  1       21 0.61523714E-02 0.47379574E+03</pdfrwt>
<totfact> 0.23202121E+04</totfact>
</mgrwt>
</event>
<event>
 7    0  0.4775379E-002  0.4434573E+03  0.7546771E-02  0.1029691E+00
         21   -1    0    0  502  501  0.00000000000E+00  0.00000000000E+00  0.12292423818E+04  0.12292423818E+04  0.00000000000E+00 0. -1.
         21   -1    0    0  501  502 -0.00000000000E+00 -0.00000000000E+00 -0.39995031926E+02  0.39995031926E+02  0.00000000000E+00 0. -1.
      99926    2    1    2    0    0  0.00000000000E+00  0.00000000000E+00  0.11892473499E+04  0.12692374137E+04  0.44345727327E+03 0.  0.
      99925    2    3    3    0    0  0.44402905351E+02  0.73027397729E+02  0.91569157229E+03  0.95653165687E+03  0.26297744427E+03 0.  0.
         25    1    3    3    0    0 -0.44402905351E+02 -0.73027397729E+02  0.27355577756E+03  0.31270575684E+03  0.12509000000E+03 0.  0.
         25    1    4    4    0    0  0.34880586705E+02  0.32529248136E+02  0.32865091890E+03  0.35487144420E+03  0.12509000000E+03 0.  0.
         25    1    4    4    0    0  0.95223186454E+01  0.40498149593E+02  0.58704065339E+03  0.60166021267E+03  0.12509000000E+03 0.  0.
<mgrwt>
<rscale>  2 0.44345727E+03</rscale>
<asrwt>0</asrwt>
<pdfrwt beam="1">  1       21 0.18077091E+00 0.44345727E+03</pdfrwt>
<pdfrwt beam="2">  1       21 0.58816232E-02 0.44345727E+03</pdfrwt>
<totfact> 0.32875929E+04</totfact>
</mgrwt>
</event>
<event>
 7    0  0.4775379E-002  0.4520507E+03  0.7546771E-02  0.1027112E+00
         21   -1    0    0  502  501  0.00000000000E+00  0.00000000000E+00  0.24196090364E+03  0.24196090364E+03  0.00000000000E+00 0. -1.
         21   -1    0    0  501  502 -0.00000000000E+00 -0.00000000000E+00 -0.21113933642E+03  0.21113933642E+03  0.00000000000E+00 0. -1.
      99926    2    1    2    0    0  0.00000000000E+00  0.00000000000E+00  0.30821567224E+02  0.45310024006E+03  0.45205072562E+03 0.  0.
      99925    2    3    3    0    0  0.85542100152E+02  0.55291348503E+02 -0.23433247370E+02  0.28290718167E+03  0.26289308139E+03 0.  0.
         25    1    4    4    0    0  0.70128104230E+02  0.28944830209E+02 -0.43417520516E+02  0.15260518794E+03  0.12509000000E+03 0.  0.
         25    1    3    3    0    0 -0.85542100152E+02 -0.55291348503E+02  0.54254814593E+02  0.17019305839E+03  0.12509000000E+03 0.  0.
         25    1    4    4    0    0  0.15413995922E+02  0.26346518294E+02  0.19984273146E+02  0.13030199373E+03  0.12509000000E+03 0.  0.
<mgrwt>
<rscale>  2 0.45205073E+03</rscale>
<asrwt>0</asrwt>
<pdfrwt beam="1">  1       21 0.35582486E-01 0.45205073E+03</pdfrwt>
<pdfrwt beam="2">  1       21 0.31049902E-01 0.45205073E+03</pdfrwt>
<totfact> 0.70325588E+04</totfact>
</mgrwt>
</event>
<event>
 7    0  0.4775379E-002  0.4585383E+03  0.7546771E-02  0.1025206E+00
         21   -1    0    0  502  501  0.00000000000E+00  0.00000000000E+00  0.13492103947E+03  0.13492103947E+03  0.00000000000E+00 0. -1.
         21   -1    0    0  501  502 -0.00000000000E+00 -0.00000000000E+00 -0.38959340150E+03  0.38959340150E+03  0.00000000000E+00 0. -1.
      99926    2    1    2    0    0 -0.71054273576E-14  0.00000000000E+00 -0.25467236203E+03  0.52451444098E+03  0.45853831553E+03 0.  0.
      99925    2    3    3    0    0  0.52591527384E+02 -0.10453895856E+02 -0.27793339996E+03  0.38644294980E+03  0.26308938775E+03 0.  0.
         25    1    4    4    0    0 -0.21472219486E+01  0.15505675354E+01 -0.91321527713E+02  0.15490043365E+03  0.12509000000E+03 0.  0.
         25    1    4    4    0    0  0.54738749333E+02 -0.12004463392E+02 -0.18661187224E+03  0.23154251614E+03  0.12509000000E+03 0.  0.
         25    1    3    3    0    0 -0.52591527384E+02  0.10453895856E+02  0.23261037926E+02  0.13807149118E+03  0.12509000000E+03 0.  0.
<mgrwt>
<rscale>  2 0.45853832E+03</rscale>
<asrwt>0</asrwt>
<pdfrwt beam="1">  1       21 0.19841330E-01 0.45853832E+03</pdfrwt>
<pdfrwt beam="2">  1       21 0.57293146E-01 0.45853832E+03</pdfrwt>
<totfact> 0.61826732E+04</totfact>
</mgrwt>
</event>
<event>
 7    0  0.4775379E-002  0.4327807E+03  0.7546771E-02  0.1032985E+00
         21   -1    0    0  502  501  0.00000000000E+00  0.00000000000E+00  0.52171257501E+03  0.52171257501E+03  0.00000000000E+00 0.  1.
         21   -1    0    0  501  502 -0.00000000000E+00 -0.00000000000E+00 -0.89752073220E+02  0.89752073220E+02  0.00000000000E+00 0.  1.
      99926    2    1    2    0    0  0.00000000000E+00  0.00000000000E+00  0.43196050179E+03  0.61146464823E+03  0.43278070767E+03 0.  0.
      99925    2    3    3    0    0  0.49184345184E+02  0.54915685054E+02  0.20255229677E+03  0.33996793571E+03  0.26289909112E+03 0.  0.
         25    1    4    4    0    0  0.51483895390E+02  0.10416108035E+02  0.71326360492E+02  0.15327767154E+03  0.12509000000E+03 0.  0.
         25    1    3    3    0    0 -0.49184345184E+02 -0.54915685054E+02  0.22940820502E+03  0.27149671252E+03  0.12509000000E+03 0.  0.
         25    1    4    4    0    0 -0.22995502063E+01  0.44499577019E+02  0.13122593628E+03  0.18669026418E+03  0.12509000000E+03 0.  0.
<mgrwt>
<rscale>  2 0.43278071E+03</rscale>
<asrwt>0</asrwt>
<pdfrwt beam="1">  1       21 0.76722436E-01 0.43278071E+03</pdfrwt>
<pdfrwt beam="2">  1       21 0.13198835E-01 0.43278071E+03</pdfrwt>
<totfact> 0.69373440E+04</totfact>
</mgrwt>
</event>
<event>
 7    0  0.4775379E-002  0.4673664E+03  0.7546771E-02  0.1022666E+00
         21   -1    0    0  502  501  0.00000000000E+00  0.00000000000E+00  0.12854776506E+04  0.12854776506E+04  0.00000000000E+00 0.  1.
         21   -1    0    0  501  502 -0.00000000000E+00 -0.00000000000E+00 -0.42480575432E+02  0.42480575432E+02  0.00000000000E+00 0.  1.
      99926    2    1    2    0    0  0.17763568394E-14  0.00000000000E+00  0.12429970752E+04  0.13279582260E+04  0.46736636722E+03 0.  0.
      99925    2    3    3    0    0  0.15992777731E+02 -0.88094093743E+02  0.52774307296E+03  0.59634894911E+03  0.26287445628E+03 0.  0.
         25    1    4    4    0    0  0.22808287529E+02 -0.15714674227E+02  0.30409244368E+03  0.32998013784E+03  0.12509000000E+03 0.  0.
         25    1    3    3    0    0 -0.15992777731E+02  0.88094093743E+02  0.71525400221E+03  0.73160927691E+03  0.12509000000E+03 0.  0.
         25    1    4    4    0    0 -0.68155097984E+01 -0.72379419516E+02  0.22365062927E+03  0.26636881127E+03  0.12509000000E+03 0.  0.
<mgrwt>
<rscale>  2 0.46736637E+03</rscale>
<asrwt>0</asrwt>
<pdfrwt beam="1">  1       21 0.18904081E+00 0.46736637E+03</pdfrwt>
<pdfrwt beam="2">  1       21 0.62471443E-02 0.46736637E+03</pdfrwt>
<totfact> 0.25746809E+04</totfact>
</mgrwt>
</event>
<event>
 7    0  0.4775379E-002  0.4499661E+03  0.7546771E-02  0.1027732E+00
         21   -1    0    0  502  501  0.00000000000E+00  0.00000000000E+00  0.29418553809E+03  0.29418553809E+03  0.00000000000E+00 0.  1.
         21   -1    0    0  501  502 -0.00000000000E+00 -0.00000000000E+00 -0.17205931988E+03  0.17205931988E+03  0.00000000000E+00 0.  1.
      99926    2    1    2    0    0 -0.88817841970E-15  0.00000000000E+00  0.12212621821E+03  0.46624485797E+03  0.44996605917E+03 0.  0.
      99925    2    3    3    0    0 -0.54678570594E+01 -0.98574846464E+02  0.31018224463E+02  0.28268268202E+03  0.26305982332E+03 0.  0.
         25    1    3    3    0    0  0.54678570594E+01  0.98574846464E+02  0.91107993744E+02  0.18356217595E+03  0.12509000000E+03 0.  0.
         25    1    4    4    0    0 -0.76395918828E+01 -0.50857363004E+02  0.56155311882E+02  0.14644371577E+03  0.12509000000E+03 0.  0.
         25    1    4    4    0    0  0.21717348234E+01 -0.47717483460E+02 -0.25137087420E+02  0.13623896625E+03  0.12509000000E+03 0.  0.
<mgrwt>
<rscale>  2 0.44996606E+03</rscale>
<asrwt>0</asrwt>
<pdfrwt beam="1">  1       21 0.43262579E-01 0.44996606E+03</pdfrwt>
<pdfrwt beam="2">  1       21 0.25302841E-01 0.44996606E+03</pdfrwt>
<totfact> 0.70489190E+04</totfact>
</mgrwt>
</event>
<event>
 7    0  0.4775379E-002  0.4213087E+03  0.7546771E-02  0.1036641E+00
         21   -1    0    0  502  501  0.00000000000E+00  0.00000000000E+00  0.27087689407E+03  0.27087689407E+03  0.00000000000E+00 0.  1.
         21   -1    0    0  501  502 -0.00000000000E+00 -0.00000000000E+00 -0.16382077606E+03  0.16382077606E+03  0.00000000000E+00 0.  1.
      99926    2    1    2    0    0 -0.71054273576E-14  0.71054273576E-14  0.10705611800E+03  0.43469767013E+03  0.42130873716E+03 0.  0.
      99925    2    3    3    0    0  0.62825241918E+02 -0.41660704560E+02  0.51239275106E+02  0.27834661200E+03  0.26299952048E+03 0.  0.
         25    1    4    4    0    0  0.19591455711E+02  0.14328141739E+02  0.55174868912E+01  0.12754243037E+03  0.12509000000E+03 0.  0.
         25    1    3    3    0    0 -0.62825241918E+02  0.41660704560E+02  0.55816842898E+02  0.15635105813E+03  0.12509000000E+03 0.  0.
         25    1    4    4    0    0  0.43233786207E+02 -0.55988846299E+02  0.45721788215E+02  0.15080418163E+03  0.12509000000E+03 0.  0.
<mgrwt>
<rscale>  2 0.42130874E+03</rscale>
<asrwt>0</asrwt>
<pdfrwt beam="1">  1       21 0.39834837E-01 0.42130874E+03</pdfrwt>
<pdfrwt beam="2">  1       21 0.24091291E-01 0.42130874E+03</pdfrwt>
<totfact> 0.92512239E+04</totfact>
</mgrwt>
</event>
<event>
 7    0  0.4775379E-002  0.4561378E+03  0.7546771E-02  0.1025907E+00
         21   -1    0    0  502  501  0.00000000000E+00  0.00000000000E+00  0.28110357453E+03  0.28110357453E+03  0.00000000000E+00 0. -1.
         21   -1    0    0  501  502 -0.00000000000E+00 -0.00000000000E+00 -0.18504009490E+03  0.18504009490E+03  0.00000000000E+00 0. -1.
      99926    2    1    2    0    0  0.00000000000E+00  0.00000000000E+00  0.96063479629E+02  0.46614366944E+03  0.45613783930E+03 0.  0.
      99925    2    3    3    0    0  0.72165867480E+02  0.67340120773E+02  0.11919829898E+03  0.30513021577E+03  0.26297073944E+03 0.  0.
         25    1    4    4    0    0  0.35473253591E+02  0.27766330168E+02  0.10249516260E+03  0.16787521338E+03  0.12509000000E+03 0.  0.
         25    1    4    4    0    0  0.36692613889E+02  0.39573790605E+02  0.16703136385E+02  0.13725500239E+03  0.12509000000E+03 0.  0.
         25    1    3    3    0    0 -0.72165867480E+02 -0.67340120773E+02 -0.23134819353E+02  0.16101345367E+03  0.12509000000E+03 0.  0.
<mgrwt>
<rscale>  2 0.45613784E+03</rscale>
<asrwt>0</asrwt>
<pdfrwt beam="1">  1       21 0.41338761E-01 0.45613784E+03</pdfrwt>
<pdfrwt beam="2">  1       21 0.27211779E-01 0.45613784E+03</pdfrwt>
<totfact> 0.67116388E+04</totfact>
</mgrwt>
</event>
<event>
 7    0  0.4775379E-002  0.4512627E+03  0.7546771E-02  0.1027346E+00
         21   -1    0    0  502  501  0.00000000000E+00  0.00000000000E+00  0.11261307228E+04  0.11261307228E+04  0.00000000000E+00 0.  1.
         21   -1    0    0  501  502 -0.00000000000E+00 -0.00000000000E+00 -0.45207447887E+02  0.45207447887E+02  0.00000000000E+00 0.  1.
      99926    2    1    2    0    0  0.00000000000E+00  0.00000000000E+00  0.10809232749E+04  0.11713381706E+04  0.45126265506E+03 0.  0.
      99925    2    3    3    0    0 -0.77022991504E+02  0.16912987896E+02  0.88058471643E+03  0.92233689258E+03  0.26278757623E+03 0.  0.
         25    1    3    3    0    0  0.77022991504E+02 -0.16912987896E+02  0.20033855844E+03  0.24900127807E+03  0.12509000000E+03 0.  0.
         25    1    4    4    0    0 -0.38502226962E+02  0.47216776621E+02  0.48480251402E+03  0.50437370190E+03  0.12509000000E+03 0.  0.
         25    1    4    4    0    0 -0.38520764542E+02 -0.30303788724E+02  0.39578220241E+03  0.41796319068E+03  0.12509000000E+03 0.  0.
<mgrwt>
<rscale>  2 0.45126266E+03</rscale>
<asrwt>0</asrwt>
<pdfrwt beam="1">  1       21 0.16560744E+00 0.45126266E+03</pdfrwt>
<pdfrwt beam="2">  1       21 0.66481548E-02 0.45126266E+03</pdfrwt>
<totfact> 0.34058961E+04</totfact>
</mgrwt>
</event>
<event>
 7    0  0.4775379E-002  0.4556033E+03  0.7546771E-02  0.1026064E+00
         21   -1    0    0  502  501  0.00000000000E+00  0.00000000000E+00  0.86979848325E+03  0.86979848325E+03  0.00000000000E+00 0. -1.
         21   -1    0    0  501  502 -0.00000000000E+00 -0.00000000000E+00 -0.59661629952E+02  0.59661629952E+02  0.00000000000E+00 0. -1.
      99926    2    1    2    0    0  0.14210854715E-13 -0.71054273576E-14  0.81013685330E+03  0.92946011320E+03  0.45560331535E+03 0.  0.
      99925    2    3    3    0    0  0.88716533340E+02 -0.54631162652E+02  0.41342705239E+03  0.50064621248E+03  0.26243001962E+03 0.  0.
         25    1    3    3    0    0 -0.88716533340E+02  0.54631162652E+02  0.39670980091E+03  0.42881390073E+03  0.12509000000E+03 0.  0.
         25    1    4    4    0    0  0.78556552505E+02 -0.50376577654E+02  0.21126709705E+03  0.26265990542E+03  0.12509000000E+03 0.  0.
         25    1    4    4    0    0  0.10159980834E+02 -0.42545849977E+01  0.20215995534E+03  0.23798630706E+03  0.12509000000E+03 0.  0.
<mgrwt>
<rscale>  2 0.45560332E+03</rscale>
<asrwt>0</asrwt>
<pdfrwt beam="1">  1       21 0.12791153E+00 0.45560332E+03</pdfrwt>
<pdfrwt beam="2">  1       21 0.87737696E-02 0.45560332E+03</pdfrwt>
<totfact> 0.41786409E+04</totfact>
</mgrwt>
</event>
<event>
 7    0  0.4775379E-002  0.4605413E+03  0.7546771E-02  0.1024624E+00
         21   -1    0    0  502  501  0.00000000000E+00  0.00000000000E+00  0.59329430520E+03  0.59329430520E+03  0.00000000000E+00 0.  1.
         21   -1    0    0  501  502 -0.00000000000E+00 -0.00000000000E+00 -0.89373125606E+02  0.89373125606E+02  0.00000000000E+00 0.  1.
      99926    2    1    2    0    0  0.55511151231E-15 -0.35527136788E-14  0.50392117959E+03  0.68266743080E+03  0.46054127485E+03 0.  0.
      99925    2    3    3    0    0 -0.52146049060E+00  0.30988782233E+02  0.14597030816E+03  0.30222438513E+03  0.26281489980E+03 0.  0.
         25    1    4    4    0    0 -0.92269652945E+01  0.14309287848E+02  0.11771516265E+03  0.17261013940E+03  0.12509000000E+03 0.  0.
         25    1    3    3    0    0  0.52146049060E+00 -0.30988782233E+02  0.35795087143E+03  0.38044304567E+03  0.12509000000E+03 0.  0.
         25    1    4    4    0    0  0.87055048039E+01  0.16679494386E+02  0.28255145513E+02  0.12961424572E+03  0.12509000000E+03 0.  0.
<mgrwt>
<rscale>  2 0.46054127E+03</rscale>
<asrwt>0</asrwt>
<pdfrwt beam="1">  1       21 0.87249161E-01 0.46054127E+03</pdfrwt>
<pdfrwt beam="2">  1       21 0.13143107E-01 0.46054127E+03</pdfrwt>
<totfact> 0.51566297E+04</totfact>
</mgrwt>
</event>
<event>
 7    0  0.4775379E-002  0.4554440E+03  0.7546771E-02  0.1026111E+00
         21   -1    0    0  502  501  0.00000000000E+00  0.00000000000E+00  0.49800528150E+02  0.49800528150E+02  0.00000000000E+00 0.  1.
         21   -1    0    0  501  502 -0.00000000000E+00 -0.00000000000E+00 -0.10413003039E+04  0.10413003039E+04  0.00000000000E+00 0.  1.
      99926    2    1    2    0    0  0.00000000000E+00  0.00000000000E+00 -0.99149977573E+03  0.10911008320E+04  0.45544398161E+03 0.  0.
      99925    2    3    3    0    0 -0.90355864532E+02  0.33172359326E+02 -0.76796226084E+03  0.81745669023E+03  0.26306808748E+03 0.  0.
         25    1    3    3    0    0  0.90355864532E+02 -0.33172359326E+02 -0.22353751489E+03  0.27364414180E+03  0.12509000000E+03 0.  0.
         25    1    4    4    0    0 -0.65355480261E+02  0.20798932996E+02 -0.29887202516E+03  0.33117356468E+03  0.12509000000E+03 0.  0.
         25    1    4    4    0    0 -0.25000384270E+02  0.12373426330E+02 -0.46909023568E+03  0.48628312556E+03  0.12509000000E+03 0.  0.
<mgrwt>
<rscale>  2 0.45544398E+03</rscale>
<asrwt>0</asrwt>
<pdfrwt beam="1">  1       21 0.73236078E-02 0.45544398E+03</pdfrwt>
<pdfrwt beam="2">  1       21 0.15313238E+00 0.45544398E+03</pdfrwt>
<totfact> 0.35680624E+04</totfact>
</mgrwt>
</event>
<event>
 7    0  0.4775379E-002  0.4566070E+03  0.7546771E-02  0.1025770E+00
         21   -1    0    0  502  501  0.00000000000E+00  0.00000000000E+00  0.41403042834E+03  0.41403042834E+03  0.00000000000E+00 0.  1.
         21   -1    0    0  501  502 -0.00000000000E+00 -0.00000000000E+00 -0.12589047232E+03  0.12589047232E+03  0.00000000000E+00 0.  1.
      99926    2    1    2    0    0  0.00000000000E+00  0.14210854715E-13  0.28813995602E+03  0.53992090066E+03  0.45660699153E+03 0.  0.
      99925    2    3    3    0    0 -0.71023608070E+02 -0.89378897488E+02  0.16846385618E+03  0.33254969438E+03  0.26301385548E+03 0.  0.
         25    1    4    4    0    0 -0.55578071332E+02 -0.77880370247E+02  0.70715024231E+02  0.17263370712E+03  0.12509000000E+03 0.  0.
         25    1    4    4    0    0 -0.15445536739E+02 -0.11498527241E+02  0.97748831945E+02  0.15991598726E+03  0.12509000000E+03 0.  0.
         25    1    3    3    0    0  0.71023608070E+02  0.89378897488E+02  0.11967609985E+03  0.20737120628E+03  0.12509000000E+03 0.  0.
<mgrwt>
<rscale>  2 0.45660699E+03</rscale>
<asrwt>0</asrwt>
<pdfrwt beam="1">  1       21 0.60886827E-01 0.45660699E+03</pdfrwt>
<pdfrwt beam="2">  1       21 0.18513305E-01 0.45660699E+03</pdfrwt>
<totfact> 0.61748449E+04</totfact>
</mgrwt>
</event>
<event>
 7    0  0.4775379E-002  0.4762502E+03  0.7546771E-02  0.1020171E+00
         21   -1    0    0  502  501  0.00000000000E+00  0.00000000000E+00  0.15781792407E+03  0.15781792407E+03  0.00000000000E+00 0.  1.
         21   -1    0    0  501  502 -0.00000000000E+00 -0.00000000000E+00 -0.35929735740E+03  0.35929735740E+03  0.00000000000E+00 0.  1.
      99926    2    1    2    0    0  0.00000000000E+00  0.00000000000E+00 -0.20147943332E+03  0.51711528147E+03  0.47625019924E+03 0.  0.
      99925    2    3    3    0    0 -0.67483282471E+02  0.39129249062E+02 -0.24025909392E+03  0.36468017488E+03  0.26302491554E+03 0.  0.
         25    1    4    4    0    0 -0.22264070798E+02  0.55796176720E+02 -0.14140195832E+03  0.19811845977E+03  0.12509000000E+03 0.  0.
         25    1    4    4    0    0 -0.45219211673E+02 -0.16666927659E+02 -0.98857135593E+02  0.16656171511E+03  0.12509000000E+03 0.  0.
         25    1    3    3    0    0  0.67483282471E+02 -0.39129249062E+02  0.38779660591E+02  0.15243510659E+03  0.12509000000E+03 0.  0.
<mgrwt>
<rscale>  2 0.47625020E+03</rscale>
<asrwt>0</asrwt>
<pdfrwt beam="1">  1       21 0.23208519E-01 0.47625020E+03</pdfrwt>
<pdfrwt beam="2">  1       21 0.52837846E-01 0.47625020E+03</pdfrwt>
<totfact> 0.54326534E+04</totfact>
</mgrwt>
</event>
<event>
 7    0  0.4775379E-002  0.4436256E+03  0.7546771E-02  0.1029640E+00
         21   -1    0    0  502  501  0.00000000000E+00  0.00000000000E+00  0.62323349254E+03  0.62323349254E+03  0.00000000000E+00 0.  1.
         21   -1    0    0  501  502 -0.00000000000E+00 -0.00000000000E+00 -0.78944591935E+02  0.78944591935E+02  0.00000000000E+00 0.  1.
      99926    2    1    2    0    0  0.17763568394E-14  0.00000000000E+00  0.54428890061E+03  0.70217808448E+03  0.44362557974E+03 0.  0.
      99925    2    3    3    0    0  0.95951863130E+01  0.97294006362E+02  0.39275843128E+03  0.48270785299E+03  0.26303896047E+03 0.  0.
         25    1    4    4    0    0 -0.39293073043E+01  0.68670459973E+01  0.18744341267E+03  0.22548866231E+03  0.12509000000E+03 0.  0.
         25    1    3    3    0    0 -0.95951863130E+01 -0.97294006362E+02  0.15153046933E+03  0.21947023149E+03  0.12509000000E+03 0.  0.
         25    1    4    4    0    0  0.13524493617E+02  0.90426960365E+02  0.20531501860E+03  0.25721919068E+03  0.12509000000E+03 0.  0.
<mgrwt>
<rscale>  2 0.44362558E+03</rscale>
<asrwt>0</asrwt>
<pdfrwt beam="1">  1       21 0.91651981E-01 0.44362558E+03</pdfrwt>
<pdfrwt beam="2">  1       21 0.11609499E-01 0.44362558E+03</pdfrwt>
<totfact> 0.57786016E+04</totfact>
</mgrwt>
</event>
<event>
 7    0  0.4775379E-002  0.4473134E+03  0.7546771E-02  0.1028526E+00
         21   -1    0    0  502  501  0.00000000000E+00  0.00000000000E+00  0.83859176451E+02  0.83859176451E+02  0.00000000000E+00 0. -1.
         21   -1    0    0  501  502 -0.00000000000E+00 -0.00000000000E+00 -0.59650374012E+03  0.59650374012E+03  0.00000000000E+00 0. -1.
      99926    2    1    2    0    0 -0.14210854715E-13 -0.28421709430E-13 -0.51264456367E+03  0.68036291657E+03  0.44731336844E+03 0.  0.
      99925    2    3    3    0    0  0.64244373527E+02  0.83165546044E+02 -0.30697279305E+03  0.41769919066E+03  0.26305222034E+03 0.  0.
         25    1    4    4    0    0  0.56972786472E+02  0.72660056285E+02 -0.14453910676E+03  0.21228387518E+03  0.12509000000E+03 0.  0.
         25    1    3    3    0    0 -0.64244373527E+02 -0.83165546044E+02 -0.20567177062E+03  0.26266372591E+03  0.12509000000E+03 0.  0.
         25    1    4    4    0    0  0.72715870553E+01  0.10505489759E+02 -0.16243368629E+03  0.20541531548E+03  0.12509000000E+03 0.  0.
<mgrwt>
<rscale>  2 0.44731337E+03</rscale>
<asrwt>0</asrwt>
<pdfrwt beam="1">  1       21 0.12332231E-01 0.44731337E+03</pdfrwt>
<pdfrwt beam="2">  1       21 0.87721141E-01 0.44731337E+03</pdfrwt>
<totfact> 0.57377176E+04</totfact>
</mgrwt>
</event>
<event>
 7    0  0.4775379E-002  0.4495532E+03  0.7546771E-02  0.1027855E+00
         21   -1    0    0  502  501  0.00000000000E+00  0.00000000000E+00  0.63584471517E+02  0.63584471517E+02  0.00000000000E+00 0.  1.
         21   -1    0    0  501  502 -0.00000000000E+00 -0.00000000000E+00 -0.79460466399E+03  0.79460466399E+03  0.00000000000E+00 0.  1.
      99926    2    1    2    0    0  0.71054273576E-14  0.00000000000E+00 -0.73102019247E+03  0.85818913550E+03  0.44955318984E+03 0.  0.
      99925    2    3    3    0    0 -0.61811739071E+02  0.83971397154E+02 -0.51618817572E+03  0.58861133570E+03  0.26294711471E+03 0.  0.
         25    1    3    3    0    0  0.61811739071E+02 -0.83971397154E+02 -0.21483201675E+03  0.26957779981E+03  0.12509000000E+03 0.  0.
         25    1    4    4    0    0  0.10261307866E+02  0.41572676568E+02 -0.23083825769E+03  0.26602141115E+03  0.12509000000E+03 0.  0.
         25    1    4    4    0    0 -0.72073046937E+02  0.42398720586E+02 -0.28534991802E+03  0.32258992454E+03  0.12509000000E+03 0.  0.
<mgrwt>
<rscale>  2 0.44955319E+03</rscale>
<asrwt>0</asrwt>
<pdfrwt beam="1">  1       21 0.93506579E-02 0.44955319E+03</pdfrwt>
<pdfrwt beam="2">  1       21 0.11685362E+00 0.44955319E+03</pdfrwt>
<totfact> 0.47053487E+04</totfact>
</mgrwt>
</event>
<event>
 7    0  0.4775379E-002  0.4556163E+03  0.7546771E-02  0.1026060E+00
         21   -1    0    0  502  501  0.00000000000E+00  0.00000000000E+00  0.49319312471E+03  0.49319312471E+03  0.00000000000E+00 0. -1.
         21   -1    0    0  501  502 -0.00000000000E+00 -0.00000000000E+00 -0.10522562256E+03  0.10522562256E+03  0.00000000000E+00 0. -1.
      99926    2    1    2    0    0  0.17763568394E-14 -0.71054273576E-14  0.38796750215E+03  0.59841874727E+03  0.45561630168E+03 0.  0.
      99925    2    3    3    0    0  0.11669355821E+02 -0.47156179815E+02  0.10878086269E+03  0.28865663385E+03  0.26292488854E+03 0.  0.
         25    1    3    3    0    0 -0.11669355821E+02  0.47156179815E+02  0.27918663946E+03  0.30976211342E+03  0.12509000000E+03 0.  0.
         25    1    4    4    0    0  0.22550729334E+02  0.80152333831E+01  0.73486253264E+02  0.14703916784E+03  0.12509000000E+03 0.  0.
         25    1    4    4    0    0 -0.10881373513E+02 -0.55171413199E+02  0.35294609426E+02  0.14161746601E+03  0.12509000000E+03 0.  0.
<mgrwt>
<rscale>  2 0.45561630E+03</rscale>
<asrwt>0</asrwt>
<pdfrwt beam="1">  1       21 0.72528399E-01 0.45561630E+03</pdfrwt>
<pdfrwt beam="2">  1       21 0.15474357E-01 0.45561630E+03</pdfrwt>
<totfact> 0.58490346E+04</totfact>
</mgrwt>
</event>
<event>
 7    0  0.4775379E-002  0.4585099E+03  0.7546771E-02  0.1025214E+00
         21   -1    0    0  502  501  0.00000000000E+00  0.00000000000E+00  0.15047361588E+03  0.15047361588E+03  0.00000000000E+00 0. -1.
         21   -1    0    0  501  502 -0.00000000000E+00 -0.00000000000E+00 -0.34928263470E+03  0.34928263470E+03  0.00000000000E+00 0. -1.
      99926    2    1    2    0    0  0.00000000000E+00  0.00000000000E+00 -0.19880901882E+03  0.49975625059E+03  0.45850985162E+03 0.  0.
      99925    2    3    3    0    0 -0.10695738722E+03  0.42862394062E+02 -0.10644459834E+03  0.30622133959E+03  0.26299047283E+03 0.  0.
         25    1    3    3    0    0  0.10695738722E+03 -0.42862394062E+02 -0.92364420474E+02  0.19353491100E+03  0.12509000000E+03 0.  0.
         25    1    4    4    0    0 -0.75835959125E+02  0.28263332752E+02 -0.93391153679E+02  0.17583891594E+03  0.12509000000E+03 0.  0.
         25    1    4    4    0    0 -0.31121428094E+02  0.14599061310E+02 -0.13053444663E+02  0.13038242364E+03  0.12509000000E+03 0.  0.
<mgrwt>
<rscale>  2 0.45850985E+03</rscale>
<asrwt>0</asrwt>
<pdfrwt beam="1">  1       21 0.22128473E-01 0.45850985E+03</pdfrwt>
<pdfrwt beam="2">  1       21 0.51365092E-01 0.45850985E+03</pdfrwt>
<totfact> 0.63500006E+04</totfact>
</mgrwt>
</event>
<event>
 7    0  0.4775379E-002  0.4462682E+03  0.7546771E-02  0.1028841E+00
         21   -1    0    0  502  501  0.00000000000E+00  0.00000000000E+00  0.39103222349E+03  0.39103222349E+03  0.00000000000E+00 0.  1.
         21   -1    0    0  501  502 -0.00000000000E+00 -0.00000000000E+00 -0.12732666233E+03  0.12732666233E+03  0.00000000000E+00 0.  1.
      99926    2    1    2    0    0  0.00000000000E+00  0.00000000000E+00  0.26370556116E+03  0.51835888581E+03  0.44626820581E+03 0.  0.
      99925    2    3    3    0    0 -0.15422220642E+02  0.35443802235E+02  0.54155435848E+02  0.27127009383E+03  0.26298392454E+03 0.  0.
         25    1    4    4    0    0 -0.45947303955E+02  0.10099851455E+02  0.15959672061E+02  0.13459339127E+03  0.12509000000E+03 0.  0.
         25    1    3    3    0    0  0.15422220642E+02 -0.35443802235E+02  0.20955012531E+03  0.24708879198E+03  0.12509000000E+03 0.  0.
         25    1    4    4    0    0  0.30525083314E+02  0.25343950780E+02  0.38195763788E+02  0.13667670256E+03  0.12509000000E+03 0.  0.
<mgrwt>
<rscale>  2 0.44626821E+03</rscale>
<asrwt>0</asrwt>
<pdfrwt beam="1">  1       21 0.57504739E-01 0.44626821E+03</pdfrwt>
<pdfrwt beam="2">  1       21 0.18724509E-01 0.44626821E+03</pdfrwt>
<totfact> 0.68630479E+04</totfact>
</mgrwt>
</event>
<event>
 7    0  0.4775379E-002  0.4490831E+03  0.7546771E-02  0.1027996E+00
         21   -1    0    0  502  501  0.00000000000E+00  0.00000000000E+00  0.72014718651E+03  0.72014718651E+03  0.00000000000E+00 0. -1.
         21   -1    0    0  501  502 -0.00000000000E+00 -0.00000000000E+00 -0.70011948285E+02  0.70011948285E+02  0.00000000000E+00 0. -1.
      99926    2    1    2    0    0 -0.14210854715E-13  0.00000000000E+00  0.65013523823E+03  0.79015913480E+03  0.44908309957E+03 0.  0.
      99925    2    3    3    0    0 -0.78639196517E+02  0.69829853002E+02  0.46076419319E+03  0.54002070833E+03  0.26126307067E+03 0.  0.
         25    1    4    4    0    0 -0.62829491028E+02  0.12899434032E+02  0.26961425191E+03  0.30406133143E+03  0.12509000000E+03 0.  0.
         25    1    3    3    0    0  0.78639196517E+02 -0.69829853002E+02  0.18937104504E+03  0.25013842647E+03  0.12509000000E+03 0.  0.
         25    1    4    4    0    0 -0.15809705489E+02  0.56930418970E+02  0.19114994128E+03  0.23595937689E+03  0.12509000000E+03 0.  0.
<mgrwt>
<rscale>  2 0.44908310E+03</rscale>
<asrwt>0</asrwt>
<pdfrwt beam="1">  1       21 0.10590399E+00 0.44908310E+03</pdfrwt>
<pdfrwt beam="2">  1       21 0.10295875E-01 0.44908310E+03</pdfrwt>
<totfact> 0.50551488E+04</totfact>
</mgrwt>
</event>
<event>
 7    0  0.4775379E-002  0.4515567E+03  0.7546771E-02  0.1027259E+00
         21   -1    0    0  502  501  0.00000000000E+00  0.00000000000E+00  0.69417113992E+02  0.69417113992E+02  0.00000000000E+00 0. -1.
         21   -1    0    0  501  502 -0.00000000000E+00 -0.00000000000E+00 -0.73434138751E+03  0.73434138751E+03  0.00000000000E+00 0. -1.
      99926    2    1    2    0    0  0.00000000000E+00 -0.71054273576E-14 -0.66492427352E+03  0.80375850150E+03  0.45155668440E+03 0.  0.
      99925    2    3    3    0    0  0.57419831364E+02  0.38237372170E+02 -0.57191567320E+03  0.63329665387E+03  0.26309310308E+03 0.  0.
         25    1    4    4    0    0 -0.55020813429E+01  0.37253987258E+02 -0.30732493183E+03  0.33393750058E+03  0.12509000000E+03 0.  0.
         25    1    3    3    0    0 -0.57419831364E+02 -0.38237372170E+02 -0.93008600320E+02  0.17046184763E+03  0.12509000000E+03 0.  0.
         25    1    4    4    0    0  0.62921912707E+02  0.98338491175E+00 -0.26459074137E+03  0.29935915329E+03  0.12509000000E+03 0.  0.
<mgrwt>
<rscale>  2 0.45155668E+03</rscale>
<asrwt>0</asrwt>
<pdfrwt beam="1">  1       21 0.10208399E-01 0.45155668E+03</pdfrwt>
<pdfrwt beam="2">  1       21 0.10799138E+00 0.45155668E+03</pdfrwt>
<totfact> 0.48891353E+04</totfact>
</mgrwt>
</event>
<event>
 7    0  0.4775379E-002  0.4558821E+03  0.7546771E-02  0.1025982E+00
         21   -1    0    0  502  501  0.00000000000E+00  0.00000000000E+00  0.39880676608E+03  0.39880676608E+03  0.00000000000E+00 0. -1.
         21   -1    0    0  501  502 -0.00000000000E+00 -0.00000000000E+00 -0.13028146928E+03  0.13028146928E+03  0.00000000000E+00 0. -1.
      99926    2    1    2    0    0 -0.71054273576E-14  0.00000000000E+00  0.26852529680E+03  0.52908823537E+03  0.45588214023E+03 0.  0.
      99925    2    3    3    0    0 -0.62016582136E+02 -0.49303045943E+02  0.73739519119E+02  0.28441323851E+03  0.26301430904E+03 0.  0.
         25    1    3    3    0    0  0.62016582136E+02  0.49303045943E+02  0.19478577768E+03  0.24467499685E+03  0.12509000000E+03 0.  0.
         25    1    4    4    0    0 -0.18048894231E+02 -0.52856489385E+02  0.10290367872E+02  0.13737893151E+03  0.12509000000E+03 0.  0.
         25    1    4    4    0    0 -0.43967687905E+02  0.35534434421E+01  0.63449151248E+02  0.14703430700E+03  0.12509000000E+03 0.  0.
<mgrwt>
<rscale>  2 0.45588214E+03</rscale>
<asrwt>0</asrwt>
<pdfrwt beam="1">  1       21 0.58648054E-01 0.45588214E+03</pdfrwt>
<pdfrwt beam="2">  1       21 0.19159040E-01 0.45588214E+03</pdfrwt>
<totfact> 0.62827850E+04</totfact>
</mgrwt>
</event>
<event>
 7    0  0.4775379E-002  0.4421841E+03  0.7546771E-02  0.1030079E+00
         21   -1    0    0  502  501  0.00000000000E+00  0.00000000000E+00  0.25127514375E+02  0.25127514375E+02  0.00000000000E+00 0. -1.
         21   -1    0    0  501  502 -0.00000000000E+00 -0.00000000000E+00 -0.19453453851E+04  0.19453453851E+04  0.00000000000E+00 0. -1.
      99926    2    1    2    0    0  0.00000000000E+00  0.00000000000E+00 -0.19202178707E+04  0.19704728994E+04  0.44218409799E+03 0.  0.
      99925    2    3    3    0    0  0.89575466981E+02  0.32411926804E+02 -0.13683589278E+04  0.13966522844E+04  0.26297747238E+03 0.  0.
         25    1    3    3    0    0 -0.89575466981E+02 -0.32411926804E+02 -0.55185894289E+03  0.57382061503E+03  0.12509000000E+03 0.  0.
         25    1    4    4    0    0  0.20126299915E+02 -0.17181298637E+02 -0.66442596670E+03  0.67661631542E+03  0.12509000000E+03 0.  0.
         25    1    4    4    0    0  0.69449167066E+02  0.49593225440E+02 -0.70393296109E+03  0.72003596898E+03  0.12509000000E+03 0.  0.
<mgrwt>
<rscale>  2 0.44218410E+03</rscale>
<asrwt>0</asrwt>
<pdfrwt beam="1">  1       21 0.36952236E-02 0.44218410E+03</pdfrwt>
<pdfrwt beam="2">  1       21 0.28608013E+00 0.44218410E+03</pdfrwt>
<totfact> 0.15702909E+04</totfact>
</mgrwt>
</event>
<event>
 7    0  0.4775379E-002  0.4558581E+03  0.7546771E-02  0.1025989E+00
         21   -1    0    0  502  501  0.00000000000E+00  0.00000000000E+00  0.90240206581E+03  0.90240206581E+03  0.00000000000E+00 0.  1.
         21   -1    0    0  501  502 -0.00000000000E+00 -0.00000000000E+00 -0.57570416728E+02  0.57570416728E+02  0.00000000000E+00 0.  1.
      99926    2    1    2    0    0  0.00000000000E+00  0.14210854715E-13  0.84483164909E+03  0.95997248254E+03  0.45585814893E+03 0.  0.
      99925    2    3    3    0    0 -0.75353016734E+01 -0.98130450676E+02  0.65217072786E+03  0.71006829132E+03  0.26302842802E+03 0.  0.
         25    1    4    4    0    0  0.18768732353E+02 -0.75580971314E+02  0.40343617528E+03  0.42950320624E+03  0.12509000000E+03 0.  0.
         25    1    3    3    0    0  0.75353016734E+01  0.98130450676E+02  0.19266092123E+03  0.24990419122E+03  0.12509000000E+03 0.  0.
         25    1    4    4    0    0 -0.26304034026E+02 -0.22549479363E+02  0.24873455257E+03  0.28056508508E+03  0.12509000000E+03 0.  0.
<mgrwt>
<rscale>  2 0.45585815E+03</rscale>
<asrwt>0</asrwt>
<pdfrwt beam="1">  1       21 0.13270618E+00 0.45585815E+03</pdfrwt>
<pdfrwt beam="2">  1       21 0.84662384E-02 0.45585815E+03</pdfrwt>
<totfact> 0.40467426E+04</totfact>
</mgrwt>
</event>
<event>
 7    0  0.4775379E-002  0.4540993E+03  0.7546771E-02  0.1026507E+00
         21   -1    0    0  502  501  0.00000000000E+00  0.00000000000E+00  0.13285157122E+03  0.13285157122E+03  0.00000000000E+00 0.  1.
         21   -1    0    0  501  502 -0.00000000000E+00 -0.00000000000E+00 -0.38803858900E+03  0.38803858900E+03  0.00000000000E+00 0.  1.
      99926    2    1    2    0    0 -0.14210854715E-13  0.00000000000E+00 -0.25518701778E+03  0.52089016022E+03  0.45409926775E+03 0.  0.
      99925    2    3    3    0    0 -0.86895423161E+02  0.61932899797E+02 -0.20106017956E+03  0.34778983856E+03  0.26295641722E+03 0.  0.
         25    1    3    3    0    0  0.86895423161E+02 -0.61932899797E+02 -0.54126838222E+02  0.17310032166E+03  0.12509000000E+03 0.  0.
         25    1    4    4    0    0 -0.17571451545E+01  0.31996159851E+02 -0.82381722900E+02  0.15317016084E+03  0.12509000000E+03 0.  0.
         25    1    4    4    0    0 -0.85138278007E+02  0.29936739946E+02 -0.11867845666E+03  0.19461967772E+03  0.12509000000E+03 0.  0.
<mgrwt>
<rscale>  2 0.45409927E+03</rscale>
<asrwt>0</asrwt>
<pdfrwt beam="1">  1       21 0.19536996E-01 0.45409927E+03</pdfrwt>
<pdfrwt beam="2">  1       21 0.57064498E-01 0.45409927E+03</pdfrwt>
<totfact> 0.64284791E+04</totfact>
</mgrwt>
</event>
<event>
 7    0  0.4775379E-002  0.4551784E+03  0.7546771E-02  0.1026189E+00
         21   -1    0    0  502  501  0.00000000000E+00  0.00000000000E+00  0.14620675950E+03  0.14620675950E+03  0.00000000000E+00 0. -1.
         21   -1    0    0  501  502 -0.00000000000E+00 -0.00000000000E+00 -0.35427113268E+03  0.35427113268E+03  0.00000000000E+00 0. -1.
      99926    2    1    2    0    0  0.00000000000E+00  0.00000000000E+00 -0.20806437318E+03  0.50047789218E+03  0.45517835754E+03 0.  0.
      99925    2    3    3    0    0 -0.10881750536E+03 -0.31178387885E+02 -0.13756893437E+03  0.31763791751E+03  0.26297394090E+03 0.  0.
         25    1    4    4    0    0 -0.61121106828E+02 -0.58686879971E+00 -0.11032046253E+03  0.17763515043E+03  0.12509000000E+03 0.  0.
         25    1    3    3    0    0  0.10881750536E+03  0.31178387885E+02 -0.70495438809E+02  0.18283997467E+03  0.12509000000E+03 0.  0.
         25    1    4    4    0    0 -0.47696398536E+02 -0.30591519085E+02 -0.27248471839E+02  0.14000276708E+03  0.12509000000E+03 0.  0.
<mgrwt>
<rscale>  2 0.45517836E+03</rscale>
<asrwt>0</asrwt>
<pdfrwt beam="1">  1       21 0.21500994E-01 0.45517836E+03</pdfrwt>
<pdfrwt beam="2">  1       21 0.52098695E-01 0.45517836E+03</pdfrwt>
<totfact> 0.65144820E+04</totfact>
</mgrwt>
</event>
<event>
 7    0  0.4775379E-002  0.4573803E+03  0.7546771E-02  0.1025544E+00
         21   -1    0    0  502  501  0.00000000000E+00  0.00000000000E+00  0.42234361489E+03  0.42234361489E+03  0.00000000000E+00 0.  1.
         21   -1    0    0  501  502 -0.00000000000E+00 -0.00000000000E+00 -0.12383086308E+03  0.12383086308E+03  0.00000000000E+00 0.  1.
      99926    2    1    2    0    0  0.00000000000E+00  0.00000000000E+00  0.29851275181E+03  0.54617447797E+03  0.45738025471E+03 0.  0.
      99925    2    3    3    0    0 -0.61494647008E+02 -0.97346535195E+02  0.19620344738E+03  0.34774907285E+03  0.26301270954E+03 0.  0.
         25    1    4    4    0    0 -0.68241308673E+02 -0.60946211386E+02  0.87723140845E+02  0.17808473947E+03  0.12509000000E+03 0.  0.
         25    1    4    4    0    0  0.67466616650E+01 -0.36400323809E+02  0.10848030654E+03  0.16966433339E+03  0.12509000000E+03 0.  0.
         25    1    3    3    0    0  0.61494647008E+02  0.97346535195E+02  0.10230930442E+03  0.19842540512E+03  0.12509000000E+03 0.  0.
<mgrwt>
<rscale>  2 0.45738025E+03</rscale>
<asrwt>0</asrwt>
<pdfrwt beam="1">  1       21 0.62109355E-01 0.45738025E+03</pdfrwt>
<pdfrwt beam="2">  1       21 0.18210421E-01 0.45738025E+03</pdfrwt>
<totfact> 0.60963670E+04</totfact>
</mgrwt>
</event>
<event>
 7    0  0.4775379E-002  0.4579390E+03  0.7546771E-02  0.1025381E+00
         21   -1    0    0  502  501  0.00000000000E+00  0.00000000000E+00  0.81301063384E+03  0.81301063384E+03  0.00000000000E+00 0. -1.
         21   -1    0    0  501  502 -0.00000000000E+00 -0.00000000000E+00 -0.64485061685E+02  0.64485061685E+02  0.00000000000E+00 0. -1.
      99926    2    1    2    0    0  0.00000000000E+00  0.17763568394E-14  0.74852557215E+03  0.87749569552E+03  0.45793903906E+03 0.  0.
      99925    2    3    3    0    0 -0.10144344152E+03  0.49460913481E+01  0.57677371843E+03  0.64199316262E+03  0.26300582299E+03 0.  0.
         25    1    4    4    0    0 -0.82039903989E+02 -0.24763252646E+02  0.32473837103E+03  0.35839403210E+03  0.12509000000E+03 0.  0.
         25    1    3    3    0    0  0.10144344152E+03 -0.49460913481E+01  0.17175185372E+03  0.23550253290E+03  0.12509000000E+03 0.  0.
         25    1    4    4    0    0 -0.19403537532E+02  0.29709343994E+02  0.25203534740E+03  0.28359913052E+03  0.12509000000E+03 0.  0.
<mgrwt>
<rscale>  2 0.45793904E+03</rscale>
<asrwt>0</asrwt>
<pdfrwt beam="1">  1       21 0.11956038E+00 0.45793904E+03</pdfrwt>
<pdfrwt beam="2">  1       21 0.94830977E-02 0.45793904E+03</pdfrwt>
<totfact> 0.43217574E+04</totfact>
</mgrwt>
</event>
<event>
 7    0  0.4775379E-002  0.4748588E+03  0.7546771E-02  0.1020558E+00
         21   -1    0    0  502  501  0.00000000000E+00  0.00000000000E+00  0.23932631797E+02  0.23932631797E+02  0.00000000000E+00 0. -1.
         21   -1    0    0  501  502 -0.00000000000E+00 -0.00000000000E+00 -0.23554750203E+04  0.23554750203E+04  0.00000000000E+00 0. -1.
      99926    2    1    2    0    0  0.00000000000E+00  0.00000000000E+00 -0.23315423885E+04  0.23794076521E+04  0.47485878477E+03 0.  0.
      99925    2    3    3    0    0  0.10050715490E+03  0.83348900873E+02 -0.14847476352E+04  0.15135222152E+04  0.26310687618E+03 0.  0.
         25    1    4    4    0    0  0.21780518549E+02  0.70282631080E+02 -0.76344355493E+03  0.77711492643E+03  0.12509000000E+03 0.  0.
         25    1    3    3    0    0 -0.10050715490E+03 -0.83348900873E+02 -0.84679475328E+03  0.86588543685E+03  0.12509000000E+03 0.  0.
         25    1    4    4    0    0  0.78726636346E+02  0.13066269793E+02 -0.72130408028E+03  0.73640728881E+03  0.12509000000E+03 0.  0.
<mgrwt>
<rscale>  2 0.47485878E+03</rscale>
<asrwt>0</asrwt>
<pdfrwt beam="1">  1       21 0.35195065E-02 0.47485878E+03</pdfrwt>
<pdfrwt beam="2">  1       21 0.34639321E+00 0.47485878E+03</pdfrwt>
<totfact> 0.72590784E+03</totfact>
</mgrwt>
</event>
<event>
 7    0  0.4775379E-002  0.4549687E+03  0.7546771E-02  0.1026251E+00
         21   -1    0    0  502  501  0.00000000000E+00  0.00000000000E+00  0.48296540950E+03  0.48296540950E+03  0.00000000000E+00 0. -1.
         21   -1    0    0  501  502 -0.00000000000E+00 -0.00000000000E+00 -0.10714873807E+03  0.10714873807E+03  0.00000000000E+00 0. -1.
      99926    2    1    2    0    0  0.00000000000E+00  0.00000000000E+00  0.37581667144E+03  0.59011414757E+03  0.45496872050E+03 0.  0.
      99925    2    3    3    0    0 -0.64281512367E+02  0.74616556056E+02  0.30868849854E+03  0.41733265849E+03  0.26301751928E+03 0.  0.
         25    1    4    4    0    0 -0.20579438632E+02  0.12036020499E+02  0.19015197708E+03  0.22885292563E+03  0.12509000000E+03 0.  0.
         25    1    3    3    0    0  0.64281512367E+02 -0.74616556056E+02  0.67128172898E+02  0.17278148907E+03  0.12509000000E+03 0.  0.
         25    1    4    4    0    0 -0.43702073735E+02  0.62580535557E+02  0.11853652146E+03  0.18847973286E+03  0.12509000000E+03 0.  0.
<mgrwt>
<rscale>  2 0.45496872E+03</rscale>
<asrwt>0</asrwt>
<pdfrwt beam="1">  1       21 0.71024324E-01 0.45496872E+03</pdfrwt>
<pdfrwt beam="2">  1       21 0.15757168E-01 0.45496872E+03</pdfrwt>
<totfact> 0.59305589E+04</totfact>
</mgrwt>
</event>
<event>
 7    0  0.4775379E-002  0.4525149E+03  0.7546771E-02  0.1026975E+00
         21   -1    0    0  502  501  0.00000000000E+00  0.00000000000E+00  0.29544869260E+02  0.29544869260E+02  0.00000000000E+00 0. -1.
         21   -1    0    0  501  502 -0.00000000000E+00 -0.00000000000E+00 -0.17327013282E+04  0.17327013282E+04  0.00000000000E+00 0. -1.
      99926    2    1    2    0    0  0.00000000000E+00  0.71054273576E-14 -0.17031564590E+04  0.17622461975E+04  0.45251490233E+03 0.  0.
      99925    2    3    3    0    0  0.47803777340E+02 -0.53781278801E+02 -0.74911669093E+03  0.79735396818E+03  0.26347657745E+03 0.  0.
         25    1    4    4    0    0 -0.22453825498E+01 -0.58927126091E+02 -0.38127081602E+03  0.40557661568E+03  0.12509000000E+03 0.  0.
         25    1    4    4    0    0  0.50049159889E+02  0.51458472907E+01 -0.36784587491E+03  0.39177735251E+03  0.12509000000E+03 0.  0.
         25    1    3    3    0    0 -0.47803777340E+02  0.53781278801E+02 -0.95403976803E+03  0.96489222930E+03  0.12509000000E+03 0.  0.
<mgrwt>
<rscale>  2 0.45251490E+03</rscale>
<asrwt>0</asrwt>
<pdfrwt beam="1">  1       21 0.43448338E-02 0.45251490E+03</pdfrwt>
<pdfrwt beam="2">  1       21 0.25480901E+00 0.45251490E+03</pdfrwt>
<totfact> 0.18347732E+04</totfact>
</mgrwt>
</event>
<event>
 7    0  0.4775379E-002  0.4607718E+03  0.7546771E-02  0.1024558E+00
         21   -1    0    0  502  501  0.00000000000E+00  0.00000000000E+00  0.51266931631E+02  0.51266931631E+02  0.00000000000E+00 0.  1.
         21   -1    0    0  501  502 -0.00000000000E+00 -0.00000000000E+00 -0.10353197636E+04  0.10353197636E+04  0.00000000000E+00 0.  1.
      99926    2    1    2    0    0  0.00000000000E+00  0.00000000000E+00 -0.98405283195E+03  0.10865866952E+04  0.46077182004E+03 0.  0.
      99925    2    3    3    0    0 -0.74496058550E+02  0.25519244458E+02 -0.40747230273E+03  0.49136109987E+03  0.26306113053E+03 0.  0.
         25    1    4    4    0    0 -0.50974128168E+01  0.37484444354E+02 -0.20673845115E+03  0.24457997152E+03  0.12509000000E+03 0.  0.
         25    1    4    4    0    0 -0.69398645733E+02 -0.11965199896E+02 -0.20073385158E+03  0.24678112835E+03  0.12509000000E+03 0.  0.
         25    1    3    3    0    0  0.74496058550E+02 -0.25519244458E+02 -0.57658052922E+03  0.59522559534E+03  0.12509000000E+03 0.  0.
<mgrwt>
<rscale>  2 0.46077182E+03</rscale>
<asrwt>0</asrwt>
<pdfrwt beam="1">  1       21 0.75392553E-02 0.46077182E+03</pdfrwt>
<pdfrwt beam="2">  1       21 0.15225289E+00 0.46077182E+03</pdfrwt>
<totfact> 0.34387943E+04</totfact>
</mgrwt>
</event>
<event>
 7    0  0.4775379E-002  0.4493427E+03  0.7546771E-02  0.1027918E+00
         21   -1    0    0  502  501  0.00000000000E+00  0.00000000000E+00  0.72117959427E+02  0.72117959427E+02  0.00000000000E+00 0. -1.
         21   -1    0    0  501  502 -0.00000000000E+00 -0.00000000000E+00 -0.69992565812E+03  0.69992565812E+03  0.00000000000E+00 0. -1.
      99926    2    1    2    0    0  0.00000000000E+00 -0.17763568394E-14 -0.62780769869E+03  0.77204361754E+03  0.44934267642E+03 0.  0.
      99925    2    3    3    0    0 -0.10718605945E+03 -0.75165842999E+01 -0.41263458151E+03  0.50094893143E+03  0.26293950572E+03 0.  0.
         25    1    4    4    0    0 -0.74693840436E+02  0.16905202190E+01 -0.27935048762E+03  0.31506543874E+03  0.12509000000E+03 0.  0.
         25    1    3    3    0    0  0.10718605945E+03  0.75165842999E+01 -0.21517311718E+03  0.27109468611E+03  0.12509000000E+03 0.  0.
         25    1    4    4    0    0 -0.32492219016E+02 -0.92071045189E+01 -0.13328409389E+03  0.18588349269E+03  0.12509000000E+03 0.  0.
<mgrwt>
<rscale>  2 0.44934268E+03</rscale>
<asrwt>0</asrwt>
<pdfrwt beam="1">  1       21 0.10605581E-01 0.44934268E+03</pdfrwt>
<pdfrwt beam="2">  1       21 0.10293025E+00 0.44934268E+03</pdfrwt>
<totfact> 0.51391294E+04</totfact>
</mgrwt>
</event>
<event>
 7    0  0.4775379E-002  0.4624565E+03  0.7546771E-02  0.1024071E+00
         21   -1    0    0  502  501  0.00000000000E+00  0.00000000000E+00  0.15195862863E+03  0.15195862863E+03  0.00000000000E+00 0. -1.
         21   -1    0    0  501  502 -0.00000000000E+00 -0.00000000000E+00 -0.35184905312E+03  0.35184905312E+03  0.00000000000E+00 0. -1.
      99926    2    1    2    0    0  0.31086244690E-14  0.00000000000E+00 -0.19989042449E+03  0.50380768175E+03  0.46245648270E+03 0.  0.
      99925    2    3    3    0    0  0.92961377539E+00 -0.11589206806E+03 -0.15767909739E+03  0.32813429203E+03  0.26339624187E+03 0.  0.
         25    1    4    4    0    0 -0.34464390382E+02 -0.46778711221E+02 -0.98347194655E+02  0.16939811340E+03  0.12509000000E+03 0.  0.
         25    1    4    4    0    0  0.35394004157E+02 -0.69113356837E+02 -0.59331902733E+02  0.15873617863E+03  0.12509000000E+03 0.  0.
         25    1    3    3    0    0 -0.92961377539E+00  0.11589206806E+03 -0.42211327101E+02  0.17567338972E+03  0.12509000000E+03 0.  0.
<mgrwt>
<rscale>  2 0.46245648E+03</rscale>
<asrwt>0</asrwt>
<pdfrwt beam="1">  1       21 0.22346857E-01 0.46245648E+03</pdfrwt>
<pdfrwt beam="2">  1       21 0.51742507E-01 0.46245648E+03</pdfrwt>
<totfact> 0.61294793E+04</totfact>
</mgrwt>
</event>
<event>
 7    0  0.4775379E-002  0.4541786E+03  0.7546771E-02  0.1026483E+00
         21   -1    0    0  502  501  0.00000000000E+00  0.00000000000E+00  0.99369293201E+02  0.99369293201E+02  0.00000000000E+00 0. -1.
         21   -1    0    0  501  502 -0.00000000000E+00 -0.00000000000E+00 -0.51896865023E+03  0.51896865023E+03  0.00000000000E+00 0. -1.
      99926    2    1    2    0    0  0.00000000000E+00  0.00000000000E+00 -0.41959935703E+03  0.61833794344E+03  0.45417859028E+03 0.  0.
      99925    2    3    3    0    0  0.68991495627E+02 -0.61373422121E+02 -0.35169718318E+03  0.44867729176E+03  0.26285714766E+03 0.  0.
         25    1    4    4    0    0  0.32579199944E+02  0.16478756262E+01 -0.20682333349E+03  0.24390063374E+03  0.12509000000E+03 0.  0.
         25    1    3    3    0    0 -0.68991495627E+02  0.61373422121E+02 -0.67902173851E+02  0.16966065167E+03  0.12509000000E+03 0.  0.
         25    1    4    4    0    0  0.36412295683E+02 -0.63021297747E+02 -0.14487384970E+03  0.20477665803E+03  0.12509000000E+03 0.  0.
<mgrwt>
<rscale>  2 0.45417859E+03</rscale>
<asrwt>0</asrwt>
<pdfrwt beam="1">  1       21 0.14613131E-01 0.45417859E+03</pdfrwt>
<pdfrwt beam="2">  1       21 0.76318920E-01 0.45417859E+03</pdfrwt>
<totfact> 0.57938392E+04</totfact>
</mgrwt>
</event>
<event>
 7    0  0.4775379E-002  0.4549099E+03  0.7546771E-02  0.1026268E+00
         21   -1    0    0  502  501  0.00000000000E+00  0.00000000000E+00  0.39168166671E+03  0.39168166671E+03  0.00000000000E+00 0. -1.
         21   -1    0    0  501  502 -0.00000000000E+00 -0.00000000000E+00 -0.13208621705E+03  0.13208621705E+03  0.00000000000E+00 0. -1.
      99926    2    1    2    0    0 -0.71054273576E-14  0.00000000000E+00  0.25959544967E+03  0.52376788376E+03  0.45490987961E+03 0.  0.
      99925    2    3    3    0    0 -0.57499118882E+02  0.96403194438E+02  0.17831209871E+03  0.33707504562E+03  0.26310579101E+03 0.  0.
         25    1    4    4    0    0 -0.42934845469E+02  0.72473738287E+02  0.13310932507E+03  0.20115030256E+03  0.12509000000E+03 0.  0.
         25    1    4    4    0    0 -0.14564273414E+02  0.23929456151E+02  0.45202773633E+02  0.13592474306E+03  0.12509000000E+03 0.  0.
         25    1    3    3    0    0  0.57499118882E+02 -0.96403194438E+02  0.81283350959E+02  0.18669283814E+03  0.12509000000E+03 0.  0.
<mgrwt>
<rscale>  2 0.45490988E+03</rscale>
<asrwt>0</asrwt>
<pdfrwt beam="1">  1       21 0.57600245E-01 0.45490988E+03</pdfrwt>
<pdfrwt beam="2">  1       21 0.19424444E-01 0.45490988E+03</pdfrwt>
<totfact> 0.63675825E+04</totfact>
</mgrwt>
</event>
<event>
 7    0  0.4775379E-002  0.4623901E+03  0.7546771E-02  0.1024090E+00
         21   -1    0    0  502  501  0.00000000000E+00  0.00000000000E+00  0.65499660848E+02  0.65499660848E+02  0.00000000000E+00 0.  1.
         21   -1    0    0  501  502 -0.00000000000E+00 -0.00000000000E+00 -0.81605226830E+03  0.81605226830E+03  0.00000000000E+00 0.  1.
      99926    2    1    2    0    0  0.00000000000E+00  0.00000000000E+00 -0.75055260745E+03  0.88155192914E+03  0.46239008124E+03 0.  0.
      99925    2    3    3    0    0  0.62320311740E+02  0.25247480687E+02 -0.28002764818E+03  0.39006184590E+03  0.26308079242E+03 0.  0.
         25    1    3    3    0    0 -0.62320311740E+02 -0.25247480687E+02 -0.47052495927E+03  0.49149008325E+03  0.12509000000E+03 0.  0.
         25    1    4    4    0    0  0.32355327593E+02  0.51456843352E+02 -0.16224859940E+03  0.21369789437E+03  0.12509000000E+03 0.  0.
         25    1    4    4    0    0  0.29964984146E+02 -0.26209362665E+02 -0.11777904878E+03  0.17636395153E+03  0.12509000000E+03 0.  0.
<mgrwt>
<rscale>  2 0.46239008E+03</rscale>
<asrwt>0</asrwt>
<pdfrwt beam="1">  1       21 0.96323033E-02 0.46239008E+03</pdfrwt>
<pdfrwt beam="2">  1       21 0.12000768E+00 0.46239008E+03</pdfrwt>
<totfact> 0.41581579E+04</totfact>
</mgrwt>
</event>
<event>
 7    0  0.4775379E-002  0.4550585E+03  0.7546771E-02  0.1026224E+00
         21   -1    0    0  502  501  0.00000000000E+00  0.00000000000E+00  0.19219223911E+03  0.19219223911E+03  0.00000000000E+00 0. -1.
         21   -1    0    0  501  502 -0.00000000000E+00 -0.00000000000E+00 -0.26936343639E+03  0.26936343639E+03  0.00000000000E+00 0. -1.
      99926    2    1    2    0    0 -0.14210854715E-13  0.35527136788E-14 -0.77171197274E+02  0.46155567550E+03  0.45505851041E+03 0.  0.
      99925    2    3    3    0    0  0.95340616696E+02 -0.29191570511E+02  0.60594169758E+01  0.28123145574E+03  0.26289243843E+03 0.  0.
         25    1    4    4    0    0  0.57722758241E+02 -0.51857630465E+02  0.17120430129E+02  0.14819496579E+03  0.12509000000E+03 0.  0.
         25    1    4    4    0    0  0.37617858455E+02  0.22666059953E+02 -0.11061013154E+02  0.13303648996E+03  0.12509000000E+03 0.  0.
         25    1    3    3    0    0 -0.95340616696E+02  0.29191570511E+02 -0.83230614250E+02  0.18032421975E+03  0.12509000000E+03 0.  0.
<mgrwt>
<rscale>  2 0.45505851E+03</rscale>
<asrwt>0</asrwt>
<pdfrwt beam="1">  1       21 0.28263565E-01 0.45505851E+03</pdfrwt>
<pdfrwt beam="2">  1       21 0.39612270E-01 0.45505851E+03</pdfrwt>
<totfact> 0.68034878E+04</totfact>
</mgrwt>
</event>
<event>
 7    0  0.4775379E-002  0.4514435E+03  0.7546771E-02  0.1027292E+00
         21   -1    0    0  502  501  0.00000000000E+00  0.00000000000E+00  0.20985919460E+03  0.20985919460E+03  0.00000000000E+00 0.  1.
         21   -1    0    0  501  502 -0.00000000000E+00 -0.00000000000E+00 -0.24278332997E+03  0.24278332997E+03  0.00000000000E+00 0.  1.
      99926    2    1    2    0    0  0.71054273576E-14  0.00000000000E+00 -0.32924135369E+02  0.45264252457E+03  0.45144352511E+03 0.  0.
      99925    2    3    3    0    0  0.42562424675E+02 -0.98923223346E+02 -0.42211407757E+02  0.28732124452E+03  0.26301013383E+03 0.  0.
         25    1    3    3    0    0 -0.42562424675E+02  0.98923223346E+02  0.92872723885E+01  0.16532128006E+03  0.12509000000E+03 0.  0.
         25    1    4    4    0    0  0.39716485750E+02 -0.46602773186E+02  0.15099325658E+02  0.14008824163E+03  0.12509000000E+03 0.  0.
         25    1    4    4    0    0  0.28459389248E+01 -0.52320450160E+02 -0.57310733415E+02  0.14723300288E+03  0.12509000000E+03 0.  0.
<mgrwt>
<rscale>  2 0.45144353E+03</rscale>
<asrwt>0</asrwt>
<pdfrwt beam="1">  1       21 0.30861646E-01 0.45144353E+03</pdfrwt>
<pdfrwt beam="2">  1       21 0.35703431E-01 0.45144353E+03</pdfrwt>
<totfact> 0.70703992E+04</totfact>
</mgrwt>
</event>
<event>
 6    0  0.4775379E-002  0.4461054E+03  0.7546771E-02  0.1028890E+00
         21   -1    0    0  502  501  0.00000000000E+00  0.00000000000E+00  0.32454736065E+02  0.32454736065E+02  0.00000000000E+00 0.  1.
         21   -1    0    0  501  502 -0.00000000000E+00 -0.00000000000E+00 -0.15329811769E+04  0.15329811769E+04  0.00000000000E+00 0.  1.
      99926    2    1    2    0    0  0.00000000000E+00  0.00000000000E+00 -0.15005264408E+04  0.15654359130E+04  0.44610536642E+03 0.  0.
         25    1    3    3    0    0 -0.77729135403E+02  0.16480567955E+02 -0.66266505475E+03  0.67903307025E+03  0.12509000000E+03 0.  0.
         25    1    3    3    0    0  0.63964903273E+02 -0.10084915265E+02 -0.26784073383E+03  0.30262085382E+03  0.12509000000E+03 0.  0.
         25    1    3    3    0    0  0.13764232131E+02 -0.63956526902E+01 -0.57002065225E+03  0.58378198889E+03  0.12509000000E+03 0.  0.
<mgrwt>
<rscale>  2 0.44610537E+03</rscale>
<asrwt>0</asrwt>
<pdfrwt beam="1">  1       21 0.47727546E-02 0.44610537E+03</pdfrwt>
<pdfrwt beam="2">  1       21 0.22543844E+00 0.44610537E+03</pdfrwt>
<totfact> 0.23823701E+04</totfact>
</mgrwt>
</event>
<event>
 7    0  0.4775379E-002  0.4605069E+03  0.7546771E-02  0.1024634E+00
         21   -1    0    0  502  501  0.00000000000E+00  0.00000000000E+00  0.12885962834E+03  0.12885962834E+03  0.00000000000E+00 0.  1.
         21   -1    0    0  501  502 -0.00000000000E+00 -0.00000000000E+00 -0.41142956255E+03  0.41142956255E+03  0.00000000000E+00 0.  1.
      99926    2    1    2    0    0  0.22759572005E-14 -0.71054273576E-14 -0.28256993420E+03  0.54028919089E+03  0.46050694031E+03 0.  0.
      99925    2    3    3    0    0 -0.14398768039E+00  0.32253602280E+02 -0.31040586804E+03  0.40814282164E+03  0.26303696385E+03 0.  0.
         25    1    3    3    0    0  0.14398768039E+00 -0.32253602280E+02  0.27835933834E+02  0.13214636925E+03  0.12509000000E+03 0.  0.
         25    1    4    4    0    0  0.19900012049E+02  0.92457208344E+01 -0.10076703764E+03  0.16212031893E+03  0.12509000000E+03 0.  0.
         25    1    4    4    0    0 -0.20043999730E+02  0.23007881445E+02 -0.20963883040E+03  0.24602250272E+03  0.12509000000E+03 0.  0.
<mgrwt>
<rscale>  2 0.46050694E+03</rscale>
<asrwt>0</asrwt>
<pdfrwt beam="1">  1       21 0.18949946E-01 0.46050694E+03</pdfrwt>
<pdfrwt beam="2">  1       21 0.60504346E-01 0.46050694E+03</pdfrwt>
<totfact> 0.59859963E+04</totfact>
</mgrwt>
</event>
<event>
 7    0  0.4775379E-002  0.4442642E+03  0.7546771E-02  0.1029446E+00
         21   -1    0    0  502  501  0.00000000000E+00  0.00000000000E+00  0.12002001349E+03  0.12002001349E+03  0.00000000000E+00 0.  1.
         21   -1    0    0  501  502 -0.00000000000E+00 -0.00000000000E+00 -0.41112036501E+03  0.41112036501E+03  0.00000000000E+00 0.  1.
      99926    2    1    2    0    0  0.00000000000E+00 -0.22204460493E-14 -0.29110035152E+03  0.53114037850E+03  0.44426420857E+03 0.  0.
      99925    2    3    3    0    0  0.25733838566E+02 -0.12007996062E+01 -0.66020139549E+02  0.27235034336E+03  0.26296839797E+03 0.  0.
         25    1    3    3    0    0 -0.25733838566E+02  0.12007996062E+01 -0.22508021197E+03  0.25879003514E+03  0.12509000000E+03 0.  0.
         25    1    4    4    0    0  0.26749827440E+02 -0.18167213419E+02 -0.68189706127E+02  0.14609224837E+03  0.12509000000E+03 0.  0.
         25    1    4    4    0    0 -0.10159888739E+01  0.16966413813E+02  0.21695665780E+01  0.12625809499E+03  0.12509000000E+03 0.  0.
<mgrwt>
<rscale>  2 0.44426421E+03</rscale>
<asrwt>0</asrwt>
<pdfrwt beam="1">  1       21 0.17650002E-01 0.44426421E+03</pdfrwt>
<pdfrwt beam="2">  1       21 0.60458876E-01 0.44426421E+03</pdfrwt>
<totfact> 0.68792481E+04</totfact>
</mgrwt>
</event>
<event>
 7    0  0.4775379E-002  0.4551625E+03  0.7546771E-02  0.1026194E+00
         21   -1    0    0  502  501  0.00000000000E+00  0.00000000000E+00  0.58185648678E+02  0.58185648678E+02  0.00000000000E+00 0. -1.
         21   -1    0    0  501  502 -0.00000000000E+00 -0.00000000000E+00 -0.89013746590E+03  0.89013746590E+03  0.00000000000E+00 0. -1.
      99926    2    1    2    0    0  0.00000000000E+00  0.17763568394E-14 -0.83195181722E+03  0.94832311458E+03  0.45516250226E+03 0.  0.
      99925    2    3    3    0    0  0.73984844064E+02 -0.15838921753E+02 -0.69922158493E+03  0.75086564762E+03  0.26299005181E+03 0.  0.
         25    1    4    4    0    0  0.15246485898E+02 -0.33186735242E+02 -0.27388279597E+03  0.30330365767E+03  0.12509000000E+03 0.  0.
         25    1    3    3    0    0 -0.73984844064E+02  0.15838921753E+02 -0.13273023229E+03  0.19745746696E+03  0.12509000000E+03 0.  0.
         25    1    4    4    0    0  0.58738358166E+02  0.17347813489E+02 -0.42533878896E+03  0.44756198994E+03  0.12509000000E+03 0.  0.
<mgrwt>
<rscale>  2 0.45516250E+03</rscale>
<asrwt>0</asrwt>
<pdfrwt beam="1">  1       21 0.85567126E-02 0.45516250E+03</pdfrwt>
<pdfrwt beam="2">  1       21 0.13090258E+00 0.45516250E+03</pdfrwt>
<totfact> 0.41156453E+04</totfact>
</mgrwt>
</event>
<event>
 7    0  0.4775379E-002  0.4350260E+03  0.7546771E-02  0.1032284E+00
         21   -1    0    0  502  501  0.00000000000E+00  0.00000000000E+00  0.97826542708E+02  0.97826542708E+02  0.00000000000E+00 0. -1.
         21   -1    0    0  501  502 -0.00000000000E+00 -0.00000000000E+00 -0.48363057358E+03  0.48363057358E+03  0.00000000000E+00 0. -1.
      99926    2    1    2    0    0 -0.35527136788E-14  0.00000000000E+00 -0.38580403087E+03  0.58145711629E+03  0.43502600824E+03 0.  0.
      99925    2    3    3    0    0  0.31451245721E+02  0.65278812167E+02 -0.32598495780E+03  0.42500797510E+03  0.26289747433E+03 0.  0.
         25    1    3    3    0    0 -0.31451245721E+02 -0.65278812167E+02 -0.59819073075E+02  0.15644914119E+03  0.12509000000E+03 0.  0.
         25    1    4    4    0    0  0.52867568785E+02  0.26516969105E+02 -0.18959279839E+03  0.23471486272E+03  0.12509000000E+03 0.  0.
         25    1    4    4    0    0 -0.21416323064E+02  0.38761843062E+02 -0.13639215940E+03  0.19029311238E+03  0.12509000000E+03 0.  0.
<mgrwt>
<rscale>  2 0.43502601E+03</rscale>
<asrwt>0</asrwt>
<pdfrwt beam="1">  1       21 0.14386256E-01 0.43502601E+03</pdfrwt>
<pdfrwt beam="2">  1       21 0.71122143E-01 0.43502601E+03</pdfrwt>
<totfact> 0.70292837E+04</totfact>
</mgrwt>
</event>
<event>
 7    0  0.4775379E-002  0.4533520E+03  0.7546771E-02  0.1026727E+00
         21   -1    0    0  502  501  0.00000000000E+00  0.00000000000E+00  0.88266399337E+03  0.88266399337E+03  0.00000000000E+00 0.  1.
         21   -1    0    0  501  502 -0.00000000000E+00 -0.00000000000E+00 -0.58212420878E+02  0.58212420878E+02  0.00000000000E+00 0.  1.
      99926    2    1    2    0    0  0.44408920985E-15  0.00000000000E+00  0.82445157249E+03  0.94087641425E+03  0.45335199515E+03 0.  0.
      99925    2    3    3    0    0 -0.28739790495E+01 -0.83675982451E+02  0.36642197020E+03  0.45874722568E+03  0.26300955691E+03 0.  0.
         25    1    4    4    0    0  0.21811719363E+02 -0.62943161882E+02  0.23529305780E+03  0.27467785473E+03  0.12509000000E+03 0.  0.
         25    1    3    3    0    0  0.28739790495E+01  0.83675982451E+02  0.45802960229E+03  0.48212918857E+03  0.12509000000E+03 0.  0.
         25    1    4    4    0    0 -0.24685698413E+02 -0.20732820569E+02  0.13112891240E+03  0.18406937095E+03  0.12509000000E+03 0.  0.
<mgrwt>
<rscale>  2 0.45335200E+03</rscale>
<asrwt>0</asrwt>
<pdfrwt beam="1">  1       21 0.12980352E+00 0.45335200E+03</pdfrwt>
<pdfrwt beam="2">  1       21 0.85606506E-02 0.45335200E+03</pdfrwt>
<totfact> 0.42051832E+04</totfact>
</mgrwt>
</event>
<event>
 7    0  0.4775379E-002  0.4538432E+03  0.7546771E-02  0.1026582E+00
         21   -1    0    0  502  501  0.00000000000E+00  0.00000000000E+00  0.48598018866E+02  0.48598018866E+02  0.00000000000E+00 0.  1.
         21   -1    0    0  501  502 -0.00000000000E+00 -0.00000000000E+00 -0.10595784830E+04  0.10595784830E+04  0.00000000000E+00 0.  1.
      99926    2    1    2    0    0  0.00000000000E+00  0.00000000000E+00 -0.10109804642E+04  0.11081765019E+04  0.45384321129E+03 0.  0.
      99925    2    3    3    0    0 -0.62792397207E+02  0.79201916061E+02 -0.51834107994E+03  0.58995174405E+03  0.26296341286E+03 0.  0.
         25    1    4    4    0    0  0.69875794574E+01  0.51259795428E+02 -0.26548268606E+03  0.29800160669E+03  0.12509000000E+03 0.  0.
         25    1    4    4    0    0 -0.69779976664E+02  0.27942120633E+02 -0.25285839388E+03  0.29195013736E+03  0.12509000000E+03 0.  0.
         25    1    3    3    0    0  0.62792397207E+02 -0.79201916061E+02 -0.49263938424E+03  0.51822475786E+03  0.12509000000E+03 0.  0.
<mgrwt>
<rscale>  2 0.45384321E+03</rscale>
<asrwt>0</asrwt>
<pdfrwt beam="1">  1       21 0.71467671E-02 0.45384321E+03</pdfrwt>
<pdfrwt beam="2">  1       21 0.15582037E+00 0.45384321E+03</pdfrwt>
<totfact> 0.35529110E+04</totfact>
</mgrwt>
</event>
<event>
 7    0  0.4775379E-002  0.4610900E+03  0.7546771E-02  0.1024466E+00
         21   -1    0    0  502  501  0.00000000000E+00  0.00000000000E+00  0.66510474528E+03  0.66510474528E+03  0.00000000000E+00 0.  1.
         21   -1    0    0  501  502 -0.00000000000E+00 -0.00000000000E+00 -0.79913715036E+02  0.79913715036E+02  0.00000000000E+00 0.  1.
      99926    2    1    2    0    0  0.00000000000E+00  0.88817841970E-15  0.58519103024E+03  0.74501846031E+03  0.46108997423E+03 0.  0.
      99925    2    3    3    0    0  0.84323951382E+02 -0.65328785661E+01  0.23150655356E+03  0.36044931904E+03  0.26301182478E+03 0.  0.
         25    1    4    4    0    0  0.39476657921E+02  0.13076931490E+02  0.66391695972E+02  0.14759667358E+03  0.12509000000E+03 0.  0.
         25    1    4    4    0    0  0.44847293460E+02 -0.19609810056E+02  0.16511485759E+03  0.21285264546E+03  0.12509000000E+03 0.  0.
         25    1    3    3    0    0 -0.84323951382E+02  0.65328785661E+01  0.35368447668E+03  0.38456914128E+03  0.12509000000E+03 0.  0.
<mgrwt>
<rscale>  2 0.46108997E+03</rscale>
<asrwt>0</asrwt>
<pdfrwt beam="1">  1       21 0.97809518E-01 0.46108997E+03</pdfrwt>
<pdfrwt beam="2">  1       21 0.11752017E-01 0.46108997E+03</pdfrwt>
<totfact> 0.48177896E+04</totfact>
</mgrwt>
</event>
<event>
 7    0  0.4775379E-002  0.4560596E+03  0.7546771E-02  0.1025930E+00
         21   -1    0    0  502  501  0.00000000000E+00  0.00000000000E+00  0.14391974494E+03  0.14391974494E+03  0.00000000000E+00 0.  1.
         21   -1    0    0  501  502 -0.00000000000E+00 -0.00000000000E+00 -0.36129578101E+03  0.36129578101E+03  0.00000000000E+00 0.  1.
      99926    2    1    2    0    0  0.45796699766E-15  0.00000000000E+00 -0.21737603606E+03  0.50521552595E+03  0.45605963054E+03 0.  0.
      99925    2    3    3    0    0  0.18029343360E-01  0.76931573212E+02 -0.23003541296E+03  0.35781730613E+03  0.26305601318E+03 0.  0.
         25    1    4    4    0    0  0.12555356552E+02  0.58493745439E+02 -0.75943730211E+02  0.15809526714E+03  0.12509000000E+03 0.  0.
         25    1    4    4    0    0 -0.12537327209E+02  0.18437827773E+02 -0.15409168275E+03  0.19972203899E+03  0.12509000000E+03 0.  0.
         25    1    3    3    0    0 -0.18029343360E-01 -0.76931573212E+02  0.12659376896E+02  0.14739821982E+03  0.12509000000E+03 0.  0.
<mgrwt>
<rscale>  2 0.45605963E+03</rscale>
<asrwt>0</asrwt>
<pdfrwt beam="1">  1       21 0.21164668E-01 0.45605963E+03</pdfrwt>
<pdfrwt beam="2">  1       21 0.53131733E-01 0.45605963E+03</pdfrwt>
<totfact> 0.64362748E+04</totfact>
</mgrwt>
</event>
<event>
 7    0  0.4775379E-002  0.4542657E+03  0.7546771E-02  0.1026458E+00
         21   -1    0    0  502  501  0.00000000000E+00  0.00000000000E+00  0.14142725764E+03  0.14142725764E+03  0.00000000000E+00 0.  1.
         21   -1    0    0  501  502 -0.00000000000E+00 -0.00000000000E+00 -0.36477645375E+03  0.36477645375E+03  0.00000000000E+00 0.  1.
      99926    2    1    2    0    0  0.00000000000E+00  0.00000000000E+00 -0.22334919610E+03  0.50620371139E+03  0.45426570862E+03 0.  0.
      99925    2    3    3    0    0 -0.76553853787E+02 -0.56075234827E+02 -0.20785165014E+03  0.34842980188E+03  0.26305150424E+03 0.  0.
         25    1    4    4    0    0 -0.20288095665E+02  0.35486474909E+01 -0.68922707457E+02  0.14429846648E+03  0.12509000000E+03 0.  0.
         25    1    4    4    0    0 -0.56265758123E+02 -0.59623882318E+02 -0.13892894268E+03  0.20413133540E+03  0.12509000000E+03 0.  0.
         25    1    3    3    0    0  0.76553853787E+02  0.56075234827E+02 -0.15497545966E+02  0.15777390951E+03  0.12509000000E+03 0.  0.
<mgrwt>
<rscale>  2 0.45426571E+03</rscale>
<asrwt>0</asrwt>
<pdfrwt beam="1">  1       21 0.20798126E-01 0.45426571E+03</pdfrwt>
<pdfrwt beam="2">  1       21 0.53643595E-01 0.45426571E+03</pdfrwt>
<totfact> 0.65216250E+04</totfact>
</mgrwt>
</event>
<event>
 7    0  0.4775379E-002  0.4583454E+03  0.7546771E-02  0.1025262E+00
         21   -1    0    0  502  501  0.00000000000E+00  0.00000000000E+00  0.60990965500E+03  0.60990965500E+03  0.00000000000E+00 0.  1.
         21   -1    0    0  501  502 -0.00000000000E+00 -0.00000000000E+00 -0.86111334541E+02  0.86111334541E+02  0.00000000000E+00 0.  1.
      99926    2    1    2    0    0 -0.17763568394E-14  0.14210854715E-13  0.52379832046E+03  0.69602098954E+03  0.45834543454E+03 0.  0.
      99925    2    3    3    0    0  0.13451313933E+02  0.79356699139E+02  0.20127677888E+03  0.34085050030E+03  0.26303668621E+03 0.  0.
         25    1    4    4    0    0 -0.24805810534E+02  0.25535962763E+02  0.12386775022E+03  0.17960551571E+03  0.12509000000E+03 0.  0.
         25    1    3    3    0    0 -0.13451313933E+02 -0.79356699139E+02  0.32252154158E+03  0.35517048924E+03  0.12509000000E+03 0.  0.
         25    1    4    4    0    0  0.38257124467E+02  0.53820736376E+02  0.77409028663E+02  0.16124498459E+03  0.12509000000E+03 0.  0.
<mgrwt>
<rscale>  2 0.45834543E+03</rscale>
<asrwt>0</asrwt>
<pdfrwt beam="1">  1       21 0.89692594E-01 0.45834543E+03</pdfrwt>
<pdfrwt beam="2">  1       21 0.12663432E-01 0.45834543E+03</pdfrwt>
<totfact> 0.51743564E+04</totfact>
</mgrwt>
</event>
<event>
 7    0  0.4775379E-002  0.4571589E+03  0.7546771E-02  0.1025608E+00
         21   -1    0    0  502  501  0.00000000000E+00  0.00000000000E+00  0.12239863938E+04  0.12239863938E+04  0.00000000000E+00 0.  1.
         21   -1    0    0  501  502 -0.00000000000E+00 -0.00000000000E+00 -0.42687204994E+02  0.42687204994E+02  0.00000000000E+00 0.  1.
      99926    2    1    2    0    0  0.00000000000E+00  0.00000000000E+00  0.11812991888E+04  0.12666735987E+04  0.45715886998E+03 0.  0.
      99925    2    3    3    0    0 -0.68396723964E+02 -0.71534198563E+02  0.90530201392E+03  0.94789906710E+03  0.26295560761E+03 0.  0.
         25    1    4    4    0    0 -0.49009822164E+02 -0.39473408670E+02  0.33988728665E+03  0.36760167082E+03  0.12509000000E+03 0.  0.
         25    1    4    4    0    0 -0.19386901799E+02 -0.32060789893E+02  0.56541472727E+03  0.58029739627E+03  0.12509000000E+03 0.  0.
         25    1    3    3    0    0  0.68396723964E+02  0.71534198563E+02  0.27599717484E+03  0.31877453165E+03  0.12509000000E+03 0.  0.
<mgrwt>
<rscale>  2 0.45715887E+03</rscale>
<asrwt>0</asrwt>
<pdfrwt beam="1">  1       21 0.17999798E+00 0.45715887E+03</pdfrwt>
<pdfrwt beam="2">  1       21 0.62775310E-02 0.45715887E+03</pdfrwt>
<totfact> 0.29597673E+04</totfact>
</mgrwt>
</event>
<event>
 7    0  0.4775379E-002  0.4502341E+03  0.7546771E-02  0.1027652E+00
         21   -1    0    0  502  501  0.00000000000E+00  0.00000000000E+00  0.18467131421E+03  0.18467131421E+03  0.00000000000E+00 0.  1.
         21   -1    0    0  501  502 -0.00000000000E+00 -0.00000000000E+00 -0.27442094515E+03  0.27442094515E+03  0.00000000000E+00 0.  1.
      99926    2    1    2    0    0  0.00000000000E+00  0.14210854715E-13 -0.89749630946E+02  0.45909225936E+03  0.45023405729E+03 0.  0.
      99925    2    3    3    0    0  0.26173766155E+02 -0.10526937528E+03 -0.62598750223E+02  0.29130851214E+03  0.26301204974E+03 0.  0.
         25    1    3    3    0    0 -0.26173766155E+02  0.10526937528E+03 -0.27150880723E+02  0.16778374722E+03  0.12509000000E+03 0.  0.
         25    1    4    4    0    0  0.24538589655E+02 -0.81796103096E+02 -0.48528883440E+01  0.15153812553E+03  0.12509000000E+03 0.  0.
         25    1    4    4    0    0  0.16351764990E+01 -0.23473272182E+02 -0.57745861879E+02  0.13977038661E+03  0.12509000000E+03 0.  0.
<mgrwt>
<rscale>  2 0.45023406E+03</rscale>
<asrwt>0</asrwt>
<pdfrwt beam="1">  1       21 0.27157546E-01 0.45023406E+03</pdfrwt>
<pdfrwt beam="2">  1       21 0.40356021E-01 0.45023406E+03</pdfrwt>
<totfact> 0.70899138E+04</totfact>
</mgrwt>
</event>
<event>
 7    0  0.4775379E-002  0.4394827E+03  0.7546771E-02  0.1030906E+00
         21   -1    0    0  502  501  0.00000000000E+00  0.00000000000E+00  0.17915707843E+03  0.17915707843E+03  0.00000000000E+00 0.  1.
         21   -1    0    0  501  502 -0.00000000000E+00 -0.00000000000E+00 -0.26951917945E+03  0.26951917945E+03  0.00000000000E+00 0.  1.
      99926    2    1    2    0    0  0.00000000000E+00  0.00000000000E+00 -0.90362101017E+02  0.44867625787E+03  0.43948273581E+03 0.  0.
      99925    2    3    3    0    0 -0.32979645118E+02  0.86429825421E+02 -0.90181273661E+02  0.29309569189E+03  0.26308677422E+03 0.  0.
         25    1    4    4    0    0  0.12163106591E+02  0.70071128367E+02 -0.34328497976E+02  0.14793193727E+03  0.12509000000E+03 0.  0.
         25    1    3    3    0    0  0.32979645118E+02 -0.86429825421E+02 -0.18082735634E+00  0.15558056599E+03  0.12509000000E+03 0.  0.
         25    1    4    4    0    0 -0.45142751710E+02  0.16358697054E+02 -0.55852775685E+02  0.14516375461E+03  0.12509000000E+03 0.  0.
<mgrwt>
<rscale>  2 0.43948274E+03</rscale>
<asrwt>0</asrwt>
<pdfrwt beam="1">  1       21 0.26346629E-01 0.43948274E+03</pdfrwt>
<pdfrwt beam="2">  1       21 0.39635173E-01 0.43948274E+03</pdfrwt>
<totfact> 0.78252005E+04</totfact>
</mgrwt>
</event>
<event>
 7    0  0.4775379E-002  0.4583573E+03  0.7546771E-02  0.1025259E+00
         21   -1    0    0  502  501  0.00000000000E+00  0.00000000000E+00  0.24832836328E+02  0.24832836328E+02  0.00000000000E+00 0. -1.
         21   -1    0    0  501  502 -0.00000000000E+00 -0.00000000000E+00 -0.21150566554E+04  0.21150566554E+04  0.00000000000E+00 0. -1.
      99926    2    1    2    0    0  0.71054273576E-14  0.00000000000E+00 -0.20902238190E+04  0.21398894917E+04  0.45835730930E+03 0.  0.
      99925    2    3    3    0    0 -0.52518732591E+02  0.64580336796E+02 -0.93178718798E+03  0.97174918615E+03  0.26294539341E+03 0.  0.
         25    1    3    3    0    0  0.52518732591E+02 -0.64580336796E+02 -0.11584366311E+04  0.11681403056E+04  0.12509000000E+03 0.  0.
         25    1    4    4    0    0 -0.66231396220E+02  0.42796948689E+02 -0.48035228358E+03  0.50259725537E+03  0.12509000000E+03 0.  0.
         25    1    4    4    0    0  0.13712663630E+02  0.21783388108E+02 -0.45143490440E+03  0.46915193078E+03  0.12509000000E+03 0.  0.
<mgrwt>
<rscale>  2 0.45835731E+03</rscale>
<asrwt>0</asrwt>
<pdfrwt beam="1">  1       21 0.36518878E-02 0.45835731E+03</pdfrwt>
<pdfrwt beam="2">  1       21 0.31103774E+00 0.45835731E+03</pdfrwt>
<totfact> 0.11260931E+04</totfact>
</mgrwt>
</event>
<event>
 7    0  0.4775379E-002  0.4558235E+03  0.7546771E-02  0.1026000E+00
         21   -1    0    0  502  501  0.00000000000E+00  0.00000000000E+00  0.17995473759E+03  0.17995473759E+03  0.00000000000E+00 0. -1.
         21   -1    0    0  501  502 -0.00000000000E+00 -0.00000000000E+00 -0.28864906414E+03  0.28864906414E+03  0.00000000000E+00 0. -1.
      99926    2    1    2    0    0  0.00000000000E+00  0.14210854715E-13 -0.10869432655E+03  0.46860380173E+03  0.45582350354E+03 0.  0.
      99925    2    3    3    0    0  0.85438546911E+02 -0.75520055356E+02 -0.75259298372E+02  0.29606849153E+03  0.26265864848E+03 0.  0.
         25    1    4    4    0    0  0.29022648114E+02 -0.68984462334E+02 -0.16676187718E+02  0.14672005140E+03  0.12509000000E+03 0.  0.
         25    1    3    3    0    0 -0.85438546911E+02  0.75520055356E+02 -0.33435028175E+02  0.17253531021E+03  0.12509000000E+03 0.  0.
         25    1    4    4    0    0  0.56415898797E+02 -0.65355930229E+01 -0.58583110655E+02  0.14934844012E+03  0.12509000000E+03 0.  0.
<mgrwt>
<rscale>  2 0.45582350E+03</rscale>
<asrwt>0</asrwt>
<pdfrwt beam="1">  1       21 0.26463932E-01 0.45582350E+03</pdfrwt>
<pdfrwt beam="2">  1       21 0.42448392E-01 0.45582350E+03</pdfrwt>
<totfact> 0.67100433E+04</totfact>
</mgrwt>
</event>
<event>
 7    0  0.4775379E-002  0.4489803E+03  0.7546771E-02  0.1028027E+00
         21   -1    0    0  502  501  0.00000000000E+00  0.00000000000E+00  0.73613399004E+02  0.73613399004E+02  0.00000000000E+00 0. -1.
         21   -1    0    0  501  502 -0.00000000000E+00 -0.00000000000E+00 -0.68460131213E+03  0.68460131213E+03  0.00000000000E+00 0. -1.
      99926    2    1    2    0    0  0.00000000000E+00 -0.71054273576E-14 -0.61098791312E+03  0.75821471113E+03  0.44898030936E+03 0.  0.
      99925    2    3    3    0    0  0.98543863395E+02 -0.40704653847E+02 -0.40508419858E+03  0.49475387985E+03  0.26328773581E+03 0.  0.
         25    1    4    4    0    0  0.10624965026E+02  0.10438165041E+01 -0.17624934192E+03  0.21639158501E+03  0.12509000000E+03 0.  0.
         25    1    4    4    0    0  0.87918898369E+02 -0.41748470351E+02 -0.22883485665E+03  0.27836229484E+03  0.12509000000E+03 0.  0.
         25    1    3    3    0    0 -0.98543863395E+02  0.40704653847E+02 -0.20590371455E+03  0.26346083128E+03  0.12509000000E+03 0.  0.
<mgrwt>
<rscale>  2 0.44898031E+03</rscale>
<asrwt>0</asrwt>
<pdfrwt beam="1">  1       21 0.10825501E-01 0.44898031E+03</pdfrwt>
<pdfrwt beam="2">  1       21 0.10067665E+00 0.44898031E+03</pdfrwt>
<totfact> 0.52279242E+04</totfact>
</mgrwt>
</event>
<event>
 7    0  0.4775379E-002  0.4547784E+03  0.7546771E-02  0.1026307E+00
         21   -1    0    0  502  501  0.00000000000E+00  0.00000000000E+00  0.42615381479E+03  0.42615381479E+03  0.00000000000E+00 0.  1.
         21   -1    0    0  501  502 -0.00000000000E+00 -0.00000000000E+00 -0.12133144186E+03  0.12133144186E+03  0.00000000000E+00 0.  1.
      99926    2    1    2    0    0  0.00000000000E+00  0.00000000000E+00  0.30482237293E+03  0.54748525666E+03  0.45477843750E+03 0.  0.
      99925    2    3    3    0    0  0.27770811080E+02 -0.25434199257E+02  0.32019851695E+03  0.41594799827E+03  0.26280702152E+03 0.  0.
         25    1    3    3    0    0 -0.27770811080E+02  0.25434199257E+02 -0.15376144024E+02  0.13153725839E+03  0.12509000000E+03 0.  0.
         25    1    4    4    0    0 -0.68715380178E+00 -0.48716976600E+02  0.14563912811E+03  0.19807089571E+03  0.12509000000E+03 0.  0.
         25    1    4    4    0    0  0.28457964882E+02  0.23282777344E+02  0.17455938884E+03  0.21787710256E+03  0.12509000000E+03 0.  0.
<mgrwt>
<rscale>  2 0.45477844E+03</rscale>
<asrwt>0</asrwt>
<pdfrwt beam="1">  1       21 0.62669678E-01 0.45477844E+03</pdfrwt>
<pdfrwt beam="2">  1       21 0.17842859E-01 0.45477844E+03</pdfrwt>
<totfact> 0.62141864E+04</totfact>
</mgrwt>
</event>
<event>
 7    0  0.4775379E-002  0.4577571E+03  0.7546771E-02  0.1025434E+00
         21   -1    0    0  502  501  0.00000000000E+00  0.00000000000E+00  0.63280095529E+03  0.63280095529E+03  0.00000000000E+00 0.  1.
         21   -1    0    0  501  502 -0.00000000000E+00 -0.00000000000E+00 -0.82783359280E+02  0.82783359280E+02  0.00000000000E+00 0.  1.
      99926    2    1    2    0    0  0.00000000000E+00  0.00000000000E+00  0.55001759601E+03  0.71558431457E+03  0.45775709207E+03 0.  0.
      99925    2    3    3    0    0  0.17900330332E+02 -0.10911861421E+03  0.39848262798E+03  0.49011225770E+03  0.26304814494E+03 0.  0.
         25    1    3    3    0    0 -0.17900330332E+02  0.10911861421E+03  0.15153496803E+03  0.22547205687E+03  0.12509000000E+03 0.  0.
         25    1    4    4    0    0  0.17530048647E+02 -0.33787028063E+02  0.12937988037E+03  0.18394435956E+03  0.12509000000E+03 0.  0.
         25    1    4    4    0    0  0.37028168497E+00 -0.75331586143E+02  0.26910274762E+03  0.30616789814E+03  0.12509000000E+03 0.  0.
<mgrwt>
<rscale>  2 0.45775709E+03</rscale>
<asrwt>0</asrwt>
<pdfrwt beam="1">  1       21 0.93058962E-01 0.45775709E+03</pdfrwt>
<pdfrwt beam="2">  1       21 0.12174024E-01 0.45775709E+03</pdfrwt>
<totfact> 0.50950925E+04</totfact>
</mgrwt>
</event>
<event>
 7    0  0.4775379E-002  0.4556382E+03  0.7546771E-02  0.1026054E+00
         21   -1    0    0  502  501  0.00000000000E+00  0.00000000000E+00  0.42773543093E+03  0.42773543093E+03  0.00000000000E+00 0.  1.
         21   -1    0    0  501  502 -0.00000000000E+00 -0.00000000000E+00 -0.12134028641E+03  0.12134028641E+03  0.00000000000E+00 0.  1.
      99926    2    1    2    0    0 -0.35527136788E-14  0.00000000000E+00  0.30639514452E+03  0.54907571734E+03  0.45563818847E+03 0.  0.
      99925    2    3    3    0    0  0.17958751409E+02  0.10970463768E+03  0.22207475859E+03  0.36168558989E+03  0.26294798583E+03 0.  0.
         25    1    3    3    0    0 -0.17958751409E+02 -0.10970463768E+03  0.84320385930E+02  0.18739012745E+03  0.12509000000E+03 0.  0.
         25    1    4    4    0    0 -0.29562112287E+02  0.63421838884E+02  0.12302883999E+03  0.18889111069E+03  0.12509000000E+03 0.  0.
         25    1    4    4    0    0  0.47520863696E+02  0.46282798799E+02  0.99045918601E+02  0.17279447920E+03  0.12509000000E+03 0.  0.
<mgrwt>
<rscale>  2 0.45563819E+03</rscale>
<asrwt>0</asrwt>
<pdfrwt beam="1">  1       21 0.62902269E-01 0.45563819E+03</pdfrwt>
<pdfrwt beam="2">  1       21 0.17844160E-01 0.45563819E+03</pdfrwt>
<totfact> 0.61615917E+04</totfact>
</mgrwt>
</event>
<event>
 7    0  0.4775379E-002  0.4687837E+03  0.7546771E-02  0.1022264E+00
         21   -1    0    0  502  501  0.00000000000E+00  0.00000000000E+00  0.13915936656E+03  0.13915936656E+03  0.00000000000E+00 0.  1.
         21   -1    0    0  501  502 -0.00000000000E+00 -0.00000000000E+00 -0.39479576742E+03  0.39479576742E+03  0.00000000000E+00 0.  1.
      99926    2    1    2    0    0 -0.62172489379E-14  0.00000000000E+00 -0.25563640086E+03  0.53395513398E+03  0.46878365550E+03 0.  0.
      99925    2    3    3    0    0  0.68911543453E+01 -0.10124328607E+03 -0.24292813131E+03  0.37237945760E+03  0.26335279091E+03 0.  0.
         25    1    3    3    0    0 -0.68911543453E+01  0.10124328607E+03 -0.12708269548E+02  0.16157567638E+03  0.12509000000E+03 0.  0.
         25    1    4    4    0    0  0.42532613955E+02 -0.60045423629E+02 -0.11244716430E+03  0.18359288932E+03  0.12509000000E+03 0.  0.
         25    1    4    4    0    0 -0.35641459610E+02 -0.41197862444E+02 -0.13048096700E+03  0.18878656828E+03  0.12509000000E+03 0.  0.
<mgrwt>
<rscale>  2 0.46878366E+03</rscale>
<asrwt>0</asrwt>
<pdfrwt beam="1">  1       21 0.20464613E-01 0.46878366E+03</pdfrwt>
<pdfrwt beam="2">  1       21 0.58058202E-01 0.46878366E+03</pdfrwt>
<totfact> 0.56508254E+04</totfact>
</mgrwt>
</event>
<event>
 7    0  0.4775379E-002  0.4650012E+03  0.7546771E-02  0.1023341E+00
         21   -1    0    0  502  501  0.00000000000E+00  0.00000000000E+00  0.39176903583E+03  0.39176903583E+03  0.00000000000E+00 0.  1.
         21   -1    0    0  501  502 -0.00000000000E+00 -0.00000000000E+00 -0.13798060653E+03  0.13798060653E+03  0.00000000000E+00 0.  1.
      99926    2    1    2    0    0  0.00000000000E+00  0.00000000000E+00  0.25378842929E+03  0.52974964236E+03  0.46500120079E+03 0.  0.
      99925    2    3    3    0    0 -0.40716003856E+02 -0.90810266233E+02  0.23938225477E+03  0.36925246672E+03  0.26294338337E+03 0.  0.
         25    1    3    3    0    0  0.40716003856E+02  0.90810266233E+02  0.14406174519E+02  0.16049717564E+03  0.12509000000E+03 0.  0.
         25    1    4    4    0    0 -0.99917030574E+01 -0.51338266074E+01  0.93036390494E+02  0.15629929098E+03  0.12509000000E+03 0.  0.
         25    1    4    4    0    0 -0.30724300799E+02 -0.85676439626E+02  0.14634586428E+03  0.21295317574E+03  0.12509000000E+03 0.  0.
<mgrwt>
<rscale>  2 0.46500120E+03</rscale>
<asrwt>0</asrwt>
<pdfrwt beam="1">  1       21 0.57613093E-01 0.46500120E+03</pdfrwt>
<pdfrwt beam="2">  1       21 0.20291266E-01 0.46500120E+03</pdfrwt>
<totfact> 0.58449988E+04</totfact>
</mgrwt>
</event>
<event>
 7    0  0.4775379E-002  0.4567470E+03  0.7546771E-02  0.1025729E+00
         21   -1    0    0  502  501  0.00000000000E+00  0.00000000000E+00  0.51847724479E+02  0.51847724479E+02  0.00000000000E+00 0.  1.
         21   -1    0    0  501  502 -0.00000000000E+00 -0.00000000000E+00 -0.10059158862E+04  0.10059158862E+04  0.00000000000E+00 0.  1.
      99926    2    1    2    0    0  0.00000000000E+00  0.00000000000E+00 -0.95406816173E+03  0.10577636107E+04  0.45674697467E+03 0.  0.
      99925    2    3    3    0    0 -0.79129410801E+02  0.37384266082E+02 -0.42663892236E+03  0.50868423788E+03  0.26283043353E+03 0.  0.
         25    1    3    3    0    0  0.79129410801E+02 -0.37384266082E+02 -0.52742923936E+03  0.54907937281E+03  0.12509000000E+03 0.  0.
         25    1    4    4    0    0 -0.33990943074E+02  0.17982465717E+00 -0.14169825100E+03  0.19204509623E+03  0.12509000000E+03 0.  0.
         25    1    4    4    0    0 -0.45138467727E+02  0.37204441425E+02 -0.28494067136E+03  0.31663914165E+03  0.12509000000E+03 0.  0.
<mgrwt>
<rscale>  2 0.45674697E+03</rscale>
<asrwt>0</asrwt>
<pdfrwt beam="1">  1       21 0.76246662E-02 0.45674697E+03</pdfrwt>
<pdfrwt beam="2">  1       21 0.14792879E+00 0.45674697E+03</pdfrwt>
<totfact> 0.36493687E+04</totfact>
</mgrwt>
</event>
<event>
 7    0  0.4775379E-002  0.4529327E+03  0.7546771E-02  0.1026851E+00
         21   -1    0    0  502  501  0.00000000000E+00  0.00000000000E+00  0.29134440464E+02  0.29134440464E+02  0.00000000000E+00 0. -1.
         21   -1    0    0  501  502 -0.00000000000E+00 -0.00000000000E+00 -0.17603563942E+04  0.17603563942E+04  0.00000000000E+00 0. -1.
      99926    2    1    2    0    0  0.00000000000E+00  0.00000000000E+00 -0.17312219538E+04  0.17894908347E+04  0.45293265973E+03 0.  0.
      99925    2    3    3    0    0  0.10048281576E+02 -0.10383959040E+03 -0.93927176011E+03  0.98096362684E+03  0.26301058792E+03 0.  0.
         25    1    3    3    0    0 -0.10048281576E+02  0.10383959040E+03 -0.79195019365E+03  0.80852720784E+03  0.12509000000E+03 0.  0.
         25    1    4    4    0    0  0.17436647903E+02 -0.80433753370E+02 -0.60377185208E+03  0.62206236250E+03  0.12509000000E+03 0.  0.
         25    1    4    4    0    0 -0.73883663276E+01 -0.23405837030E+02 -0.33549990803E+03  0.35890126435E+03  0.12509000000E+03 0.  0.
<mgrwt>
<rscale>  2 0.45293266E+03</rscale>
<asrwt>0</asrwt>
<pdfrwt beam="1">  1       21 0.42844765E-02 0.45293266E+03</pdfrwt>
<pdfrwt beam="2">  1       21 0.25887594E+00 0.45293266E+03</pdfrwt>
<totfact> 0.17745354E+04</totfact>
</mgrwt>
</event>
<event>
 7    0  0.4775379E-002  0.4353044E+03  0.7546771E-02  0.1032197E+00
         21   -1    0    0  502  501  0.00000000000E+00  0.00000000000E+00  0.38621456150E+02  0.38621456150E+02  0.00000000000E+00 0. -1.
         21   -1    0    0  501  502 -0.00000000000E+00 -0.00000000000E+00 -0.12265843401E+04  0.12265843401E+04  0.00000000000E+00 0. -1.
      99926    2    1    2    0    0 -0.17763568394E-14  0.00000000000E+00 -0.11879628839E+04  0.12652057962E+04  0.43530436848E+03 0.  0.
      99925    2    3    3    0    0  0.10140301012E+02  0.65933020219E+02 -0.57196441511E+03  0.63310484658E+03  0.26311302847E+03 0.  0.
         25    1    4    4    0    0  0.54859211664E-01  0.55494319022E+02 -0.21785432537E+03  0.25726958164E+03  0.12509000000E+03 0.  0.
         25    1    4    4    0    0  0.10085441800E+02  0.10438701196E+02 -0.35411008974E+03  0.37583526494E+03  0.12509000000E+03 0.  0.
         25    1    3    3    0    0 -0.10140301012E+02 -0.65933020219E+02 -0.61599846880E+03  0.63210094963E+03  0.12509000000E+03 0.  0.
<mgrwt>
<rscale>  2 0.43530437E+03</rscale>
<asrwt>0</asrwt>
<pdfrwt beam="1">  1       21 0.56796257E-02 0.43530437E+03</pdfrwt>
<pdfrwt beam="2">  1       21 0.18038006E+00 0.43530437E+03</pdfrwt>
<totfact> 0.35240407E+04</totfact>
</mgrwt>
</event>
<event>
 7    0  0.4775379E-002  0.4463590E+03  0.7546771E-02  0.1028813E+00
         21   -1    0    0  502  501  0.00000000000E+00  0.00000000000E+00  0.10109531974E+04  0.10109531974E+04  0.00000000000E+00 0. -1.
         21   -1    0    0  501  502 -0.00000000000E+00 -0.00000000000E+00 -0.49269427194E+02  0.49269427194E+02  0.00000000000E+00 0. -1.
      99926    2    1    2    0    0  0.00000000000E+00  0.00000000000E+00  0.96168377023E+03  0.10602226246E+04  0.44635898090E+03 0.  0.
      99925    2    3    3    0    0  0.32614945283E+02 -0.40566820243E+02  0.82624779198E+03  0.86865066982E+03  0.26298131278E+03 0.  0.
         25    1    4    4    0    0  0.34975088558E+02 -0.22327248764E+02  0.30441567399E+03  0.33172002280E+03  0.12509000000E+03 0.  0.
         25    1    3    3    0    0 -0.32614945283E+02  0.40566820243E+02  0.13543597826E+03  0.19157195480E+03  0.12509000000E+03 0.  0.
         25    1    4    4    0    0 -0.23601432748E+01 -0.18239571479E+02  0.52183211799E+03  0.53693064702E+03  0.12509000000E+03 0.  0.
<mgrwt>
<rscale>  2 0.44635898E+03</rscale>
<asrwt>0</asrwt>
<pdfrwt beam="1">  1       21 0.14866958E+00 0.44635898E+03</pdfrwt>
<pdfrwt beam="2">  1       21 0.72455046E-02 0.44635898E+03</pdfrwt>
<totfact> 0.39501944E+04</totfact>
</mgrwt>
</event>
<event>
 7    0  0.4775379E-002  0.4453137E+03  0.7546771E-02  0.1029129E+00
         21   -1    0    0  502  501  0.00000000000E+00  0.00000000000E+00  0.14498896181E+03  0.14498896181E+03  0.00000000000E+00 0.  1.
         21   -1    0    0  501  502 -0.00000000000E+00 -0.00000000000E+00 -0.34192995719E+03  0.34192995719E+03  0.00000000000E+00 0.  1.
      99926    2    1    2    0    0 -0.35527136788E-14  0.00000000000E+00 -0.19694099539E+03  0.48691891900E+03  0.44531368496E+03 0.  0.
      99925    2    3    3    0    0  0.26556785530E+02 -0.68661605222E+02 -0.46544975122E+02  0.27790659903E+03  0.26390521818E+03 0.  0.
         25    1    4    4    0    0 -0.20809814343E+02 -0.25465277455E+02  0.15388849698E+01  0.12934993234E+03  0.12509000000E+03 0.  0.
         25    1    3    3    0    0 -0.26556785530E+02  0.68661605222E+02 -0.15039602027E+03  0.20901231997E+03  0.12509000000E+03 0.  0.
         25    1    4    4    0    0  0.47366599872E+02 -0.43196327767E+02 -0.48083860092E+02  0.14855666669E+03  0.12509000000E+03 0.  0.
<mgrwt>
<rscale>  2 0.44531368E+03</rscale>
<asrwt>0</asrwt>
<pdfrwt beam="1">  1       21 0.21321906E-01 0.44531368E+03</pdfrwt>
<pdfrwt beam="2">  1       21 0.50283817E-01 0.44531368E+03</pdfrwt>
<totfact> 0.71545074E+04</totfact>
</mgrwt>
</event>
<event>
 7    0  0.4775379E-002  0.4689030E+03  0.7546771E-02  0.1022230E+00
         21   -1    0    0  502  501  0.00000000000E+00  0.00000000000E+00  0.23888497782E+03  0.23888497782E+03  0.00000000000E+00 0. -1.
         21   -1    0    0  501  502 -0.00000000000E+00 -0.00000000000E+00 -0.23010033979E+03  0.23010033979E+03  0.00000000000E+00 0. -1.
      99926    2    1    2    0    0  0.00000000000E+00  0.00000000000E+00  0.87846380282E+01  0.46898531762E+03  0.46890303718E+03 0.  0.
      99925    2    3    3    0    0 -0.11659977217E+03  0.46302509401E+02 -0.38601218766E+01  0.29137105214E+03  0.26295010979E+03 0.  0.
         25    1    4    4    0    0 -0.20747424316E+02  0.18818264388E+02  0.19640329652E+02  0.12968358932E+03  0.12509000000E+03 0.  0.
         25    1    3    3    0    0  0.11659977217E+03 -0.46302509401E+02  0.12644759905E+02  0.17761426547E+03  0.12509000000E+03 0.  0.
         25    1    4    4    0    0 -0.95852347849E+02  0.27484245013E+02 -0.23500451528E+02  0.16168746282E+03  0.12509000000E+03 0.  0.
<mgrwt>
<rscale>  2 0.46890304E+03</rscale>
<asrwt>0</asrwt>
<pdfrwt beam="1">  1       21 0.35130144E-01 0.46890304E+03</pdfrwt>
<pdfrwt beam="2">  1       21 0.33838285E-01 0.46890304E+03</pdfrwt>
<totfact> 0.60534116E+04</totfact>
</mgrwt>
</event>
<event>
 7    0  0.4775379E-002  0.4469318E+03  0.7546771E-02  0.1028641E+00
         21   -1    0    0  502  501  0.00000000000E+00  0.00000000000E+00  0.18344098731E+03  0.18344098731E+03  0.00000000000E+00 0.  1.
         21   -1    0    0  501  502 -0.00000000000E+00 -0.00000000000E+00 -0.27222379631E+03  0.27222379631E+03  0.00000000000E+00 0.  1.
      99926    2    1    2    0    0  0.00000000000E+00  0.00000000000E+00 -0.88782808996E+02  0.45566478362E+03  0.44693177092E+03 0.  0.
      99925    2    3    3    0    0 -0.56821433402E+02  0.79737462079E+02 -0.16229370576E+02  0.28102730861E+03  0.26291865198E+03 0.  0.
         25    1    4    4    0    0 -0.21282570343E+02  0.42374659308E+02  0.31711666740E+02  0.13748344431E+03  0.12509000000E+03 0.  0.
         25    1    3    3    0    0  0.56821433402E+02 -0.79737462079E+02 -0.72553438421E+02  0.17463747501E+03  0.12509000000E+03 0.  0.
         25    1    4    4    0    0 -0.35538863058E+02  0.37362802771E+02 -0.47941037316E+02  0.14354386430E+03  0.12509000000E+03 0.  0.
<mgrwt>
<rscale>  2 0.44693177E+03</rscale>
<asrwt>0</asrwt>
<pdfrwt beam="1">  1       21 0.26976616E-01 0.44693177E+03</pdfrwt>
<pdfrwt beam="2">  1       21 0.40032911E-01 0.44693177E+03</pdfrwt>
<totfact> 0.73084032E+04</totfact>
</mgrwt>
</event>
<event>
 7    0  0.4775379E-002  0.3916256E+03  0.7546771E-02  0.1046719E+00
         21   -1    0    0  502  501  0.00000000000E+00  0.00000000000E+00  0.40976285379E+03  0.40976285379E+03  0.00000000000E+00 0. -1.
         21   -1    0    0  501  502 -0.00000000000E+00 -0.00000000000E+00 -0.93572806253E+02  0.93572806253E+02  0.00000000000E+00 0. -1.
      99926    2    1    2    0    0  0.88817841970E-15 -0.17763568394E-14  0.31619004753E+03  0.50333566004E+03  0.39162563822E+03 0.  0.
      99925    2    3    3    0    0  0.16831508170E+01  0.91547863964E+01  0.24667348991E+03  0.35992470162E+03  0.26193765881E+03 0.  0.
         25    1    3    3    0    0 -0.16831508170E+01 -0.91547863964E+01  0.69516557626E+02  0.14341095842E+03  0.12509000000E+03 0.  0.
         25    1    4    4    0    0  0.25537647094E+02 -0.22152893343E+02  0.14110874440E+03  0.19157794223E+03  0.12509000000E+03 0.  0.
         25    1    4    4    0    0 -0.23854496277E+02  0.31307679740E+02  0.10556474550E+03  0.16834675939E+03  0.12509000000E+03 0.  0.
<mgrwt>
<rscale>  2 0.39162564E+03</rscale>
<asrwt>0</asrwt>
<pdfrwt beam="1">  1       21 0.60259242E-01 0.39162564E+03</pdfrwt>
<pdfrwt beam="2">  1       21 0.13760707E-01 0.39162564E+03</pdfrwt>
<totfact> 0.11125356E+05</totfact>
</mgrwt>
</event>
<event>
 7    0  0.4775379E-002  0.4534310E+03  0.7546771E-02  0.1026704E+00
         21   -1    0    0  502  501  0.00000000000E+00  0.00000000000E+00  0.20463352814E+02  0.20463352814E+02  0.00000000000E+00 0. -1.
         21   -1    0    0  501  502 -0.00000000000E+00 -0.00000000000E+00 -0.25118031968E+04  0.25118031968E+04  0.00000000000E+00 0. -1.
      99926    2    1    2    0    0  0.00000000000E+00  0.00000000000E+00 -0.24913398440E+04  0.25322665497E+04  0.45343098710E+03 0.  0.
      99925    2    3    3    0    0  0.71086800997E+02  0.18235357162E+02 -0.11003757375E+04  0.11337621645E+04  0.26306657041E+03 0.  0.
         25    1    4    4    0    0  0.27366095416E+02 -0.13062207689E+02 -0.39748167698E+03  0.41780224518E+03  0.12509000000E+03 0.  0.
         25    1    4    4    0    0  0.43720705581E+02  0.31297564852E+02 -0.70289406057E+03  0.71595991937E+03  0.12509000000E+03 0.  0.
         25    1    3    3    0    0 -0.71086800997E+02 -0.18235357162E+02 -0.13909641065E+04  0.13985043851E+04  0.12509000000E+03 0.  0.
<mgrwt>
<rscale>  2 0.45343099E+03</rscale>
<asrwt>0</asrwt>
<pdfrwt beam="1">  1       21 0.30093182E-02 0.45343099E+03</pdfrwt>
<pdfrwt beam="2">  1       21 0.36938262E+00 0.45343099E+03</pdfrwt>
<totfact> 0.68909529E+03</totfact>
</mgrwt>
</event>
<event>
 7    0  0.4775379E-002  0.4553938E+03  0.7546771E-02  0.1026126E+00
         21   -1    0    0  502  501  0.00000000000E+00  0.00000000000E+00  0.25555561600E+03  0.25555561600E+03  0.00000000000E+00 0. -1.
         21   -1    0    0  501  502 -0.00000000000E+00 -0.00000000000E+00 -0.20287509109E+03  0.20287509109E+03  0.00000000000E+00 0. -1.
      99926    2    1    2    0    0  0.00000000000E+00  0.00000000000E+00  0.52680524912E+02  0.45843070708E+03  0.45539375873E+03 0.  0.
      99925    2    3    3    0    0 -0.72227348726E+02 -0.80070877158E+02 -0.25199968097E+01  0.28429644575E+03  0.26303988939E+03 0.  0.
         25    1    4    4    0    0  0.59393664477E+01 -0.34380780123E+02 -0.16780589396E+01  0.12987547150E+03  0.12509000000E+03 0.  0.
         25    1    3    3    0    0  0.72227348726E+02  0.80070877158E+02  0.55200521722E+02  0.17413426134E+03  0.12509000000E+03 0.  0.
         25    1    4    4    0    0 -0.78166715174E+02 -0.45690097035E+02 -0.84193787014E+00  0.15442097425E+03  0.12509000000E+03 0.  0.
<mgrwt>
<rscale>  2 0.45539376E+03</rscale>
<asrwt>0</asrwt>
<pdfrwt beam="1">  1       21 0.37581709E-01 0.45539376E+03</pdfrwt>
<pdfrwt beam="2">  1       21 0.29834572E-01 0.45539376E+03</pdfrwt>
<totfact> 0.68080968E+04</totfact>
</mgrwt>
</event>
<event>
 7    0  0.4775379E-002  0.4519418E+03  0.7546771E-02  0.1027145E+00
         21   -1    0    0  502  501  0.00000000000E+00  0.00000000000E+00  0.43690082136E+03  0.43690082136E+03  0.00000000000E+00 0.  1.
         21   -1    0    0  501  502 -0.00000000000E+00 -0.00000000000E+00 -0.11687514009E+03  0.11687514009E+03  0.00000000000E+00 0.  1.
      99926    2    1    2    0    0  0.00000000000E+00  0.00000000000E+00  0.32002568127E+03  0.55377596145E+03  0.45194178696E+03 0.  0.
      99925    2    3    3    0    0  0.93980258653E+02 -0.40937328394E+02  0.25196513106E+03  0.37831114883E+03  0.26291585001E+03 0.  0.
         25    1    3    3    0    0 -0.93980258653E+02  0.40937328394E+02  0.68060550211E+02  0.17546481262E+03  0.12509000000E+03 0.  0.
         25    1    4    4    0    0  0.26067235971E+02  0.14420371465E+02  0.13013228181E+03  0.18294634944E+03  0.12509000000E+03 0.  0.
         25    1    4    4    0    0  0.67913022682E+02 -0.55357699859E+02  0.12183284926E+03  0.19536479939E+03  0.12509000000E+03 0.  0.
<mgrwt>
<rscale>  2 0.45194179E+03</rscale>
<asrwt>0</asrwt>
<pdfrwt beam="1">  1       21 0.64250121E-01 0.45194179E+03</pdfrwt>
<pdfrwt beam="2">  1       21 0.17187521E-01 0.45194179E+03</pdfrwt>
<totfact> 0.63131259E+04</totfact>
</mgrwt>
</event>
<event>
 7    0  0.4775379E-002  0.4547781E+03  0.7546771E-02  0.1026307E+00
         21   -1    0    0  502  501  0.00000000000E+00  0.00000000000E+00  0.19260762668E+03  0.19260762668E+03  0.00000000000E+00 0. -1.
         21   -1    0    0  501  502 -0.00000000000E+00 -0.00000000000E+00 -0.26845133622E+03  0.26845133622E+03  0.00000000000E+00 0. -1.
      99926    2    1    2    0    0  0.00000000000E+00  0.00000000000E+00 -0.75843709538E+02  0.46105896290E+03  0.45477807664E+03 0.  0.
      99925    2    3    3    0    0  0.93502222822E+02  0.16407149118E+02 -0.10940483269E+03  0.30047964511E+03  0.26326173192E+03 0.  0.
         25    1    3    3    0    0 -0.93502222822E+02 -0.16407149118E+02  0.33561123157E+02  0.16057931779E+03  0.12509000000E+03 0.  0.
         25    1    4    4    0    0  0.27671648809E+02  0.41454962784E+02 -0.69223252250E+02  0.15140541879E+03  0.12509000000E+03 0.  0.
         25    1    4    4    0    0  0.65830574013E+02 -0.25047813667E+02 -0.40181580445E+02  0.14907422631E+03  0.12509000000E+03 0.  0.
<mgrwt>
<rscale>  2 0.45477808E+03</rscale>
<asrwt>0</asrwt>
<pdfrwt beam="1">  1       21 0.28324651E-01 0.45477808E+03</pdfrwt>
<pdfrwt beam="2">  1       21 0.39478137E-01 0.45477808E+03</pdfrwt>
<totfact> 0.68223908E+04</totfact>
</mgrwt>
</event>
<event>
 7    0  0.4775379E-002  0.4760295E+03  0.7546771E-02  0.1020232E+00
         21   -1    0    0  502  501  0.00000000000E+00  0.00000000000E+00  0.94619489106E+02  0.94619489106E+02  0.00000000000E+00 0.  1.
         21   -1    0    0  501  502 -0.00000000000E+00 -0.00000000000E+00 -0.59872464142E+03  0.59872464142E+03  0.00000000000E+00 0.  1.
      99926    2    1    2    0    0  0.00000000000E+00  0.00000000000E+00 -0.50410515231E+03  0.69334413052E+03  0.47602949357E+03 0.  0.
      99925    2    3    3    0    0  0.51893107593E+02  0.11333523075E+03 -0.37431118769E+03  0.47418265924E+03  0.26306379444E+03 0.  0.
         25    1    4    4    0    0 -0.13088617957E+02  0.60860649693E+02 -0.16102148217E+03  0.21319183010E+03  0.12509000000E+03 0.  0.
         25    1    4    4    0    0  0.64981725550E+02  0.52474581057E+02 -0.21328970552E+03  0.26099082913E+03  0.12509000000E+03 0.  0.
         25    1    3    3    0    0 -0.51893107593E+02 -0.11333523075E+03 -0.12979396462E+03  0.21916147129E+03  0.12509000000E+03 0.  0.
<mgrwt>
<rscale>  2 0.47602949E+03</rscale>
<asrwt>0</asrwt>
<pdfrwt beam="1">  1       21 0.13914631E-01 0.47602949E+03</pdfrwt>
<pdfrwt beam="2">  1       21 0.88047742E-01 0.47602949E+03</pdfrwt>
<totfact> 0.45285211E+04</totfact>
</mgrwt>
</event>
<event>
 7    0  0.4775379E-002  0.4560004E+03  0.7546771E-02  0.1025948E+00
         21   -1    0    0  502  501  0.00000000000E+00  0.00000000000E+00  0.70911961825E+03  0.70911961825E+03  0.00000000000E+00 0. -1.
         21   -1    0    0  501  502 -0.00000000000E+00 -0.00000000000E+00 -0.73307944580E+02  0.73307944580E+02  0.00000000000E+00 0. -1.
      99926    2    1    2    0    0  0.00000000000E+00  0.00000000000E+00  0.63581167367E+03  0.78242756283E+03  0.45600044595E+03 0.  0.
      99925    2    3    3    0    0  0.97571938974E+02 -0.54471611990E+02  0.36002357028E+03  0.45963656875E+03  0.26298548323E+03 0.  0.
         25    1    4    4    0    0  0.19336479763E+02  0.49484823787E+01  0.15739766076E+03  0.20203939874E+03  0.12509000000E+03 0.  0.
         25    1    4    4    0    0  0.78235459211E+02 -0.59420094369E+02  0.20262590952E+03  0.25759717002E+03  0.12509000000E+03 0.  0.
         25    1    3    3    0    0 -0.97571938974E+02  0.54471611990E+02  0.27578810339E+03  0.32279099408E+03  0.12509000000E+03 0.  0.
<mgrwt>
<rscale>  2 0.45600045E+03</rscale>
<asrwt>0</asrwt>
<pdfrwt beam="1">  1       21 0.10428229E+00 0.45600045E+03</pdfrwt>
<pdfrwt beam="2">  1       21 0.10780581E-01 0.45600045E+03</pdfrwt>
<totfact> 0.48246579E+04</totfact>
</mgrwt>
</event>
<event>
 7    0  0.4775379E-002  0.4477335E+03  0.7546771E-02  0.1028400E+00
         21   -1    0    0  502  501  0.00000000000E+00  0.00000000000E+00  0.41574158760E+02  0.41574158760E+02  0.00000000000E+00 0. -1.
         21   -1    0    0  501  502 -0.00000000000E+00 -0.00000000000E+00 -0.12054682358E+04  0.12054682358E+04  0.00000000000E+00 0. -1.
      99926    2    1    2    0    0  0.00000000000E+00  0.00000000000E+00 -0.11638940771E+04  0.12470423946E+04  0.44773352707E+03 0.  0.
      99925    2    3    3    0    0 -0.50473959602E+02 -0.50037051383E+01 -0.48070333301E+03  0.55064469318E+03  0.26374462287E+03 0.  0.
         25    1    3    3    0    0  0.50473959602E+02  0.50037051383E+01 -0.68319074405E+03  0.69639770140E+03  0.12509000000E+03 0.  0.
         25    1    4    4    0    0 -0.98618472548E+01 -0.27249735451E+01 -0.31498001992E+03  0.33906430446E+03  0.12509000000E+03 0.  0.
         25    1    4    4    0    0 -0.40612112347E+02 -0.22787315933E+01 -0.16572331309E+03  0.21158038872E+03  0.12509000000E+03 0.  0.
<mgrwt>
<rscale>  2 0.44773353E+03</rscale>
<asrwt>0</asrwt>
<pdfrwt beam="1">  1       21 0.61138470E-02 0.44773353E+03</pdfrwt>
<pdfrwt beam="2">  1       21 0.17727474E+00 0.44773353E+03</pdfrwt>
<totfact> 0.32491584E+04</totfact>
</mgrwt>
</event>
<event>
 7    0  0.4775379E-002  0.4447650E+03  0.7546771E-02  0.1029295E+00
         21   -1    0    0  502  501  0.00000000000E+00  0.00000000000E+00  0.35986563225E+03  0.35986563225E+03  0.00000000000E+00 0.  1.
         21   -1    0    0  501  502 -0.00000000000E+00 -0.00000000000E+00 -0.13742343176E+03  0.13742343176E+03  0.00000000000E+00 0.  1.
      99926    2    1    2    0    0 -0.35527136788E-14  0.35527136788E-14  0.22244220049E+03  0.49728906401E+03  0.44476497234E+03 0.  0.
      99925    2    3    3    0    0  0.19004456206E+02  0.23808215098E+02  0.25162772064E+03  0.36527655268E+03  0.26302556849E+03 0.  0.
         25    1    4    4    0    0  0.29492221266E+02 -0.20204166577E+02  0.14488019269E+03  0.19471974167E+03  0.12509000000E+03 0.  0.
         25    1    4    4    0    0 -0.10487765060E+02  0.44012381675E+02  0.10674752796E+03  0.17055681101E+03  0.12509000000E+03 0.  0.
         25    1    3    3    0    0 -0.19004456206E+02 -0.23808215098E+02 -0.29185520148E+02  0.13201251133E+03  0.12509000000E+03 0.  0.
<mgrwt>
<rscale>  2 0.44476497E+03</rscale>
<asrwt>0</asrwt>
<pdfrwt beam="1">  1       21 0.52921417E-01 0.44476497E+03</pdfrwt>
<pdfrwt beam="2">  1       21 0.20209328E-01 0.44476497E+03</pdfrwt>
<totfact> 0.71061539E+04</totfact>
</mgrwt>
</event>
<event>
 7    0  0.4775379E-002  0.4559559E+03  0.7546771E-02  0.1025961E+00
         21   -1    0    0  502  501  0.00000000000E+00  0.00000000000E+00  0.70065172646E+03  0.70065172646E+03  0.00000000000E+00 0. -1.
         21   -1    0    0  501  502 -0.00000000000E+00 -0.00000000000E+00 -0.74179428153E+02  0.74179428153E+02  0.00000000000E+00 0. -1.
      99926    2    1    2    0    0  0.00000000000E+00 -0.14210854715E-13  0.62647229830E+03  0.77483115461E+03  0.45595589437E+03 0.  0.
      99925    2    3    3    0    0  0.55093161635E+02 -0.98841938460E+02  0.36915317590E+03  0.46715336193E+03  0.26296998122E+03 0.  0.
         25    1    3    3    0    0 -0.55093161635E+02  0.98841938460E+02  0.25731912240E+03  0.30767779268E+03  0.12509000000E+03 0.  0.
         25    1    4    4    0    0  0.38146953724E+02 -0.91867537580E+02  0.20229851673E+03  0.25781201002E+03  0.12509000000E+03 0.  0.
         25    1    4    4    0    0  0.16946207912E+02 -0.69744008799E+01  0.16685465917E+03  0.20934135190E+03  0.12509000000E+03 0.  0.
<mgrwt>
<rscale>  2 0.45595589E+03</rscale>
<asrwt>0</asrwt>
<pdfrwt beam="1">  1       21 0.10303702E+00 0.45595589E+03</pdfrwt>
<pdfrwt beam="2">  1       21 0.10908740E-01 0.45595589E+03</pdfrwt>
<totfact> 0.48640309E+04</totfact>
</mgrwt>
</event>
<event>
 5    0  0.9124885E-002  0.6376200E+03  0.7546771E-02  0.9830291E-01
         21   -1    0    0  502  501  0.00000000000E+00  0.00000000000E+00  0.32486664651E+03  0.32486664651E+03  0.00000000000E+00 0.  1.
         21   -1    0    0  501  502 -0.00000000000E+00 -0.00000000000E+00 -0.31286623013E+03  0.31286623013E+03  0.00000000000E+00 0.  1.
         25    1    1    2    0    0 -0.10501797728E+03  0.48039001017E+02 -0.21018217805E+03  0.27048212001E+03  0.12509000000E+03 0.  0.
         25    1    1    2    0    0  0.39926673818E+02 -0.71328058850E+02  0.11744094325E+03  0.19005713487E+03  0.12509000000E+03 0.  0.
         25    1    1    2    0    0  0.65091303466E+02  0.23289057833E+02  0.10474165118E+03  0.17719362176E+03  0.12509000000E+03 0.  0.
<mgrwt>
<rscale>  2 0.63761996E+03</rscale>
<asrwt>0</asrwt>
<pdfrwt beam="1">  1       21 0.47774507E-01 0.63761996E+03</pdfrwt>
<pdfrwt beam="2">  1       21 0.46009740E-01 0.63761996E+03</pdfrwt>
<totfact> 0.16407755E+04</totfact>
</mgrwt>
</event>
<event>
 7    0  0.4775379E-002  0.4610481E+03  0.7546771E-02  0.1024478E+00
         21   -1    0    0  502  501  0.00000000000E+00  0.00000000000E+00  0.20140065981E+03  0.20140065981E+03  0.00000000000E+00 0.  1.
         21   -1    0    0  501  502 -0.00000000000E+00 -0.00000000000E+00 -0.26385881049E+03  0.26385881049E+03  0.00000000000E+00 0.  1.
      99926    2    1    2    0    0  0.00000000000E+00  0.00000000000E+00 -0.62458150681E+02  0.46525947031E+03  0.46104810391E+03 0.  0.
      99925    2    3    3    0    0 -0.30224321544E+02 -0.10191295253E+03 -0.92677016190E+02  0.29834497890E+03  0.26290861074E+03 0.  0.
         25    1    3    3    0    0  0.30224321544E+02  0.10191295253E+03  0.30218865509E+02  0.16691449140E+03  0.12509000000E+03 0.  0.
         25    1    4    4    0    0 -0.37133922799E+02 -0.62096756656E+02 -0.14097321590E+02  0.14519358796E+03  0.12509000000E+03 0.  0.
         25    1    4    4    0    0  0.69096012549E+01 -0.39816195879E+02 -0.78579694601E+02  0.15315139094E+03  0.12509000000E+03 0.  0.
<mgrwt>
<rscale>  2 0.46104810E+03</rscale>
<asrwt>0</asrwt>
<pdfrwt beam="1">  1       21 0.29617744E-01 0.46104810E+03</pdfrwt>
<pdfrwt beam="2">  1       21 0.38802766E-01 0.46104810E+03</pdfrwt>
<totfact> 0.64625221E+04</totfact>
</mgrwt>
</event>
<event>
 7    0  0.4775379E-002  0.4562961E+03  0.7546771E-02  0.1025861E+00
         21   -1    0    0  502  501  0.00000000000E+00  0.00000000000E+00  0.79610105964E+02  0.79610105964E+02  0.00000000000E+00 0. -1.
         21   -1    0    0  501  502 -0.00000000000E+00 -0.00000000000E+00 -0.65383083815E+03  0.65383083815E+03  0.00000000000E+00 0. -1.
      99926    2    1    2    0    0  0.00000000000E+00  0.00000000000E+00 -0.57422073219E+03  0.73344094412E+03  0.45629614203E+03 0.  0.
      99925    2    3    3    0    0  0.31146397256E+02 -0.42199017186E+02 -0.52415292225E+03  0.58885481475E+03  0.26317836506E+03 0.  0.
         25    1    4    4    0    0  0.12874568920E+02  0.16191103428E+02 -0.21147013614E+03  0.24656648786E+03  0.12509000000E+03 0.  0.
         25    1    4    4    0    0  0.18271828336E+02 -0.58390120614E+02 -0.31268278611E+03  0.34228832689E+03  0.12509000000E+03 0.  0.
         25    1    3    3    0    0 -0.31146397256E+02  0.42199017186E+02 -0.50067809937E+02  0.14458612937E+03  0.12509000000E+03 0.  0.
<mgrwt>
<rscale>  2 0.45629614E+03</rscale>
<asrwt>0</asrwt>
<pdfrwt beam="1">  1       21 0.11707368E-01 0.45629614E+03</pdfrwt>
<pdfrwt beam="2">  1       21 0.96151595E-01 0.45629614E+03</pdfrwt>
<totfact> 0.50606951E+04</totfact>
</mgrwt>
</event>
<event>
 7    0  0.4775379E-002  0.4406173E+03  0.7546771E-02  0.1030558E+00
         21   -1    0    0  502  501  0.00000000000E+00  0.00000000000E+00  0.43625013763E+03  0.43625013763E+03  0.00000000000E+00 0. -1.
         21   -1    0    0  501  502 -0.00000000000E+00 -0.00000000000E+00 -0.11125702122E+03  0.11125702122E+03  0.00000000000E+00 0. -1.
      99926    2    1    2    0    0  0.17763568394E-14  0.88817841970E-15  0.32499311641E+03  0.54750715885E+03  0.44061725259E+03 0.  0.
      99925    2    3    3    0    0  0.14254398193E+02 -0.44484039929E+01  0.32902897791E+03  0.42146441831E+03  0.26296237646E+03 0.  0.
         25    1    3    3    0    0 -0.14254398193E+02  0.44484039929E+01 -0.40358614963E+01  0.12604274054E+03  0.12509000000E+03 0.  0.
         25    1    4    4    0    0  0.23696771080E+02  0.28345123724E+02  0.13177285883E+03  0.18540921612E+03  0.12509000000E+03 0.  0.
         25    1    4    4    0    0 -0.94423728864E+01 -0.32793527717E+02  0.19725611908E+03  0.23605520219E+03  0.12509000000E+03 0.  0.
<mgrwt>
<rscale>  2 0.44061725E+03</rscale>
<asrwt>0</asrwt>
<pdfrwt beam="1">  1       21 0.64154432E-01 0.44061725E+03</pdfrwt>
<pdfrwt beam="2">  1       21 0.16361327E-01 0.44061725E+03</pdfrwt>
<totfact> 0.69622752E+04</totfact>
</mgrwt>
</event>
<event>
 7    0  0.4775379E-002  0.4322738E+03  0.7546771E-02  0.1033144E+00
         21   -1    0    0  502  501  0.00000000000E+00  0.00000000000E+00  0.75253793925E+03  0.75253793925E+03  0.00000000000E+00 0. -1.
         21   -1    0    0  501  502 -0.00000000000E+00 -0.00000000000E+00 -0.62076823464E+02  0.62076823464E+02  0.00000000000E+00 0. -1.
      99926    2    1    2    0    0  0.14210854715E-13 -0.71054273576E-14  0.69046111578E+03  0.81461476271E+03  0.43227382435E+03 0.  0.
      99925    2    3    3    0    0 -0.65087131062E+02  0.59890940318E+02  0.47792011200E+03  0.55261391204E+03  0.26296623922E+03 0.  0.
         25    1    4    4    0    0 -0.88953499466E+01  0.58135962170E+02  0.27360900620E+03  0.30654251536E+03  0.12509000000E+03 0.  0.
         25    1    4    4    0    0 -0.56191781116E+02  0.17549781476E+01  0.20431110579E+03  0.24607139668E+03  0.12509000000E+03 0.  0.
         25    1    3    3    0    0  0.65087131062E+02 -0.59890940318E+02  0.21254100379E+03  0.26200085067E+03  0.12509000000E+03 0.  0.
<mgrwt>
<rscale>  2 0.43227382E+03</rscale>
<asrwt>0</asrwt>
<pdfrwt beam="1">  1       21 0.11066734E+00 0.43227382E+03</pdfrwt>
<pdfrwt beam="2">  1       21 0.91289451E-02 0.43227382E+03</pdfrwt>
<totfact> 0.56485476E+04</totfact>
</mgrwt>
</event>
<event>
 7    0  0.4775379E-002  0.4557095E+03  0.7546771E-02  0.1026033E+00
         21   -1    0    0  502  501  0.00000000000E+00  0.00000000000E+00  0.44546603143E+03  0.44546603143E+03  0.00000000000E+00 0. -1.
         21   -1    0    0  501  502 -0.00000000000E+00 -0.00000000000E+00 -0.11654714761E+03  0.11654714761E+03  0.00000000000E+00 0. -1.
      99926    2    1    2    0    0  0.00000000000E+00  0.14210854715E-13  0.32891888382E+03  0.56201317904E+03  0.45570953609E+03 0.  0.
      99925    2    3    3    0    0 -0.52678962359E+02  0.76057579703E+02  0.12508400358E+03  0.30558386128E+03  0.26301266095E+03 0.  0.
         25    1    3    3    0    0  0.52678962359E+02 -0.76057579703E+02  0.20383488024E+03  0.25642931776E+03  0.12509000000E+03 0.  0.
         25    1    4    4    0    0 -0.18842246057E+02  0.15242272647E+02  0.22286942640E+02  0.12935058185E+03  0.12509000000E+03 0.  0.
         25    1    4    4    0    0 -0.33836716302E+02  0.60815307056E+02  0.10279706094E+03  0.17623327943E+03  0.12509000000E+03 0.  0.
<mgrwt>
<rscale>  2 0.45570954E+03</rscale>
<asrwt>0</asrwt>
<pdfrwt beam="1">  1       21 0.65509710E-01 0.45570954E+03</pdfrwt>
<pdfrwt beam="2">  1       21 0.17139287E-01 0.45570954E+03</pdfrwt>
<totfact> 0.60737999E+04</totfact>
</mgrwt>
</event>
<event>
 7    0  0.4775379E-002  0.4420101E+03  0.7546771E-02  0.1030132E+00
         21   -1    0    0  502  501  0.00000000000E+00  0.00000000000E+00  0.14767520536E+03  0.14767520536E+03  0.00000000000E+00 0. -1.
         21   -1    0    0  501  502 -0.00000000000E+00 -0.00000000000E+00 -0.33074771800E+03  0.33074771800E+03  0.00000000000E+00 0. -1.
      99926    2    1    2    0    0 -0.44408920985E-15  0.00000000000E+00 -0.18307251264E+03  0.47842292335E+03  0.44201012285E+03 0.  0.
      99925    2    3    3    0    0 -0.39424000414E+01 -0.56298357554E+02 -0.20712490986E+03  0.33909929473E+03  0.26249296337E+03 0.  0.
         25    1    4    4    0    0  0.11317943086E+02 -0.65082853312E+02 -0.12165894425E+03  0.18658049321E+03  0.12509000000E+03 0.  0.
         25    1    3    3    0    0  0.39424000414E+01  0.56298357554E+02  0.24052397219E+02  0.13932362863E+03  0.12509000000E+03 0.  0.
         25    1    4    4    0    0 -0.15260343128E+02  0.87844957583E+01 -0.85465965611E+02  0.15251880152E+03  0.12509000000E+03 0.  0.
<mgrwt>
<rscale>  2 0.44201012E+03</rscale>
<asrwt>0</asrwt>
<pdfrwt beam="1">  1       21 0.21716942E-01 0.44201012E+03</pdfrwt>
<pdfrwt beam="2">  1       21 0.48639370E-01 0.44201012E+03</pdfrwt>
<totfact> 0.74173680E+04</totfact>
</mgrwt>
</event>
<event>
 7    0  0.4775379E-002  0.4242079E+03  0.7546771E-02  0.1035705E+00
         21   -1    0    0  502  501  0.00000000000E+00  0.00000000000E+00  0.35694357174E+02  0.35694357174E+02  0.00000000000E+00 0.  1.
         21   -1    0    0  501  502 -0.00000000000E+00 -0.00000000000E+00 -0.12603694758E+04  0.12603694758E+04  0.00000000000E+00 0.  1.
      99926    2    1    2    0    0  0.00000000000E+00 -0.53290705182E-14 -0.12246751186E+04  0.12960638330E+04  0.42420786527E+03 0.  0.
      99925    2    3    3    0    0  0.64624480477E+02 -0.12486286671E+02 -0.65195379105E+03  0.70615752008E+03  0.26321562771E+03 0.  0.
         25    1    4    4    0    0  0.18186624162E+02 -0.38927221666E+02 -0.37412870710E+03  0.39681970650E+03  0.12509000000E+03 0.  0.
         25    1    4    4    0    0  0.46437856315E+02  0.26440934995E+02 -0.27782508394E+03  0.30933781358E+03  0.12509000000E+03 0.  0.
         25    1    3    3    0    0 -0.64624480477E+02  0.12486286671E+02 -0.57272132757E+03  0.58990631289E+03  0.12509000000E+03 0.  0.
<mgrwt>
<rscale>  2 0.42420787E+03</rscale>
<asrwt>0</asrwt>
<pdfrwt beam="1">  1       21 0.52491703E-02 0.42420787E+03</pdfrwt>
<pdfrwt beam="2">  1       21 0.18534845E+00 0.42420787E+03</pdfrwt>
<totfact> 0.37420034E+04</totfact>
</mgrwt>
</event>
<event>
 7    0  0.4775379E-002  0.4104456E+03  0.7546771E-02  0.1040222E+00
         21   -1    0    0  502  501  0.00000000000E+00  0.00000000000E+00  0.74377913785E+02  0.74377913785E+02  0.00000000000E+00 0. -1.
         21   -1    0    0  501  502 -0.00000000000E+00 -0.00000000000E+00 -0.56624871550E+03  0.56624871550E+03  0.00000000000E+00 0. -1.
      99926    2    1    2    0    0  0.00000000000E+00  0.88817841970E-15 -0.49187080171E+03  0.64062662928E+03  0.41044560245E+03 0.  0.
      99925    2    3    3    0    0 -0.62174488150E+02  0.30622088614E+01 -0.31108700863E+03  0.41214176755E+03  0.26307920009E+03 0.  0.
         25    1    4    4    0    0 -0.68771884469E+02 -0.14519135063E+02 -0.17602361590E+03  0.22709513167E+03  0.12509000000E+03 0.  0.
         25    1    3    3    0    0  0.62174488150E+02 -0.30622088614E+01 -0.18078379308E+03  0.22848486173E+03  0.12509000000E+03 0.  0.
         25    1    4    4    0    0  0.65973963193E+01  0.17581343925E+02 -0.13506339274E+03  0.18504663588E+03  0.12509000000E+03 0.  0.
<mgrwt>
<rscale>  2 0.41044560E+03</rscale>
<asrwt>0</asrwt>
<pdfrwt beam="1">  1       21 0.10937929E-01 0.41044560E+03</pdfrwt>
<pdfrwt beam="2">  1       21 0.83271870E-01 0.41044560E+03</pdfrwt>
<totfact> 0.81241834E+04</totfact>
</mgrwt>
</event>
<event>
 7    0  0.4775379E-002  0.4578925E+03  0.7546771E-02  0.1025394E+00
         21   -1    0    0  502  501  0.00000000000E+00  0.00000000000E+00  0.39530388656E+03  0.39530388656E+03  0.00000000000E+00 0.  1.
         21   -1    0    0  501  502 -0.00000000000E+00 -0.00000000000E+00 -0.13259771470E+03  0.13259771470E+03  0.00000000000E+00 0.  1.
      99926    2    1    2    0    0  0.00000000000E+00  0.71054273576E-14  0.26270617186E+03  0.52790160126E+03  0.45789252875E+03 0.  0.
      99925    2    3    3    0    0 -0.38685343883E+02  0.48032325047E+02  0.27789303790E+03  0.38760973022E+03  0.26308383144E+03 0.  0.
         25    1    4    4    0    0  0.13088338500E+02  0.47832158820E+02  0.12980430674E+03  0.18696493299E+03  0.12509000000E+03 0.  0.
         25    1    3    3    0    0  0.38685343883E+02 -0.48032325047E+02 -0.15186866046E+02  0.14029187104E+03  0.12509000000E+03 0.  0.
         25    1    4    4    0    0 -0.51773682383E+02  0.20016622742E+00  0.14808873117E+03  0.20064479722E+03  0.12509000000E+03 0.  0.
<mgrwt>
<rscale>  2 0.45789253E+03</rscale>
<asrwt>0</asrwt>
<pdfrwt beam="1">  1       21 0.58132924E-01 0.45789253E+03</pdfrwt>
<pdfrwt beam="2">  1       21 0.19499664E-01 0.45789253E+03</pdfrwt>
<totfact> 0.61916892E+04</totfact>
</mgrwt>
</event>
<event>
 7    0  0.4775379E-002  0.4589179E+03  0.7546771E-02  0.1025096E+00
         21   -1    0    0  502  501  0.00000000000E+00  0.00000000000E+00  0.21408580010E+03  0.21408580010E+03  0.00000000000E+00 0.  1.
         21   -1    0    0  501  502 -0.00000000000E+00 -0.00000000000E+00 -0.24593606514E+03  0.24593606514E+03  0.00000000000E+00 0.  1.
      99926    2    1    2    0    0 -0.66613381478E-15 -0.71054273576E-14 -0.31850265036E+02  0.46002186524E+03  0.45891794160E+03 0.  0.
      99925    2    3    3    0    0  0.14141925499E+01 -0.49751726181E+02  0.86014152907E+02  0.28108957829E+03  0.26293665078E+03 0.  0.
         25    1    4    4    0    0  0.15296316342E+02 -0.47275182118E+01  0.80996414662E+01  0.12637024576E+03  0.12509000000E+03 0.  0.
         25    1    4    4    0    0 -0.13882123792E+02 -0.45024207970E+02  0.77914511440E+02  0.15471933253E+03  0.12509000000E+03 0.  0.
         25    1    3    3    0    0 -0.14141925499E+01  0.49751726181E+02 -0.11786441794E+03  0.17893228696E+03  0.12509000000E+03 0.  0.
<mgrwt>
<rscale>  2 0.45891794E+03</rscale>
<asrwt>0</asrwt>
<pdfrwt beam="1">  1       21 0.31483206E-01 0.45891794E+03</pdfrwt>
<pdfrwt beam="2">  1       21 0.36167068E-01 0.45891794E+03</pdfrwt>
<totfact> 0.66089225E+04</totfact>
</mgrwt>
</event>
<event>
 7    0  0.4775379E-002  0.4498637E+03  0.7546771E-02  0.1027763E+00
         21   -1    0    0  502  501  0.00000000000E+00  0.00000000000E+00  0.20938040993E+04  0.20938040993E+04  0.00000000000E+00 0. -1.
         21   -1    0    0  501  502 -0.00000000000E+00 -0.00000000000E+00 -0.24163839559E+02  0.24163839559E+02  0.00000000000E+00 0. -1.
      99926    2    1    2    0    0  0.00000000000E+00 -0.88817841970E-15  0.20696402597E+04  0.21179679389E+04  0.44986374081E+03 0.  0.
      99925    2    3    3    0    0  0.74977669887E+02 -0.52147405734E+01  0.16751299491E+04  0.16973318280E+04  0.26310861500E+03 0.  0.
         25    1    4    4    0    0  0.45423513740E+02  0.17881198426E+02  0.10615149058E+04  0.10699740353E+04  0.12509000000E+03 0.  0.
         25    1    3    3    0    0 -0.74977669887E+02  0.52147405734E+01  0.39451031063E+03  0.42063611090E+03  0.12509000000E+03 0.  0.
         25    1    4    4    0    0  0.29554156147E+02 -0.23095939000E+02  0.61361504327E+03  0.62735779263E+03  0.12509000000E+03 0.  0.
<mgrwt>
<rscale>  2 0.44986374E+03</rscale>
<asrwt>0</asrwt>
<pdfrwt beam="1">  1       21 0.30791224E+00 0.44986374E+03</pdfrwt>
<pdfrwt beam="2">  1       21 0.35535073E-02 0.44986374E+03</pdfrwt>
<totfact> 0.12363477E+04</totfact>
</mgrwt>
</event>
<event>
 6    0  0.4775379E-002  0.4572430E+03  0.7546771E-02  0.1025584E+00
         21   -1    0    0  502  501  0.00000000000E+00  0.00000000000E+00  0.54421414706E+03  0.54421414706E+03  0.00000000000E+00 0. -1.
         21   -1    0    0  501  502 -0.00000000000E+00 -0.00000000000E+00 -0.96042676508E+02  0.96042676508E+02  0.00000000000E+00 0. -1.
      99926    2    1    2    0    0  0.00000000000E+00  0.00000000000E+00  0.44817147055E+03  0.64025682357E+03  0.45724296945E+03 0.  0.
         25    1    3    3    0    0 -0.21418197834E+01  0.20567366050E+02  0.17397619823E+03  0.21527384790E+03  0.12509000000E+03 0.  0.
         25    1    3    3    0    0  0.70256944825E+02 -0.69201224205E+02  0.77023005150E+02  0.17693190540E+03  0.12509000000E+03 0.  0.
         25    1    3    3    0    0 -0.68115125041E+02  0.48633858155E+02  0.19717226717E+03  0.24805107026E+03  0.12509000000E+03 0.  0.
<mgrwt>
<rscale>  2 0.45724297E+03</rscale>
<asrwt>0</asrwt>
<pdfrwt beam="1">  1       21 0.80031491E-01 0.45724297E+03</pdfrwt>
<pdfrwt beam="2">  1       21 0.14123923E-01 0.45724297E+03</pdfrwt>
<totfact> 0.55281279E+04</totfact>
</mgrwt>
</event>
<event>
 7    0  0.4775379E-002  0.4500653E+03  0.7546771E-02  0.1027703E+00
         21   -1    0    0  502  501  0.00000000000E+00  0.00000000000E+00  0.54187110020E+02  0.54187110020E+02  0.00000000000E+00 0. -1.
         21   -1    0    0  501  502 -0.00000000000E+00 -0.00000000000E+00 -0.93453401109E+03  0.93453401109E+03  0.00000000000E+00 0. -1.
      99926    2    1    2    0    0  0.00000000000E+00  0.00000000000E+00 -0.88034690107E+03  0.98872112111E+03  0.45006531649E+03 0.  0.
      99925    2    3    3    0    0  0.85903601308E+02  0.33078716104E+02 -0.43258682688E+03  0.51479051193E+03  0.26344691725E+03 0.  0.
         25    1    4    4    0    0  0.17738592346E+02  0.31698125904E+02 -0.15252349854E+03  0.20057505964E+03  0.12509000000E+03 0.  0.
         25    1    3    3    0    0 -0.85903601308E+02 -0.33078716104E+02 -0.44776007419E+03  0.47393060917E+03  0.12509000000E+03 0.  0.
         25    1    4    4    0    0  0.68165008962E+02  0.13805901997E+01 -0.28006332834E+03  0.31421545229E+03  0.12509000000E+03 0.  0.
<mgrwt>
<rscale>  2 0.45006532E+03</rscale>
<asrwt>0</asrwt>
<pdfrwt beam="1">  1       21 0.79686927E-02 0.45006532E+03</pdfrwt>
<pdfrwt beam="2">  1       21 0.13743147E+00 0.45006532E+03</pdfrwt>
<totfact> 0.41172532E+04</totfact>
</mgrwt>
</event>
<event>
 7    0  0.4775379E-002  0.4568883E+03  0.7546771E-02  0.1025688E+00
         21   -1    0    0  502  501  0.00000000000E+00  0.00000000000E+00  0.18335422834E+03  0.18335422834E+03  0.00000000000E+00 0.  1.
         21   -1    0    0  501  502 -0.00000000000E+00 -0.00000000000E+00 -0.28462245903E+03  0.28462245903E+03  0.00000000000E+00 0.  1.
      99926    2    1    2    0    0  0.00000000000E+00  0.00000000000E+00 -0.10126823068E+03  0.46797668737E+03  0.45688830733E+03 0.  0.
      99925    2    3    3    0    0 -0.10426086123E+03 -0.46570728858E+02 -0.48899084587E+02  0.29069387508E+03  0.26281675853E+03 0.  0.
         25    1    4    4    0    0 -0.40479841386E+02 -0.61847902973E+02 -0.23374670226E+02  0.14716543062E+03  0.12509000000E+03 0.  0.
         25    1    4    4    0    0 -0.63781019844E+02  0.15277174115E+02 -0.25524414362E+02  0.14352844446E+03  0.12509000000E+03 0.  0.
         25    1    3    3    0    0  0.10426086123E+03  0.46570728858E+02 -0.52369146096E+02  0.17728281229E+03  0.12509000000E+03 0.  0.
<mgrwt>
<rscale>  2 0.45688831E+03</rscale>
<asrwt>0</asrwt>
<pdfrwt beam="1">  1       21 0.26963857E-01 0.45688831E+03</pdfrwt>
<pdfrwt beam="2">  1       21 0.41856244E-01 0.45688831E+03</pdfrwt>
<totfact> 0.66583970E+04</totfact>
</mgrwt>
</event>
<event>
 7    0  0.4775379E-002  0.4444669E+03  0.7546771E-02  0.1029385E+00
         21   -1    0    0  502  501  0.00000000000E+00  0.00000000000E+00  0.75897422092E+02  0.75897422092E+02  0.00000000000E+00 0.  1.
         21   -1    0    0  501  502 -0.00000000000E+00 -0.00000000000E+00 -0.65071661167E+03  0.65071661167E+03  0.00000000000E+00 0.  1.
      99926    2    1    2    0    0  0.00000000000E+00  0.00000000000E+00 -0.57481918958E+03  0.72661403376E+03  0.44446693168E+03 0.  0.
      99925    2    3    3    0    0 -0.63925531078E+02  0.70204610926E+02 -0.43029769189E+03  0.51319160684E+03  0.26304820997E+03 0.  0.
         25    1    4    4    0    0 -0.13788736814E+02 -0.36460191668E+01 -0.20016020409E+03  0.23646360845E+03  0.12509000000E+03 0.  0.
         25    1    3    3    0    0  0.63925531078E+02 -0.70204610926E+02 -0.14452149769E+03  0.21342242692E+03  0.12509000000E+03 0.  0.
         25    1    4    4    0    0 -0.50136794264E+02  0.73850630093E+02 -0.23013748780E+03  0.27672799839E+03  0.12509000000E+03 0.  0.
<mgrwt>
<rscale>  2 0.44446693E+03</rscale>
<asrwt>0</asrwt>
<pdfrwt beam="1">  1       21 0.11161386E-01 0.44446693E+03</pdfrwt>
<pdfrwt beam="2">  1       21 0.95693619E-01 0.44446693E+03</pdfrwt>
<totfact> 0.55976331E+04</totfact>
</mgrwt>
</event>
<event>
 7    0  0.4775379E-002  0.4572390E+03  0.7546771E-02  0.1025585E+00
         21   -1    0    0  502  501  0.00000000000E+00  0.00000000000E+00  0.62779673494E+02  0.62779673494E+02  0.00000000000E+00 0. -1.
         21   -1    0    0  501  502 -0.00000000000E+00 -0.00000000000E+00 -0.83254466190E+03  0.83254466190E+03  0.00000000000E+00 0. -1.
      99926    2    1    2    0    0  0.00000000000E+00  0.00000000000E+00 -0.76976498841E+03  0.89532433539E+03  0.45723902739E+03 0.  0.
      99925    2    3    3    0    0 -0.56138832519E+02  0.79081181841E+02 -0.60572119746E+03  0.66736978886E+03  0.26282858329E+03 0.  0.
         25    1    4    4    0    0  0.42102991701E+01  0.62533811832E+02 -0.32001039179E+03  0.34925973601E+03  0.12509000000E+03 0.  0.
         25    1    3    3    0    0  0.56138832519E+02 -0.79081181841E+02 -0.16404379095E+03  0.22795454654E+03  0.12509000000E+03 0.  0.
         25    1    4    4    0    0 -0.60349131689E+02  0.16547370009E+02 -0.28571080567E+03  0.31811005285E+03  0.12509000000E+03 0.  0.
<mgrwt>
<rscale>  2 0.45723903E+03</rscale>
<asrwt>0</asrwt>
<pdfrwt beam="1">  1       21 0.92323045E-02 0.45723903E+03</pdfrwt>
<pdfrwt beam="2">  1       21 0.12243304E+00 0.45723903E+03</pdfrwt>
<totfact> 0.42683215E+04</totfact>
</mgrwt>
</event>
<event>
 7    0  0.4775379E-002  0.4512692E+03  0.7546771E-02  0.1027344E+00
         21   -1    0    0  502  501  0.00000000000E+00  0.00000000000E+00  0.21473111338E+03  0.21473111338E+03  0.00000000000E+00 0.  1.
         21   -1    0    0  501  502 -0.00000000000E+00 -0.00000000000E+00 -0.23709176567E+03  0.23709176567E+03  0.00000000000E+00 0.  1.
      99926    2    1    2    0    0  0.00000000000E+00  0.00000000000E+00 -0.22360652297E+02  0.45182287905E+03  0.45126922703E+03 0.  0.
      99925    2    3    3    0    0  0.10008681486E+03  0.38627645949E+02 -0.37266554262E+02  0.28635638832E+03  0.26287205923E+03 0.  0.
         25    1    3    3    0    0 -0.10008681486E+03 -0.38627645949E+02  0.14905901965E+02  0.16546649073E+03  0.12509000000E+03 0.  0.
         25    1    4    4    0    0  0.38481036241E+02 -0.96220720871E+01  0.95030194825E+01  0.13157199512E+03  0.12509000000E+03 0.  0.
         25    1    4    4    0    0  0.61605778618E+02  0.48249718036E+02 -0.46769573745E+02  0.15478439320E+03  0.12509000000E+03 0.  0.
<mgrwt>
<rscale>  2 0.45126923E+03</rscale>
<asrwt>0</asrwt>
<pdfrwt beam="1">  1       21 0.31578105E-01 0.45126923E+03</pdfrwt>
<pdfrwt beam="2">  1       21 0.34866436E-01 0.45126923E+03</pdfrwt>
<totfact> 0.70865295E+04</totfact>
</mgrwt>
</event>
<event>
 7    0  0.4775379E-002  0.4512939E+03  0.7546771E-02  0.1027337E+00
         21   -1    0    0  502  501  0.00000000000E+00  0.00000000000E+00  0.18525328013E+03  0.18525328013E+03  0.00000000000E+00 0. -1.
         21   -1    0    0  501  502 -0.00000000000E+00 -0.00000000000E+00 -0.27484829613E+03  0.27484829613E+03  0.00000000000E+00 0. -1.
      99926    2    1    2    0    0  0.00000000000E+00  0.00000000000E+00 -0.89595016001E+02  0.46010157627E+03  0.45129391043E+03 0.  0.
      99925    2    3    3    0    0 -0.77421460494E+02 -0.64921949485E+02 -0.13518474629E+02  0.28221371744E+03  0.26315944043E+03 0.  0.
         25    1    4    4    0    0 -0.51846870972E+02 -0.61858842611E+02 -0.34429159230E+02  0.15279885322E+03  0.12509000000E+03 0.  0.
         25    1    3    3    0    0  0.77421460494E+02  0.64921949485E+02 -0.76076541372E+02  0.17788785882E+03  0.12509000000E+03 0.  0.
         25    1    4    4    0    0 -0.25574589522E+02 -0.30631068745E+01  0.20910684600E+02  0.12941486423E+03  0.12509000000E+03 0.  0.
<mgrwt>
<rscale>  2 0.45129391E+03</rscale>
<asrwt>0</asrwt>
<pdfrwt beam="1">  1       21 0.27243130E-01 0.45129391E+03</pdfrwt>
<pdfrwt beam="2">  1       21 0.40418867E-01 0.45129391E+03</pdfrwt>
<totfact> 0.70221475E+04</totfact>
</mgrwt>
</event>
<event>
 7    0  0.4775379E-002  0.4452200E+03  0.7546771E-02  0.1029157E+00
         21   -1    0    0  502  501  0.00000000000E+00  0.00000000000E+00  0.49838500379E+02  0.49838500379E+02  0.00000000000E+00 0.  1.
         21   -1    0    0  501  502 -0.00000000000E+00 -0.00000000000E+00 -0.99431605932E+03  0.99431605932E+03  0.00000000000E+00 0.  1.
      99926    2    1    2    0    0 -0.14210854715E-13  0.00000000000E+00 -0.94447755894E+03  0.10441545597E+04  0.44522004132E+03 0.  0.
      99925    2    3    3    0    0  0.73249878898E+02 -0.35705625233E+02 -0.75018793240E+03  0.79913128833E+03  0.26303696628E+03 0.  0.
         25    1    4    4    0    0  0.65991760190E+02 -0.33938207062E+02 -0.47468983025E+03  0.49647221207E+03  0.12509000000E+03 0.  0.
         25    1    3    3    0    0 -0.73249878898E+02  0.35705625233E+02 -0.19428962653E+03  0.24502327137E+03  0.12509000000E+03 0.  0.
         25    1    4    4    0    0  0.72581187083E+01 -0.17674181707E+01 -0.27549810215E+03  0.30265907626E+03  0.12509000000E+03 0.  0.
<mgrwt>
<rscale>  2 0.44522004E+03</rscale>
<asrwt>0</asrwt>
<pdfrwt beam="1">  1       21 0.73291911E-02 0.44522004E+03</pdfrwt>
<pdfrwt beam="2">  1       21 0.14622295E+00 0.44522004E+03</pdfrwt>
<totfact> 0.40496897E+04</totfact>
</mgrwt>
</event>
<event>
 7    0  0.4775379E-002  0.4682316E+03  0.7546771E-02  0.1022421E+00
         21   -1    0    0  502  501  0.00000000000E+00  0.00000000000E+00  0.11699414176E+04  0.11699414176E+04  0.00000000000E+00 0. -1.
         21   -1    0    0  501  502 -0.00000000000E+00 -0.00000000000E+00 -0.46848682918E+02  0.46848682918E+02  0.00000000000E+00 0. -1.
      99926    2    1    2    0    0  0.00000000000E+00  0.00000000000E+00  0.11230927346E+04  0.12167901005E+04  0.46823162859E+03 0.  0.
      99925    2    3    3    0    0  0.81804060603E+02 -0.67926171852E+02  0.86858931158E+03  0.91392813587E+03  0.26365010184E+03 0.  0.
         25    1    4    4    0    0  0.19296837015E+02 -0.41640828836E+01  0.46917582872E+03  0.48596622708E+03  0.12509000000E+03 0.  0.
         25    1    3    3    0    0 -0.81804060603E+02  0.67926171852E+02  0.25450342307E+03  0.30286196461E+03  0.12509000000E+03 0.  0.
         25    1    4    4    0    0  0.62507223588E+02 -0.63762088968E+02  0.39941348285E+03  0.42796190879E+03  0.12509000000E+03 0.  0.
<mgrwt>
<rscale>  2 0.46823163E+03</rscale>
<asrwt>0</asrwt>
<pdfrwt beam="1">  1       21 0.17205019E+00 0.46823163E+03</pdfrwt>
<pdfrwt beam="2">  1       21 0.68895129E-02 0.46823163E+03</pdfrwt>
<totfact> 0.28568522E+04</totfact>
</mgrwt>
</event>
<event>
 7    0  0.4775379E-002  0.4547176E+03  0.7546771E-02  0.1026324E+00
         21   -1    0    0  502  501  0.00000000000E+00  0.00000000000E+00  0.21100032807E+03  0.21100032807E+03  0.00000000000E+00 0. -1.
         21   -1    0    0  501  502 -0.00000000000E+00 -0.00000000000E+00 -0.24498550013E+03  0.24498550013E+03  0.00000000000E+00 0. -1.
      99926    2    1    2    0    0  0.00000000000E+00  0.00000000000E+00 -0.33985172051E+02  0.45598582820E+03  0.45471758664E+03 0.  0.
      99925    2    3    3    0    0 -0.10739391017E+03 -0.16747726192E+02  0.97282094156E+01  0.28460232230E+03  0.26284958727E+03 0.  0.
         25    1    3    3    0    0  0.10739391017E+03  0.16747726192E+02 -0.43713381467E+02  0.17138350590E+03  0.12509000000E+03 0.  0.
         25    1    4    4    0    0 -0.48729136739E+02  0.26209499034E+02 -0.15765410089E+02  0.13768632053E+03  0.12509000000E+03 0.  0.
         25    1    4    4    0    0 -0.58664773430E+02 -0.42957225226E+02  0.25493619505E+02  0.14691600177E+03  0.12509000000E+03 0.  0.
<mgrwt>
<rscale>  2 0.45471759E+03</rscale>
<asrwt>0</asrwt>
<pdfrwt beam="1">  1       21 0.31029460E-01 0.45471759E+03</pdfrwt>
<pdfrwt beam="2">  1       21 0.36027279E-01 0.45471759E+03</pdfrwt>
<totfact> 0.68628177E+04</totfact>
</mgrwt>
</event>
<event>
 7    0  0.4775379E-002  0.4557691E+03  0.7546771E-02  0.1026015E+00
         21   -1    0    0  502  501  0.00000000000E+00  0.00000000000E+00  0.21057204808E+03  0.21057204808E+03  0.00000000000E+00 0. -1.
         21   -1    0    0  501  502 -0.00000000000E+00 -0.00000000000E+00 -0.24662043804E+03  0.24662043804E+03  0.00000000000E+00 0. -1.
      99926    2    1    2    0    0 -0.17763568394E-14  0.00000000000E+00 -0.36048389958E+02  0.45719248613E+03  0.45576911145E+03 0.  0.
      99925    2    3    3    0    0 -0.13464387521E+02 -0.10736372919E+03 -0.57296169501E+02  0.29043746728E+03  0.26336820476E+03 0.  0.
         25    1    4    4    0    0 -0.19287636333E+02 -0.23461018981E+02 -0.54202693385E+02  0.13967058530E+03  0.12509000000E+03 0.  0.
         25    1    3    3    0    0  0.13464387521E+02  0.10736372919E+03  0.21247779543E+02  0.16675501885E+03  0.12509000000E+03 0.  0.
         25    1    4    4    0    0  0.58232488117E+01 -0.83902710209E+02 -0.30934761163E+01  0.15076688198E+03  0.12509000000E+03 0.  0.
<mgrwt>
<rscale>  2 0.45576911E+03</rscale>
<asrwt>0</asrwt>
<pdfrwt beam="1">  1       21 0.30966478E-01 0.45576911E+03</pdfrwt>
<pdfrwt beam="2">  1       21 0.36267711E-01 0.45576911E+03</pdfrwt>
<totfact> 0.67967461E+04</totfact>
</mgrwt>
</event>
<event>
 7    0  0.4775379E-002  0.4463290E+03  0.7546771E-02  0.1028822E+00
         21   -1    0    0  502  501  0.00000000000E+00  0.00000000000E+00  0.10378135982E+03  0.10378135982E+03  0.00000000000E+00 0.  1.
         21   -1    0    0  501  502 -0.00000000000E+00 -0.00000000000E+00 -0.47987806500E+03  0.47987806500E+03  0.00000000000E+00 0.  1.
      99926    2    1    2    0    0  0.00000000000E+00  0.15543122345E-14 -0.37609670519E+03  0.58365942482E+03  0.44632901824E+03 0.  0.
      99925    2    3    3    0    0  0.84843172903E+02  0.10917358400E+01 -0.15807191325E+03  0.31836360149E+03  0.26300018464E+03 0.  0.
         25    1    4    4    0    0  0.47622277879E+02 -0.16761713248E+02 -0.38046664276E+02  0.14015667356E+03  0.12509000000E+03 0.  0.
         25    1    3    3    0    0 -0.84843172903E+02 -0.10917358400E+01 -0.21802479194E+03  0.26529582333E+03  0.12509000000E+03 0.  0.
         25    1    4    4    0    0  0.37220895024E+02  0.17853449088E+02 -0.12002524897E+03  0.17820692793E+03  0.12509000000E+03 0.  0.
<mgrwt>
<rscale>  2 0.44632902E+03</rscale>
<asrwt>0</asrwt>
<pdfrwt beam="1">  1       21 0.15261965E-01 0.44632902E+03</pdfrwt>
<pdfrwt beam="2">  1       21 0.70570304E-01 0.44632902E+03</pdfrwt>
<totfact> 0.63968544E+04</totfact>
</mgrwt>
</event>
<event>
 7    0  0.4775379E-002  0.4595701E+03  0.7546771E-02  0.1024906E+00
         21   -1    0    0  502  501  0.00000000000E+00  0.00000000000E+00  0.64793192397E+02  0.64793192397E+02  0.00000000000E+00 0.  1.
         21   -1    0    0  501  502 -0.00000000000E+00 -0.00000000000E+00 -0.81491861430E+03  0.81491861430E+03  0.00000000000E+00 0.  1.
      99926    2    1    2    0    0  0.00000000000E+00 -0.14210854715E-13 -0.75012542191E+03  0.87971180670E+03  0.45957014074E+03 0.  0.
      99925    2    3    3    0    0 -0.17865937163E+02  0.88196088439E+02 -0.32511024728E+03  0.42762426154E+03  0.26280809433E+03 0.  0.
         25    1    3    3    0    0  0.17865937163E+02 -0.88196088439E+02 -0.42501517463E+03  0.45208754516E+03  0.12509000000E+03 0.  0.
         25    1    4    4    0    0  0.31204952881E+02  0.46667238103E+02 -0.16392382751E+03  0.21370566095E+03  0.12509000000E+03 0.  0.
         25    1    4    4    0    0 -0.49070890044E+02  0.41528850336E+02 -0.16118641977E+03  0.21391860059E+03  0.12509000000E+03 0.  0.
<mgrwt>
<rscale>  2 0.45957014E+03</rscale>
<asrwt>0</asrwt>
<pdfrwt beam="1">  1       21 0.95284102E-02 0.45957014E+03</pdfrwt>
<pdfrwt beam="2">  1       21 0.11984098E+00 0.45957014E+03</pdfrwt>
<totfact> 0.42577950E+04</totfact>
</mgrwt>
</event>
<event>
 7    0  0.4775379E-002  0.4556130E+03  0.7546771E-02  0.1026061E+00
         21   -1    0    0  502  501  0.00000000000E+00  0.00000000000E+00  0.16899723239E+03  0.16899723239E+03  0.00000000000E+00 0. -1.
         21   -1    0    0  501  502 -0.00000000000E+00 -0.00000000000E+00 -0.30708082162E+03  0.30708082162E+03  0.00000000000E+00 0. -1.
      99926    2    1    2    0    0  0.00000000000E+00  0.00000000000E+00 -0.13808358923E+03  0.47607805401E+03  0.45561303306E+03 0.  0.
      99925    2    3    3    0    0  0.87329072660E+02  0.72811201012E+02 -0.89619556656E+02  0.30022553490E+03  0.26301305851E+03 0.  0.
         25    1    3    3    0    0 -0.87329072660E+02 -0.72811201012E+02 -0.48464032575E+02  0.17585251911E+03  0.12509000000E+03 0.  0.
         25    1    4    4    0    0  0.15159502105E+02  0.10483712476E+02 -0.60864050278E+02  0.14032697334E+03  0.12509000000E+03 0.  0.
         25    1    4    4    0    0  0.72169570555E+02  0.62327488536E+02 -0.28755506378E+02  0.15989856156E+03  0.12509000000E+03 0.  0.
<mgrwt>
<rscale>  2 0.45561303E+03</rscale>
<asrwt>0</asrwt>
<pdfrwt beam="1">  1       21 0.24852534E-01 0.45561303E+03</pdfrwt>
<pdfrwt beam="2">  1       21 0.45158944E-01 0.45561303E+03</pdfrwt>
<totfact> 0.66661809E+04</totfact>
</mgrwt>
</event>
<event>
 7    0  0.4775379E-002  0.4553664E+03  0.7546771E-02  0.1026134E+00
         21   -1    0    0  502  501  0.00000000000E+00  0.00000000000E+00  0.34755286571E+03  0.34755286571E+03  0.00000000000E+00 0.  1.
         21   -1    0    0  501  502 -0.00000000000E+00 -0.00000000000E+00 -0.14915609725E+03  0.14915609725E+03  0.00000000000E+00 0.  1.
      99926    2    1    2    0    0 -0.71054273576E-14  0.00000000000E+00  0.19839676846E+03  0.49670896296E+03  0.45536635377E+03 0.  0.
      99925    2    3    3    0    0 -0.36421940851E+02  0.15577855451E+02  0.24079382612E+03  0.35881680961E+03  0.26305628449E+03 0.  0.
         25    1    4    4    0    0 -0.50435480330E+02  0.13789393034E+02  0.15775904061E+03  0.20801275930E+03  0.12509000000E+03 0.  0.
         25    1    4    4    0    0  0.14013539479E+02  0.17884624163E+01  0.83034785506E+02  0.15080405031E+03  0.12509000000E+03 0.  0.
         25    1    3    3    0    0  0.36421940851E+02 -0.15577855451E+02 -0.42397057660E+02  0.13789215334E+03  0.12509000000E+03 0.  0.
<mgrwt>
<rscale>  2 0.45536635E+03</rscale>
<asrwt>0</asrwt>
<pdfrwt beam="1">  1       21 0.51110715E-01 0.45536635E+03</pdfrwt>
<pdfrwt beam="2">  1       21 0.21934720E-01 0.45536635E+03</pdfrwt>
<totfact> 0.65312334E+04</totfact>
</mgrwt>
</event>
<event>
 7    0  0.4775379E-002  0.4520057E+03  0.7546771E-02  0.1027126E+00
         21   -1    0    0  502  501  0.00000000000E+00  0.00000000000E+00  0.41049356099E+02  0.41049356099E+02  0.00000000000E+00 0.  1.
         21   -1    0    0  501  502 -0.00000000000E+00 -0.00000000000E+00 -0.12442898754E+04  0.12442898754E+04  0.00000000000E+00 0.  1.
      99926    2    1    2    0    0  0.00000000000E+00 -0.14210854715E-13 -0.12032405193E+04  0.12853392315E+04  0.45200574415E+03 0.  0.
      99925    2    3    3    0    0  0.36949558993E+02  0.93575542132E+02 -0.88612954814E+03  0.92991198420E+03  0.26341805227E+03 0.  0.
         25    1    4    4    0    0  0.24077158891E+02  0.90222693072E+02 -0.47960786586E+03  0.50437194314E+03  0.12509000000E+03 0.  0.
         25    1    3    3    0    0 -0.36949558993E+02 -0.93575542132E+02 -0.31711097113E+03  0.35542724727E+03  0.12509000000E+03 0.  0.
         25    1    4    4    0    0  0.12872400102E+02  0.33528490600E+01 -0.40652168228E+03  0.42554004106E+03  0.12509000000E+03 0.  0.
<mgrwt>
<rscale>  2 0.45200574E+03</rscale>
<asrwt>0</asrwt>
<pdfrwt beam="1">  1       21 0.60366691E-02 0.45200574E+03</pdfrwt>
<pdfrwt beam="2">  1       21 0.18298383E+00 0.45200574E+03</pdfrwt>
<totfact> 0.30241727E+04</totfact>
</mgrwt>
</event>
<event>
 7    0  0.4775379E-002  0.4565884E+03  0.7546771E-02  0.1025775E+00
         21   -1    0    0  502  501  0.00000000000E+00  0.00000000000E+00  0.43305594463E+03  0.43305594463E+03  0.00000000000E+00 0. -1.
         21   -1    0    0  501  502 -0.00000000000E+00 -0.00000000000E+00 -0.12034988065E+03  0.12034988065E+03  0.00000000000E+00 0. -1.
      99926    2    1    2    0    0  0.00000000000E+00 -0.71054273576E-14  0.31270606398E+03  0.55340582527E+03  0.45658835399E+03 0.  0.
      99925    2    3    3    0    0 -0.79577749112E+02  0.42678683071E+02  0.11091277690E+03  0.29939376463E+03  0.26302261134E+03 0.  0.
         25    1    3    3    0    0  0.79577749112E+02 -0.42678683071E+02  0.20179328708E+03  0.25401206065E+03  0.12509000000E+03 0.  0.
         25    1    4    4    0    0 -0.25786492358E+02  0.30807240401E+02  0.94265220264E+02  0.16170179065E+03  0.12509000000E+03 0.  0.
         25    1    4    4    0    0 -0.53791256755E+02  0.11871442670E+02  0.16647556632E+02  0.13769197397E+03  0.12509000000E+03 0.  0.
<mgrwt>
<rscale>  2 0.45658835E+03</rscale>
<asrwt>0</asrwt>
<pdfrwt beam="1">  1       21 0.63684697E-01 0.45658835E+03</pdfrwt>
<pdfrwt beam="2">  1       21 0.17698512E-01 0.45658835E+03</pdfrwt>
<totfact> 0.60873471E+04</totfact>
</mgrwt>
</event>
<event>
 7    0  0.4775379E-002  0.4497284E+03  0.7546771E-02  0.1027803E+00
         21   -1    0    0  502  501  0.00000000000E+00  0.00000000000E+00  0.60786373777E+02  0.60786373777E+02  0.00000000000E+00 0.  1.
         21   -1    0    0  501  502 -0.00000000000E+00 -0.00000000000E+00 -0.83182975618E+03  0.83182975618E+03  0.00000000000E+00 0.  1.
      99926    2    1    2    0    0  0.00000000000E+00  0.00000000000E+00 -0.77104338241E+03  0.89261612996E+03  0.44972842685E+03 0.  0.
      99925    2    3    3    0    0  0.36513955114E+02  0.97311392479E+01 -0.28639674736E+03  0.39066211518E+03  0.26299396828E+03 0.  0.
         25    1    4    4    0    0  0.40164284064E+02  0.15417859743E+02 -0.19482599524E+03  0.23549003511E+03  0.12509000000E+03 0.  0.
         25    1    3    3    0    0 -0.36513955114E+02 -0.97311392479E+01 -0.48464663505E+03  0.50195401478E+03  0.12509000000E+03 0.  0.
         25    1    4    4    0    0 -0.36503289500E+01 -0.56867204950E+01 -0.91570752120E+02  0.15517208008E+03  0.12509000000E+03 0.  0.
<mgrwt>
<rscale>  2 0.44972843E+03</rscale>
<asrwt>0</asrwt>
<pdfrwt beam="1">  1       21 0.89391735E-02 0.44972843E+03</pdfrwt>
<pdfrwt beam="2">  1       21 0.12232789E+00 0.44972843E+03</pdfrwt>
<totfact> 0.45399673E+04</totfact>
</mgrwt>
</event>
<event>
 7    0  0.4775379E-002  0.4542185E+03  0.7546771E-02  0.1026471E+00
         21   -1    0    0  502  501  0.00000000000E+00  0.00000000000E+00  0.99865300525E+02  0.99865300525E+02  0.00000000000E+00 0. -1.
         21   -1    0    0  501  502 -0.00000000000E+00 -0.00000000000E+00 -0.51648170939E+03  0.51648170939E+03  0.00000000000E+00 0. -1.
      99926    2    1    2    0    0  0.00000000000E+00  0.00000000000E+00 -0.41661640887E+03  0.61634700992E+03  0.45421845460E+03 0.  0.
      99925    2    3    3    0    0 -0.10410433300E+03 -0.39127187771E+02 -0.23997243868E+03  0.37299695490E+03  0.26300438792E+03 0.  0.
         25    1    4    4    0    0 -0.37382310694E+02  0.19422516715E+02 -0.10453974152E+03  0.16837677086E+03  0.12509000000E+03 0.  0.
         25    1    4    4    0    0 -0.66722022311E+02 -0.58549704487E+02 -0.13543269715E+03  0.20462018404E+03  0.12509000000E+03 0.  0.
         25    1    3    3    0    0  0.10410433300E+03  0.39127187771E+02 -0.17664397019E+03  0.24335005502E+03  0.12509000000E+03 0.  0.
<mgrwt>
<rscale>  2 0.45421845E+03</rscale>
<asrwt>0</asrwt>
<pdfrwt beam="1">  1       21 0.14686074E-01 0.45421845E+03</pdfrwt>
<pdfrwt beam="2">  1       21 0.75953191E-01 0.45421845E+03</pdfrwt>
<totfact> 0.58040592E+04</totfact>
</mgrwt>
</event>
<event>
 7    0  0.4775379E-002  0.4513633E+03  0.7546771E-02  0.1027316E+00
         21   -1    0    0  502  501  0.00000000000E+00  0.00000000000E+00  0.11594344200E+03  0.11594344200E+03  0.00000000000E+00 0. -1.
         21   -1    0    0  501  502 -0.00000000000E+00 -0.00000000000E+00 -0.43928484427E+03  0.43928484427E+03  0.00000000000E+00 0. -1.
      99926    2    1    2    0    0  0.00000000000E+00 -0.17763568394E-14 -0.32334140227E+03  0.55522828628E+03  0.45136325444E+03 0.  0.
      99925    2    3    3    0    0 -0.10677788749E+03 -0.10866652897E+02 -0.23232114289E+03  0.36694181008E+03  0.26297067736E+03 0.  0.
         25    1    3    3    0    0  0.10677788749E+03  0.10866652897E+02 -0.91020259378E+02  0.18828647620E+03  0.12509000000E+03 0.  0.
         25    1    4    4    0    0 -0.49157146447E+02  0.34954977887E+02 -0.11522859002E+03  0.18045335016E+03  0.12509000000E+03 0.  0.
         25    1    4    4    0    0 -0.57620741039E+02 -0.45821630784E+02 -0.11709255287E+03  0.18648845992E+03  0.12509000000E+03 0.  0.
<mgrwt>
<rscale>  2 0.45136325E+03</rscale>
<asrwt>0</asrwt>
<pdfrwt beam="1">  1       21 0.17050506E-01 0.45136325E+03</pdfrwt>
<pdfrwt beam="2">  1       21 0.64600712E-01 0.45136325E+03</pdfrwt>
<totfact> 0.63324589E+04</totfact>
</mgrwt>
</event>
<event>
 7    0  0.4775379E-002  0.4559091E+03  0.7546771E-02  0.1025974E+00
         21   -1    0    0  502  501  0.00000000000E+00  0.00000000000E+00  0.71819322987E+02  0.71819322987E+02  0.00000000000E+00 0.  1.
         21   -1    0    0  501  502 -0.00000000000E+00 -0.00000000000E+00 -0.72352794321E+03  0.72352794321E+03  0.00000000000E+00 0.  1.
      99926    2    1    2    0    0  0.00000000000E+00 -0.35527136788E-14 -0.65170862022E+03  0.79534726619E+03  0.45590914465E+03 0.  0.
      99925    2    3    3    0    0 -0.10467851204E+03  0.21295450399E+02 -0.47922665121E+03  0.55700166664E+03  0.26302392728E+03 0.  0.
         25    1    4    4    0    0 -0.76174968960E+02  0.35071397357E+02 -0.20964140184E+03  0.25812720560E+03  0.12509000000E+03 0.  0.
         25    1    4    4    0    0 -0.28503543083E+02 -0.13775946958E+02 -0.26958524937E+03  0.29887446104E+03  0.12509000000E+03 0.  0.
         25    1    3    3    0    0  0.10467851204E+03 -0.21295450399E+02 -0.17248196901E+03  0.23834559955E+03  0.12509000000E+03 0.  0.
<mgrwt>
<rscale>  2 0.45590914E+03</rscale>
<asrwt>0</asrwt>
<pdfrwt beam="1">  1       21 0.10561666E-01 0.45590914E+03</pdfrwt>
<pdfrwt beam="2">  1       21 0.10640116E+00 0.45590914E+03</pdfrwt>
<totfact> 0.47649792E+04</totfact>
</mgrwt>
</event>
<event>
 7    0  0.4775379E-002  0.4533496E+03  0.7546771E-02  0.1026728E+00
         21   -1    0    0  502  501  0.00000000000E+00  0.00000000000E+00  0.80055658931E+03  0.80055658931E+03  0.00000000000E+00 0. -1.
         21   -1    0    0  501  502 -0.00000000000E+00 -0.00000000000E+00 -0.64182186646E+02  0.64182186646E+02  0.00000000000E+00 0. -1.
      99926    2    1    2    0    0  0.00000000000E+00  0.00000000000E+00  0.73637440266E+03  0.86473877596E+03  0.45334963300E+03 0.  0.
      99925    2    3    3    0    0 -0.90234556951E+02 -0.22192999078E+02  0.34600711625E+03  0.44441874207E+03  0.26296822876E+03 0.  0.
         25    1    4    4    0    0 -0.24454387110E+02  0.90022675091E+01  0.11550270863E+03  0.17224239220E+03  0.12509000000E+03 0.  0.
         25    1    3    3    0    0  0.90234556951E+02  0.22192999078E+02  0.39036728642E+03  0.42032003388E+03  0.12509000000E+03 0.  0.
         25    1    4    4    0    0 -0.65780169841E+02 -0.31195266587E+02  0.23050440762E+03  0.27217634988E+03  0.12509000000E+03 0.  0.
<mgrwt>
<rscale>  2 0.45334963E+03</rscale>
<asrwt>0</asrwt>
<pdfrwt beam="1">  1       21 0.11772890E+00 0.45334963E+03</pdfrwt>
<pdfrwt beam="2">  1       21 0.94385573E-02 0.45334963E+03</pdfrwt>
<totfact> 0.45371440E+04</totfact>
</mgrwt>
</event>
<event>
 7    0  0.4775379E-002  0.4525359E+03  0.7546771E-02  0.1026969E+00
         21   -1    0    0  502  501  0.00000000000E+00  0.00000000000E+00  0.26541589680E+03  0.26541589680E+03  0.00000000000E+00 0.  1.
         21   -1    0    0  501  502 -0.00000000000E+00 -0.00000000000E+00 -0.19289416150E+03  0.19289416150E+03  0.00000000000E+00 0.  1.
      99926    2    1    2    0    0  0.00000000000E+00  0.35527136788E-14  0.72521735301E+02  0.45831005829E+03  0.45253586315E+03 0.  0.
      99925    2    3    3    0    0 -0.59694045237E+02 -0.16170411465E+02  0.13908474296E+03  0.30370409679E+03  0.26280553921E+03 0.  0.
         25    1    4    4    0    0 -0.11491038193E+02  0.22665771070E+02  0.44823239614E+02  0.13528640747E+03  0.12509000000E+03 0.  0.
         25    1    3    3    0    0  0.59694045237E+02  0.16170411465E+02 -0.66563007660E+02  0.15460596150E+03  0.12509000000E+03 0.  0.
         25    1    4    4    0    0 -0.48203007044E+02 -0.38836182534E+02  0.94261503347E+02  0.16841768932E+03  0.12509000000E+03 0.  0.
<mgrwt>
<rscale>  2 0.45253586E+03</rscale>
<asrwt>0</asrwt>
<pdfrwt beam="1">  1       21 0.39031749E-01 0.45253586E+03</pdfrwt>
<pdfrwt beam="2">  1       21 0.28366788E-01 0.45253586E+03</pdfrwt>
<totfact> 0.69662729E+04</totfact>
</mgrwt>
</event>
<event>
 7    0  0.4775379E-002  0.4072469E+03  0.7546771E-02  0.1041299E+00
         21   -1    0    0  502  501  0.00000000000E+00  0.00000000000E+00  0.59936443504E+03  0.59936443504E+03  0.00000000000E+00 0.  1.
         21   -1    0    0  501  502 -0.00000000000E+00 -0.00000000000E+00 -0.69177447523E+02  0.69177447523E+02  0.00000000000E+00 0.  1.
      99926    2    1    2    0    0  0.17763568394E-14  0.71054273576E-14  0.53018698752E+03  0.66854188256E+03  0.40724686249E+03 0.  0.
      99925    2    3    3    0    0  0.83269373675E+01 -0.53084001518E+02  0.30378905064E+03  0.40436243024E+03  0.26140761007E+03 0.  0.
         25    1    4    4    0    0 -0.16824697318E+02  0.56176333181E+01  0.13885136386E+03  0.18772809483E+03  0.12509000000E+03 0.  0.
         25    1    4    4    0    0  0.25151634686E+02 -0.58701634836E+02  0.16493768678E+03  0.21663433541E+03  0.12509000000E+03 0.  0.
         25    1    3    3    0    0 -0.83269373675E+01  0.53084001518E+02  0.22639793688E+03  0.26417945232E+03  0.12509000000E+03 0.  0.
<mgrwt>
<rscale>  2 0.40724686E+03</rscale>
<asrwt>0</asrwt>
<pdfrwt beam="1">  1       21 0.88141826E-01 0.40724686E+03</pdfrwt>
<pdfrwt beam="2">  1       21 0.10173154E-01 0.40724686E+03</pdfrwt>
<totfact> 0.81115851E+04</totfact>
</mgrwt>
</event>
<event>
 7    0  0.4775379E-002  0.4547066E+03  0.7546771E-02  0.1026328E+00
         21   -1    0    0  502  501  0.00000000000E+00  0.00000000000E+00  0.12428439828E+04  0.12428439828E+04  0.00000000000E+00 0. -1.
         21   -1    0    0  501  502 -0.00000000000E+00 -0.00000000000E+00 -0.41589716836E+02  0.41589716836E+02  0.00000000000E+00 0. -1.
      99926    2    1    2    0    0  0.00000000000E+00  0.71054273576E-14  0.12012542660E+04  0.12844336997E+04  0.45470662769E+03 0.  0.
      99925    2    3    3    0    0  0.72070170984E+02  0.32376597320E+02  0.98390297348E+03  0.10215051047E+04  0.26299289740E+03 0.  0.
         25    1    4    4    0    0  0.34496398540E+02  0.16468969231E+02  0.64133701825E+03  0.65453946217E+03  0.12509000000E+03 0.  0.
         25    1    4    4    0    0  0.37573772444E+02  0.15907628089E+02  0.34256595523E+03  0.36696564252E+03  0.12509000000E+03 0.  0.
         25    1    3    3    0    0 -0.72070170984E+02 -0.32376597320E+02  0.21735129253E+03  0.26292859499E+03  0.12509000000E+03 0.  0.
<mgrwt>
<rscale>  2 0.45470663E+03</rscale>
<asrwt>0</asrwt>
<pdfrwt beam="1">  1       21 0.18277115E+00 0.45470663E+03</pdfrwt>
<pdfrwt beam="2">  1       21 0.61161357E-02 0.45470663E+03</pdfrwt>
<totfact> 0.29637810E+04</totfact>
</mgrwt>
</event>
<event>
 7    0  0.4775379E-002  0.4585744E+03  0.7546771E-02  0.1025195E+00
         21   -1    0    0  502  501  0.00000000000E+00  0.00000000000E+00  0.38299097801E+03  0.38299097801E+03  0.00000000000E+00 0. -1.
         21   -1    0    0  501  502 -0.00000000000E+00 -0.00000000000E+00 -0.13726855321E+03  0.13726855321E+03  0.00000000000E+00 0. -1.
      99926    2    1    2    0    0  0.00000000000E+00  0.00000000000E+00  0.24572242481E+03  0.52025953122E+03  0.45857438849E+03 0.  0.
      99925    2    3    3    0    0 -0.47885199126E+02 -0.55697646240E+02  0.51657314515E+02  0.27797045755E+03  0.26306629779E+03 0.  0.
         25    1    4    4    0    0 -0.37809846166E+02 -0.22195139190E+02 -0.12426493395E+02  0.13313201910E+03  0.12509000000E+03 0.  0.
         25    1    4    4    0    0 -0.10075352960E+02 -0.33502507050E+02  0.64083807910E+02  0.14483843845E+03  0.12509000000E+03 0.  0.
         25    1    3    3    0    0  0.47885199126E+02  0.55697646240E+02  0.19406511029E+03  0.24228907368E+03  0.12509000000E+03 0.  0.
<mgrwt>
<rscale>  2 0.45857439E+03</rscale>
<asrwt>0</asrwt>
<pdfrwt beam="1">  1       21 0.56322202E-01 0.45857439E+03</pdfrwt>
<pdfrwt beam="2">  1       21 0.20186552E-01 0.45857439E+03</pdfrwt>
<totfact> 0.62089936E+04</totfact>
</mgrwt>
</event>
<event>
 7    0  0.4775379E-002  0.4542963E+03  0.7546771E-02  0.1026449E+00
         21   -1    0    0  502  501  0.00000000000E+00  0.00000000000E+00  0.39911536306E+03  0.39911536306E+03  0.00000000000E+00 0.  1.
         21   -1    0    0  501  502 -0.00000000000E+00 -0.00000000000E+00 -0.12927663013E+03  0.12927663013E+03  0.00000000000E+00 0.  1.
      99926    2    1    2    0    0  0.00000000000E+00  0.14210854715E-13  0.26983873292E+03  0.52839199319E+03  0.45429633135E+03 0.  0.
      99925    2    3    3    0    0 -0.68191846081E+02 -0.74797470291E+02  0.22689727384E+03  0.36184990709E+03  0.26307450077E+03 0.  0.
         25    1    4    4    0    0 -0.24069138545E+02 -0.31215063004E+02  0.59924074812E+02  0.14419468239E+03  0.12509000000E+03 0.  0.
         25    1    3    3    0    0  0.68191846081E+02  0.74797470291E+02  0.42941459086E+02  0.16654208610E+03  0.12509000000E+03 0.  0.
         25    1    4    4    0    0 -0.44122707535E+02 -0.43582407288E+02  0.16697319902E+03  0.21765522470E+03  0.12509000000E+03 0.  0.
<mgrwt>
<rscale>  2 0.45429633E+03</rscale>
<asrwt>0</asrwt>
<pdfrwt beam="1">  1       21 0.58693435E-01 0.45429633E+03</pdfrwt>
<pdfrwt beam="2">  1       21 0.19011269E-01 0.45429633E+03</pdfrwt>
<totfact> 0.63669899E+04</totfact>
</mgrwt>
</event>
<event>
 7    0  0.4775379E-002  0.4564045E+03  0.7546771E-02  0.1025829E+00
         21   -1    0    0  502  501  0.00000000000E+00  0.00000000000E+00  0.34840656267E+03  0.34840656267E+03  0.00000000000E+00 0.  1.
         21   -1    0    0  501  502 -0.00000000000E+00 -0.00000000000E+00 -0.14946984440E+03  0.14946984440E+03  0.00000000000E+00 0.  1.
      99926    2    1    2    0    0  0.00000000000E+00 -0.35527136788E-14  0.19893671827E+03  0.49787640706E+03  0.45640453420E+03 0.  0.
      99925    2    3    3    0    0  0.21710311309E+02 -0.29314848903E+02  0.66866423915E+01  0.26563020632E+03  0.26302851051E+03 0.  0.
         25    1    4    4    0    0  0.45482750649E+02 -0.32184210098E+01  0.21305786997E+02  0.13483502327E+03  0.12509000000E+03 0.  0.
         25    1    3    3    0    0 -0.21710311309E+02  0.29314848903E+02  0.19225007588E+03  0.23224620074E+03  0.12509000000E+03 0.  0.
         25    1    4    4    0    0 -0.23772439340E+02 -0.26096427893E+02 -0.14619144606E+02  0.13079518305E+03  0.12509000000E+03 0.  0.
<mgrwt>
<rscale>  2 0.45640453E+03</rscale>
<asrwt>0</asrwt>
<pdfrwt beam="1">  1       21 0.51236259E-01 0.45640453E+03</pdfrwt>
<pdfrwt beam="2">  1       21 0.21980859E-01 0.45640453E+03</pdfrwt>
<totfact> 0.64695753E+04</totfact>
</mgrwt>
</event>
<event>
 7    0  0.4775379E-002  0.4547688E+03  0.7546771E-02  0.1026309E+00
         21   -1    0    0  502  501  0.00000000000E+00  0.00000000000E+00  0.20741438869E+03  0.20741438869E+03  0.00000000000E+00 0. -1.
         21   -1    0    0  501  502 -0.00000000000E+00 -0.00000000000E+00 -0.24927716628E+03  0.24927716628E+03  0.00000000000E+00 0. -1.
      99926    2    1    2    0    0  0.00000000000E+00  0.00000000000E+00 -0.41862777596E+02  0.45669155497E+03  0.45476882505E+03 0.  0.
      99925    2    3    3    0    0 -0.52770101438E+02  0.92553216508E+02  0.11564756949E+02  0.28391195247E+03  0.26290962642E+03 0.  0.
         25    1    4    4    0    0 -0.24319947823E+02  0.12718328196E+02  0.30458425951E+02  0.13163753092E+03  0.12509000000E+03 0.  0.
         25    1    3    3    0    0  0.52770101438E+02 -0.92553216508E+02 -0.53427534546E+02  0.17277960250E+03  0.12509000000E+03 0.  0.
         25    1    4    4    0    0 -0.28450153615E+02  0.79834888312E+02 -0.18893669002E+02  0.15227442156E+03  0.12509000000E+03 0.  0.
<mgrwt>
<rscale>  2 0.45476883E+03</rscale>
<asrwt>0</asrwt>
<pdfrwt beam="1">  1       21 0.30502116E-01 0.45476883E+03</pdfrwt>
<pdfrwt beam="2">  1       21 0.36658407E-01 0.45476883E+03</pdfrwt>
<totfact> 0.68548409E+04</totfact>
</mgrwt>
</event>
<event>
 7    0  0.4775379E-002  0.4549695E+03  0.7546771E-02  0.1026250E+00
         21   -1    0    0  502  501  0.00000000000E+00  0.00000000000E+00  0.31770136268E+03  0.31770136268E+03  0.00000000000E+00 0.  1.
         21   -1    0    0  501  502 -0.00000000000E+00 -0.00000000000E+00 -0.16288666138E+03  0.16288666138E+03  0.00000000000E+00 0.  1.
      99926    2    1    2    0    0  0.44408920985E-15 -0.17763568394E-14  0.15481470130E+03  0.48058802406E+03  0.45496951231E+03 0.  0.
      99925    2    3    3    0    0 -0.31651680272E+01  0.15418860986E+02 -0.20911535862E+02  0.26431278717E+03  0.26301368323E+03 0.  0.
         25    1    3    3    0    0  0.31651680272E+01 -0.15418860986E+02  0.17572623716E+03  0.21627523688E+03  0.12509000000E+03 0.  0.
         25    1    4    4    0    0 -0.23679940225E+01  0.17044463463E+02  0.29109607682E+02  0.12958008524E+03  0.12509000000E+03 0.  0.
         25    1    4    4    0    0 -0.79717400473E+00 -0.16256024772E+01 -0.50021143544E+02  0.13473270194E+03  0.12509000000E+03 0.  0.
<mgrwt>
<rscale>  2 0.45496951E+03</rscale>
<asrwt>0</asrwt>
<pdfrwt beam="1">  1       21 0.46720789E-01 0.45496951E+03</pdfrwt>
<pdfrwt beam="2">  1       21 0.23953921E-01 0.45496951E+03</pdfrwt>
<totfact> 0.66673453E+04</totfact>
</mgrwt>
</event>
<event>
 7    0  0.4775379E-002  0.4555379E+03  0.7546771E-02  0.1026083E+00
         21   -1    0    0  502  501  0.00000000000E+00  0.00000000000E+00  0.79554108462E+02  0.79554108462E+02  0.00000000000E+00 0.  1.
         21   -1    0    0  501  502 -0.00000000000E+00 -0.00000000000E+00 -0.65211841752E+03  0.65211841752E+03  0.00000000000E+00 0.  1.
      99926    2    1    2    0    0  0.00000000000E+00  0.00000000000E+00 -0.57256430906E+03  0.73167252598E+03  0.45553792078E+03 0.  0.
      99925    2    3    3    0    0 -0.94124985396E+02 -0.18003566064E+02 -0.26191846359E+03  0.38334510720E+03  0.26299914141E+03 0.  0.
         25    1    4    4    0    0 -0.83543939806E+02 -0.31029735497E+02 -0.14920017680E+03  0.21412761433E+03  0.12509000000E+03 0.  0.
         25    1    4    4    0    0 -0.10581045590E+02  0.13026169433E+02 -0.11271828679E+03  0.16921749287E+03  0.12509000000E+03 0.  0.
         25    1    3    3    0    0  0.94124985396E+02  0.18003566064E+02 -0.31064584547E+03  0.34832741878E+03  0.12509000000E+03 0.  0.
<mgrwt>
<rscale>  2 0.45553792E+03</rscale>
<asrwt>0</asrwt>
<pdfrwt beam="1">  1       21 0.11699134E-01 0.45553792E+03</pdfrwt>
<pdfrwt beam="2">  1       21 0.95899765E-01 0.45553792E+03</pdfrwt>
<totfact> 0.51000819E+04</totfact>
</mgrwt>
</event>
<event>
 7    0  0.4775379E-002  0.4519585E+03  0.7546771E-02  0.1027140E+00
         21   -1    0    0  502  501  0.00000000000E+00  0.00000000000E+00  0.20480384325E+03  0.20480384325E+03  0.00000000000E+00 0. -1.
         21   -1    0    0  501  502 -0.00000000000E+00 -0.00000000000E+00 -0.24934407607E+03  0.24934407607E+03  0.00000000000E+00 0. -1.
      99926    2    1    2    0    0  0.00000000000E+00  0.53290705182E-14 -0.44540232814E+02  0.45414791932E+03  0.45195851611E+03 0.  0.
      99925    2    3    3    0    0 -0.10935318527E+03  0.11414265642E+02 -0.37459422657E+02  0.28745643614E+03  0.26294408102E+03 0.  0.
         25    1    3    3    0    0  0.10935318527E+03 -0.11414265642E+02 -0.70808101562E+01  0.16669148317E+03  0.12509000000E+03 0.  0.
         25    1    4    4    0    0 -0.43216354474E+02 -0.31080200522E+02 -0.31758158706E+02  0.13960559051E+03  0.12509000000E+03 0.  0.
         25    1    4    4    0    0 -0.66136830800E+02  0.42494466163E+02 -0.57012639517E+01  0.14785084563E+03  0.12509000000E+03 0.  0.
<mgrwt>
<rscale>  2 0.45195852E+03</rscale>
<asrwt>0</asrwt>
<pdfrwt beam="1">  1       21 0.30118212E-01 0.45195852E+03</pdfrwt>
<pdfrwt beam="2">  1       21 0.36668246E-01 0.45195852E+03</pdfrwt>
<totfact> 0.70298748E+04</totfact>
</mgrwt>
</event>
<event>
 7    0  0.4775379E-002  0.4629984E+03  0.7546771E-02  0.1023915E+00
         21   -1    0    0  502  501  0.00000000000E+00  0.00000000000E+00  0.31323689417E+03  0.31323689417E+03  0.00000000000E+00 0. -1.
         21   -1    0    0  501  502 -0.00000000000E+00 -0.00000000000E+00 -0.17109057811E+03  0.17109057811E+03  0.00000000000E+00 0. -1.
      99926    2    1    2    0    0  0.15543122345E-14  0.00000000000E+00  0.14214631606E+03  0.48432747228E+03  0.46299840738E+03 0.  0.
      99925    2    3    3    0    0 -0.10174540718E+01  0.61075079511E+01  0.21467304257E+03  0.33960024255E+03  0.26306933053E+03 0.  0.
         25    1    3    3    0    0  0.10174540718E+01 -0.61075079511E+01 -0.72526726511E+02  0.14472722973E+03  0.12509000000E+03 0.  0.
         25    1    4    4    0    0 -0.38414482817E+02  0.13537746665E+02  0.12101992720E+03  0.17875199007E+03  0.12509000000E+03 0.  0.
         25    1    4    4    0    0  0.37397028746E+02 -0.74302387134E+01  0.93653115368E+02  0.16084825248E+03  0.12509000000E+03 0.  0.
<mgrwt>
<rscale>  2 0.46299841E+03</rscale>
<asrwt>0</asrwt>
<pdfrwt beam="1">  1       21 0.46064249E-01 0.46299841E+03</pdfrwt>
<pdfrwt beam="2">  1       21 0.25160379E-01 0.46299841E+03</pdfrwt>
<totfact> 0.62334086E+04</totfact>
</mgrwt>
</event>
<event>
 7    0  0.4775379E-002  0.4579832E+03  0.7546771E-02  0.1025368E+00
         21   -1    0    0  502  501  0.00000000000E+00  0.00000000000E+00  0.41602143803E+03  0.41602143803E+03  0.00000000000E+00 0. -1.
         21   -1    0    0  501  502 -0.00000000000E+00 -0.00000000000E+00 -0.12604432998E+03  0.12604432998E+03  0.00000000000E+00 0. -1.
      99926    2    1    2    0    0  0.00000000000E+00  0.00000000000E+00  0.28997710806E+03  0.54206576801E+03  0.45798315870E+03 0.  0.
      99925    2    3    3    0    0  0.56636387931E+02  0.91751936097E+02  0.23248769960E+03  0.36719827990E+03  0.26297898790E+03 0.  0.
         25    1    3    3    0    0 -0.56636387931E+02 -0.91751936097E+02  0.57489408456E+02  0.17486748812E+03  0.12509000000E+03 0.  0.
         25    1    4    4    0    0  0.14407812431E+02  0.25664595293E+02  0.65280142474E+02  0.14413626057E+03  0.12509000000E+03 0.  0.
         25    1    4    4    0    0  0.42228575500E+02  0.66087340804E+02  0.16720755713E+03  0.22306201932E+03  0.12509000000E+03 0.  0.
<mgrwt>
<rscale>  2 0.45798316E+03</rscale>
<asrwt>0</asrwt>
<pdfrwt beam="1">  1       21 0.61179623E-01 0.45798316E+03</pdfrwt>
<pdfrwt beam="2">  1       21 0.18535931E-01 0.45798316E+03</pdfrwt>
<totfact> 0.60942391E+04</totfact>
</mgrwt>
</event>
<event>
 7    0  0.4775379E-002  0.4507939E+03  0.7546771E-02  0.1027486E+00
         21   -1    0    0  502  501  0.00000000000E+00  0.00000000000E+00  0.40694415352E+03  0.40694415352E+03  0.00000000000E+00 0. -1.
         21   -1    0    0  501  502 -0.00000000000E+00 -0.00000000000E+00 -0.12484214349E+03  0.12484214349E+03  0.00000000000E+00 0. -1.
      99926    2    1    2    0    0  0.00000000000E+00  0.14210854715E-13  0.28210201003E+03  0.53178629702E+03  0.45079387932E+03 0.  0.
      99925    2    3    3    0    0 -0.45470326167E+02 -0.75085973297E+02  0.25490891346E+03  0.37656894441E+03  0.26290713529E+03 0.  0.
         25    1    4    4    0    0 -0.62596298425E+02 -0.41221396964E+02  0.14704807130E+03  0.20709452798E+03  0.12509000000E+03 0.  0.
         25    1    3    3    0    0  0.45470326167E+02  0.75085973297E+02  0.27193096576E+02  0.15521735260E+03  0.12509000000E+03 0.  0.
         25    1    4    4    0    0  0.17125972258E+02 -0.33864576333E+02  0.10786084215E+03  0.16947441644E+03  0.12509000000E+03 0.  0.
<mgrwt>
<rscale>  2 0.45079388E+03</rscale>
<asrwt>0</asrwt>
<pdfrwt beam="1">  1       21 0.59844728E-01 0.45079388E+03</pdfrwt>
<pdfrwt beam="2">  1       21 0.18359139E-01 0.45079388E+03</pdfrwt>
<totfact> 0.65231176E+04</totfact>
</mgrwt>
</event>
<event>
 7    0  0.4775379E-002  0.4648094E+03  0.7546771E-02  0.1023396E+00
         21   -1    0    0  502  501  0.00000000000E+00  0.00000000000E+00  0.17375378097E+03  0.17375378097E+03  0.00000000000E+00 0.  1.
         21   -1    0    0  501  502 -0.00000000000E+00 -0.00000000000E+00 -0.31085338384E+03  0.31085338384E+03  0.00000000000E+00 0.  1.
      99926    2    1    2    0    0  0.14210854715E-13  0.00000000000E+00 -0.13709960287E+03  0.48460716481E+03  0.46480942663E+03 0.  0.
      99925    2    3    3    0    0 -0.99213037885E+02 -0.70021400762E+02 -0.98588164059E+02  0.30606623821E+03  0.26307925162E+03 0.  0.
         25    1    4    4    0    0 -0.60348768297E+02 -0.74422092905E+02 -0.67181279294E+02  0.17129347371E+03  0.12509000000E+03 0.  0.
         25    1    4    4    0    0 -0.38864269589E+02  0.44006921424E+01 -0.31406884765E+02  0.13477276451E+03  0.12509000000E+03 0.  0.
         25    1    3    3    0    0  0.99213037885E+02  0.70021400762E+02 -0.38511438809E+02  0.17854092660E+03  0.12509000000E+03 0.  0.
<mgrwt>
<rscale>  2 0.46480943E+03</rscale>
<asrwt>0</asrwt>
<pdfrwt beam="1">  1       21 0.25552027E-01 0.46480943E+03</pdfrwt>
<pdfrwt beam="2">  1       21 0.45713732E-01 0.46480943E+03</pdfrwt>
<totfact> 0.61441354E+04</totfact>
</mgrwt>
</event>
<event>
 7    0  0.4775379E-002  0.4544426E+03  0.7546771E-02  0.1026405E+00
         21   -1    0    0  502  501  0.00000000000E+00  0.00000000000E+00  0.19768008249E+03  0.19768008249E+03  0.00000000000E+00 0.  1.
         21   -1    0    0  501  502 -0.00000000000E+00 -0.00000000000E+00 -0.26117709614E+03  0.26117709614E+03  0.00000000000E+00 0.  1.
      99926    2    1    2    0    0  0.00000000000E+00  0.00000000000E+00 -0.63497013648E+02  0.45885717864E+03  0.45444255924E+03 0.  0.
      99925    2    3    3    0    0  0.52536152518E+02  0.80767515902E+02  0.19283577810E+02  0.28057769757E+03  0.26280895924E+03 0.  0.
         25    1    4    4    0    0  0.59127129101E+02  0.66591698620E+02  0.17048862065E+02  0.15449480094E+03  0.12509000000E+03 0.  0.
         25    1    4    4    0    0 -0.65909765835E+01  0.14175817282E+02  0.22347157446E+01  0.12608289663E+03  0.12509000000E+03 0.  0.
         25    1    3    3    0    0 -0.52536152518E+02 -0.80767515902E+02 -0.82780591458E+02  0.17827948106E+03  0.12509000000E+03 0.  0.
<mgrwt>
<rscale>  2 0.45444256E+03</rscale>
<asrwt>0</asrwt>
<pdfrwt beam="1">  1       21 0.29070600E-01 0.45444256E+03</pdfrwt>
<pdfrwt beam="2">  1       21 0.38408396E-01 0.45444256E+03</pdfrwt>
<totfact> 0.68568251E+04</totfact>
</mgrwt>
</event>
<event>
 7    0  0.4775379E-002  0.4554766E+03  0.7546771E-02  0.1026101E+00
         21   -1    0    0  502  501  0.00000000000E+00  0.00000000000E+00  0.22505643050E+02  0.22505643050E+02  0.00000000000E+00 0.  1.
         21   -1    0    0  501  502 -0.00000000000E+00 -0.00000000000E+00 -0.23045213725E+04  0.23045213725E+04  0.00000000000E+00 0.  1.
      99926    2    1    2    0    0  0.00000000000E+00  0.17763568394E-14 -0.22820157294E+04  0.23270270155E+04  0.45547660932E+03 0.  0.
      99925    2    3    3    0    0 -0.10652769973E+03  0.13077648306E+02 -0.12451715237E+04  0.12771638860E+04  0.26301386384E+03 0.  0.
         25    1    3    3    0    0  0.10652769973E+03 -0.13077648306E+02 -0.10368442057E+04  0.10498631295E+04  0.12509000000E+03 0.  0.
         25    1    4    4    0    0 -0.20018508813E+02  0.12106786858E+02 -0.68451349147E+03  0.69624244563E+03  0.12509000000E+03 0.  0.
         25    1    4    4    0    0 -0.86509190915E+02  0.97086144828E+00 -0.56065803227E+03  0.58092144041E+03  0.12509000000E+03 0.  0.
<mgrwt>
<rscale>  2 0.45547661E+03</rscale>
<asrwt>0</asrwt>
<pdfrwt beam="1">  1       21 0.33096561E-02 0.45547661E+03</pdfrwt>
<pdfrwt beam="2">  1       21 0.33889993E+00 0.45547661E+03</pdfrwt>
<totfact> 0.90342679E+03</totfact>
</mgrwt>
</event>
<event>
 7    0  0.4775379E-002  0.4578830E+03  0.7546771E-02  0.1025397E+00
         21   -1    0    0  502  501  0.00000000000E+00  0.00000000000E+00  0.31310518657E+03  0.31310518657E+03  0.00000000000E+00 0.  1.
         21   -1    0    0  501  502 -0.00000000000E+00 -0.00000000000E+00 -0.16740124859E+03  0.16740124859E+03  0.00000000000E+00 0.  1.
      99926    2    1    2    0    0  0.17763568394E-14  0.14210854715E-13  0.14570393798E+03  0.48050643516E+03  0.45788295086E+03 0.  0.
      99925    2    3    3    0    0  0.13755216283E+02  0.11499625316E+03  0.95474488607E+02  0.30278797833E+03  0.26296736989E+03 0.  0.
         25    1    4    4    0    0  0.19592650704E+02  0.91722334070E+02  0.76337276803E+02  0.17398777675E+03  0.12509000000E+03 0.  0.
         25    1    3    3    0    0 -0.13755216283E+02 -0.11499625316E+03  0.50229449371E+02  0.17771845683E+03  0.12509000000E+03 0.  0.
         25    1    4    4    0    0 -0.58374344217E+01  0.23273919086E+02  0.19137211804E+02  0.12880020158E+03  0.12509000000E+03 0.  0.
<mgrwt>
<rscale>  2 0.45788295E+03</rscale>
<asrwt>0</asrwt>
<pdfrwt beam="1">  1       21 0.46044880E-01 0.45788295E+03</pdfrwt>
<pdfrwt beam="2">  1       21 0.24617831E-01 0.45788295E+03</pdfrwt>
<totfact> 0.65159435E+04</totfact>
</mgrwt>
</event>
<event>
 7    0  0.4775379E-002  0.4540295E+03  0.7546771E-02  0.1026527E+00
         21   -1    0    0  502  501  0.00000000000E+00  0.00000000000E+00  0.10749582568E+03  0.10749582568E+03  0.00000000000E+00 0.  1.
         21   -1    0    0  501  502 -0.00000000000E+00 -0.00000000000E+00 -0.47942042023E+03  0.47942042023E+03  0.00000000000E+00 0.  1.
      99926    2    1    2    0    0  0.00000000000E+00  0.00000000000E+00 -0.37192459455E+03  0.58691624591E+03  0.45402948769E+03 0.  0.
      99925    2    3    3    0    0 -0.69235227059E+02 -0.85761179724E+02 -0.26088526559E+03  0.38660214933E+03  0.26315699393E+03 0.  0.
         25    1    4    4    0    0 -0.73496916981E+02 -0.32172457903E+02 -0.14807609943E+03  0.20978775745E+03  0.12509000000E+03 0.  0.
         25    1    4    4    0    0  0.42616899217E+01 -0.53588721821E+02 -0.11280916616E+03  0.17681439188E+03  0.12509000000E+03 0.  0.
         25    1    3    3    0    0  0.69235227059E+02  0.85761179724E+02 -0.11103932896E+03  0.20031409658E+03  0.12509000000E+03 0.  0.
<mgrwt>
<rscale>  2 0.45402949E+03</rscale>
<asrwt>0</asrwt>
<pdfrwt beam="1">  1       21 0.15808210E-01 0.45402949E+03</pdfrwt>
<pdfrwt beam="2">  1       21 0.70503001E-01 0.45402949E+03</pdfrwt>
<totfact> 0.59949476E+04</totfact>
</mgrwt>
</event>
<event>
 7    0  0.4775379E-002  0.4608964E+03  0.7546771E-02  0.1024522E+00
         21   -1    0    0  502  501  0.00000000000E+00  0.00000000000E+00  0.10958297282E+03  0.10958297282E+03  0.00000000000E+00 0.  1.
         21   -1    0    0  501  502 -0.00000000000E+00 -0.00000000000E+00 -0.48462250189E+03  0.48462250189E+03  0.00000000000E+00 0.  1.
      99926    2    1    2    0    0  0.00000000000E+00  0.00000000000E+00 -0.37503952907E+03  0.59420547471E+03  0.46089640682E+03 0.  0.
      99925    2    3    3    0    0 -0.17551425200E+02 -0.23059971408E+02 -0.38302414137E+03  0.46555448583E+03  0.26304689998E+03 0.  0.
         25    1    4    4    0    0 -0.14651947135E+01  0.21142122517E+02 -0.22761173971E+03  0.26058347664E+03  0.12509000000E+03 0.  0.
         25    1    3    3    0    0  0.17551425200E+02  0.23059971408E+02  0.79846123084E+01  0.12865098889E+03  0.12509000000E+03 0.  0.
         25    1    4    4    0    0 -0.16086230487E+02 -0.44202093925E+02 -0.15541240166E+03  0.20497100919E+03  0.12509000000E+03 0.  0.
<mgrwt>
<rscale>  2 0.46089641E+03</rscale>
<asrwt>0</asrwt>
<pdfrwt beam="1">  1       21 0.16115143E-01 0.46089641E+03</pdfrwt>
<pdfrwt beam="2">  1       21 0.71268016E-01 0.46089641E+03</pdfrwt>
<totfact> 0.56363648E+04</totfact>
</mgrwt>
</event>
<event>
 7    0  0.4775379E-002  0.4579183E+03  0.7546771E-02  0.1025387E+00
         21   -1    0    0  502  501  0.00000000000E+00  0.00000000000E+00  0.68317911761E+02  0.68317911761E+02  0.00000000000E+00 0. -1.
         21   -1    0    0  501  502 -0.00000000000E+00 -0.00000000000E+00 -0.76732855812E+03  0.76732855812E+03  0.00000000000E+00 0. -1.
      99926    2    1    2    0    0  0.00000000000E+00  0.00000000000E+00 -0.69901064635E+03  0.83564646988E+03  0.45791826662E+03 0.  0.
      99925    2    3    3    0    0  0.29306203924E+02  0.11191880099E+03 -0.44937783692E+03  0.53340696344E+03  0.26305489301E+03 0.  0.
         25    1    4    4    0    0  0.90355536016E+00  0.95952819796E+02 -0.26173978386E+03  0.30555356747E+03  0.12509000000E+03 0.  0.
         25    1    4    4    0    0  0.28402648564E+02  0.15965981189E+02 -0.18763805306E+03  0.22785339597E+03  0.12509000000E+03 0.  0.
         25    1    3    3    0    0 -0.29306203924E+02 -0.11191880099E+03 -0.24963280944E+03  0.30223950643E+03  0.12509000000E+03 0.  0.
<mgrwt>
<rscale>  2 0.45791827E+03</rscale>
<asrwt>0</asrwt>
<pdfrwt beam="1">  1       21 0.10046752E-01 0.45791827E+03</pdfrwt>
<pdfrwt beam="2">  1       21 0.11284243E+00 0.45791827E+03</pdfrwt>
<totfact> 0.45048138E+04</totfact>
</mgrwt>
</event>
<event>
 7    0  0.4775379E-002  0.4685666E+03  0.7546771E-02  0.1022326E+00
         21   -1    0    0  502  501  0.00000000000E+00  0.00000000000E+00  0.34282019217E+03  0.34282019217E+03  0.00000000000E+00 0. -1.
         21   -1    0    0  501  502 -0.00000000000E+00 -0.00000000000E+00 -0.16010919151E+03  0.16010919151E+03  0.00000000000E+00 0. -1.
      99926    2    1    2    0    0  0.00000000000E+00  0.14210854715E-13  0.18271100066E+03  0.50292938368E+03  0.46856659634E+03 0.  0.
      99925    2    3    3    0    0 -0.20866435678E+02  0.10569524100E+03  0.18320077327E+03  0.33783958967E+03  0.26261411408E+03 0.  0.
         25    1    4    4    0    0 -0.15558545963E+02  0.80761584000E+02  0.62755389657E+02  0.16232759726E+03  0.12509000000E+03 0.  0.
         25    1    4    4    0    0 -0.53078897149E+01  0.24933657004E+02  0.12044538361E+03  0.17551199241E+03  0.12509000000E+03 0.  0.
         25    1    3    3    0    0  0.20866435678E+02 -0.10569524100E+03 -0.48977260680E+00  0.16508979401E+03  0.12509000000E+03 0.  0.
<mgrwt>
<rscale>  2 0.46856660E+03</rscale>
<asrwt>0</asrwt>
<pdfrwt beam="1">  1       21 0.50414734E-01 0.46856660E+03</pdfrwt>
<pdfrwt beam="2">  1       21 0.23545469E-01 0.46856660E+03</pdfrwt>
<totfact> 0.58505945E+04</totfact>
</mgrwt>
</event>
<event>
 7    0  0.4775379E-002  0.4626199E+03  0.7546771E-02  0.1024024E+00
         21   -1    0    0  502  501  0.00000000000E+00  0.00000000000E+00  0.10602588842E+04  0.10602588842E+04  0.00000000000E+00 0. -1.
         21   -1    0    0  501  502 -0.00000000000E+00 -0.00000000000E+00 -0.50463420475E+02  0.50463420475E+02  0.00000000000E+00 0. -1.
      99926    2    1    2    0    0  0.00000000000E+00  0.00000000000E+00  0.10097954638E+04  0.11107223047E+04  0.46261988668E+03 0.  0.
      99925    2    3    3    0    0  0.52466082426E+01  0.99269029739E+02  0.46890451617E+03  0.54672550291E+03  0.26297426315E+03 0.  0.
         25    1    3    3    0    0 -0.52466082426E+01 -0.99269029739E+02  0.54089094758E+03  0.56399680180E+03  0.12509000000E+03 0.  0.
         25    1    4    4    0    0  0.20248197519E+02  0.11251408643E+02  0.22345431664E+03  0.25713016825E+03  0.12509000000E+03 0.  0.
         25    1    4    4    0    0 -0.15001589276E+02  0.88017621095E+02  0.24545019954E+03  0.28959533466E+03  0.12509000000E+03 0.  0.
<mgrwt>
<rscale>  2 0.46261989E+03</rscale>
<asrwt>0</asrwt>
<pdfrwt beam="1">  1       21 0.15592041E+00 0.46261989E+03</pdfrwt>
<pdfrwt beam="2">  1       21 0.74210919E-02 0.46261989E+03</pdfrwt>
<totfact> 0.33109752E+04</totfact>
</mgrwt>
</event>
<event>
 7    0  0.4775379E-002  0.4532779E+03  0.7546771E-02  0.1026749E+00
         21   -1    0    0  502  501  0.00000000000E+00  0.00000000000E+00  0.11554295614E+03  0.11554295614E+03  0.00000000000E+00 0. -1.
         21   -1    0    0  501  502 -0.00000000000E+00 -0.00000000000E+00 -0.44455512360E+03  0.44455512360E+03  0.00000000000E+00 0. -1.
      99926    2    1    2    0    0  0.00000000000E+00  0.00000000000E+00 -0.32901216745E+03  0.56009807974E+03  0.45327789776E+03 0.  0.
      99925    2    3    3    0    0  0.92182774620E+02  0.59313614561E+02 -0.17931597944E+03  0.33632983889E+03  0.26257907616E+03 0.  0.
         25    1    3    3    0    0 -0.92182774620E+02 -0.59313614561E+02 -0.14969618801E+03  0.22376824085E+03  0.12509000000E+03 0.  0.
         25    1    4    4    0    0  0.25204130056E+02  0.56385144067E+02 -0.11370390830E+03  0.17997394119E+03  0.12509000000E+03 0.  0.
         25    1    4    4    0    0  0.66978644564E+02  0.29284704947E+01 -0.65612071142E+02  0.15635589770E+03  0.12509000000E+03 0.  0.
<mgrwt>
<rscale>  2 0.45327790E+03</rscale>
<asrwt>0</asrwt>
<pdfrwt beam="1">  1       21 0.16991612E-01 0.45327790E+03</pdfrwt>
<pdfrwt beam="2">  1       21 0.65375752E-01 0.45327790E+03</pdfrwt>
<totfact> 0.62044953E+04</totfact>
</mgrwt>
</event>
<event>
 7    0  0.4775379E-002  0.4582006E+03  0.7546771E-02  0.1025304E+00
         21   -1    0    0  502  501  0.00000000000E+00  0.00000000000E+00  0.61299399594E+02  0.61299399594E+02  0.00000000000E+00 0. -1.
         21   -1    0    0  501  502 -0.00000000000E+00 -0.00000000000E+00 -0.85623924158E+03  0.85623924158E+03  0.00000000000E+00 0. -1.
      99926    2    1    2    0    0  0.00000000000E+00  0.35527136788E-14 -0.79493984199E+03  0.91753864118E+03  0.45820061727E+03 0.  0.
      99925    2    3    3    0    0 -0.10582216675E+03 -0.29258833568E+02 -0.42294787105E+03  0.51000956876E+03  0.26300275339E+03 0.  0.
         25    1    3    3    0    0  0.10582216675E+03  0.29258833568E+02 -0.37199197094E+03  0.40752907242E+03  0.12509000000E+03 0.  0.
         25    1    4    4    0    0 -0.46343641640E+02  0.25523045209E+02 -0.19148969471E+03  0.23476577740E+03  0.12509000000E+03 0.  0.
         25    1    4    4    0    0 -0.59478525108E+02 -0.54781878777E+02 -0.23145817633E+03  0.27524379136E+03  0.12509000000E+03 0.  0.
<mgrwt>
<rscale>  2 0.45820062E+03</rscale>
<asrwt>0</asrwt>
<pdfrwt beam="1">  1       21 0.90146173E-02 0.45820062E+03</pdfrwt>
<pdfrwt beam="2">  1       21 0.12591754E+00 0.45820062E+03</pdfrwt>
<totfact> 0.41436280E+04</totfact>
</mgrwt>
</event>
<event>
 6    0  0.4775379E-002  0.4604103E+03  0.7546771E-02  0.1024662E+00
         21   -1    0    0  502  501  0.00000000000E+00  0.00000000000E+00  0.25457008006E+03  0.25457008006E+03  0.00000000000E+00 0. -1.
         21   -1    0    0  501  502 -0.00000000000E+00 -0.00000000000E+00 -0.20817219122E+03  0.20817219122E+03  0.00000000000E+00 0. -1.
      99926    2    1    2    0    0 -0.71054273576E-14  0.14210854715E-13  0.46397888843E+02  0.46274227128E+03  0.46041030129E+03 0.  0.
         25    1    3    3    0    0 -0.32589522967E+02  0.32384249144E+01 -0.13523847863E+02  0.13001141090E+03  0.12509000000E+03 0.  0.
         25    1    3    3    0    0  0.48673422221E+02 -0.69613756142E+02  0.10403823620E+03  0.18353920498E+03  0.12509000000E+03 0.  0.
         25    1    3    3    0    0 -0.16083899254E+02  0.66375331228E+02 -0.44116499493E+02  0.14919165539E+03  0.12509000000E+03 0.  0.
<mgrwt>
<rscale>  2 0.46041030E+03</rscale>
<asrwt>0</asrwt>
<pdfrwt beam="1">  1       21 0.37436777E-01 0.46041030E+03</pdfrwt>
<pdfrwt beam="2">  1       21 0.30613557E-01 0.46041030E+03</pdfrwt>
<totfact> 0.65125312E+04</totfact>
</mgrwt>
</event>
<event>
 7    0  0.4775379E-002  0.4918912E+03  0.7546771E-02  0.1015917E+00
         21   -1    0    0  502  501  0.00000000000E+00  0.00000000000E+00  0.55088672454E+02  0.55088672454E+02  0.00000000000E+00 0. -1.
         21   -1    0    0  501  502 -0.00000000000E+00 -0.00000000000E+00 -0.10980340473E+04  0.10980340473E+04  0.00000000000E+00 0. -1.
      99926    2    1    2    0    0  0.00000000000E+00  0.00000000000E+00 -0.10429453748E+04  0.11531227197E+04  0.49189119925E+03 0.  0.
      99925    2    3    3    0    0 -0.58782698754E+02 -0.12925235089E+03 -0.56844946299E+03  0.64228472748E+03  0.26312222121E+03 0.  0.
         25    1    3    3    0    0  0.58782698754E+02  0.12925235089E+03 -0.47449591184E+03  0.51083799226E+03  0.12509000000E+03 0.  0.
         25    1    4    4    0    0 -0.37855956639E+02 -0.10692880641E+03 -0.35236315172E+03  0.39073538601E+03  0.12509000000E+03 0.  0.
         25    1    4    4    0    0 -0.20926742115E+02 -0.22323544480E+02 -0.21608631127E+03  0.25154934147E+03  0.12509000000E+03 0.  0.
<mgrwt>
<rscale>  2 0.49189120E+03</rscale>
<asrwt>0</asrwt>
<pdfrwt beam="1">  1       21 0.81012754E-02 0.49189120E+03</pdfrwt>
<pdfrwt beam="2">  1       21 0.16147559E+00 0.49189120E+03</pdfrwt>
<totfact> 0.25514254E+04</totfact>
</mgrwt>
</event>
<event>
 7    0  0.4775379E-002  0.4559181E+03  0.7546771E-02  0.1025972E+00
         21   -1    0    0  502  501  0.00000000000E+00  0.00000000000E+00  0.45920865310E+03  0.45920865310E+03  0.00000000000E+00 0. -1.
         21   -1    0    0  501  502 -0.00000000000E+00 -0.00000000000E+00 -0.11316277147E+03  0.11316277147E+03  0.00000000000E+00 0. -1.
      99926    2    1    2    0    0  0.88817841970E-15  0.00000000000E+00  0.34604588162E+03  0.57237142457E+03  0.45591807978E+03 0.  0.
      99925    2    3    3    0    0 -0.19083788355E+01 -0.10042658441E+03  0.14983013301E+03  0.31892070180E+03  0.26300609216E+03 0.  0.
         25    1    4    4    0    0  0.29725605745E+02 -0.47740046951E+02  0.10429225382E+03  0.17229946613E+03  0.12509000000E+03 0.  0.
         25    1    4    4    0    0 -0.31633984581E+02 -0.52686537460E+02  0.45537879184E+02  0.14662123567E+03  0.12509000000E+03 0.  0.
         25    1    3    3    0    0  0.19083788355E+01  0.10042658441E+03  0.19621574862E+03  0.25345072277E+03  0.12509000000E+03 0.  0.
<mgrwt>
<rscale>  2 0.45591808E+03</rscale>
<asrwt>0</asrwt>
<pdfrwt beam="1">  1       21 0.67530683E-01 0.45591808E+03</pdfrwt>
<pdfrwt beam="2">  1       21 0.16641584E-01 0.45591808E+03</pdfrwt>
<totfact> 0.59975363E+04</totfact>
</mgrwt>
</event>
<event>
 7    0  0.4775379E-002  0.4478805E+03  0.7546771E-02  0.1028356E+00
         21   -1    0    0  502  501  0.00000000000E+00  0.00000000000E+00  0.18573894991E+03  0.18573894991E+03  0.00000000000E+00 0. -1.
         21   -1    0    0  501  502 -0.00000000000E+00 -0.00000000000E+00 -0.26999851350E+03  0.26999851350E+03  0.00000000000E+00 0. -1.
      99926    2    1    2    0    0  0.00000000000E+00  0.00000000000E+00 -0.84259563583E+02  0.45573746341E+03  0.44788052146E+03 0.  0.
      99925    2    3    3    0    0 -0.34059450745E+02 -0.77957734860E+02 -0.11825931926E+03  0.30068603293E+03  0.26303872186E+03 0.  0.
         25    1    4    4    0    0  0.53745664121E+01 -0.44531729169E+02 -0.22243712672E+02  0.13473771454E+03  0.12509000000E+03 0.  0.
         25    1    3    3    0    0  0.34059450745E+02  0.77957734860E+02  0.33999755678E+02  0.15505143049E+03  0.12509000000E+03 0.  0.
         25    1    4    4    0    0 -0.39434017157E+02 -0.33426005692E+02 -0.96015606589E+02  0.16594831838E+03  0.12509000000E+03 0.  0.
<mgrwt>
<rscale>  2 0.44788052E+03</rscale>
<asrwt>0</asrwt>
<pdfrwt beam="1">  1       21 0.27314552E-01 0.44788052E+03</pdfrwt>
<pdfrwt beam="2">  1       21 0.39705663E-01 0.44788052E+03</pdfrwt>
<totfact> 0.72521601E+04</totfact>
</mgrwt>
</event>
<event>
 7    0  0.4775379E-002  0.4492940E+03  0.7546771E-02  0.1027933E+00
         21   -1    0    0  502  501  0.00000000000E+00  0.00000000000E+00  0.43813953672E+03  0.43813953672E+03  0.00000000000E+00 0.  1.
         21   -1    0    0  501  502 -0.00000000000E+00 -0.00000000000E+00 -0.11518308916E+03  0.11518308916E+03  0.00000000000E+00 0.  1.
      99926    2    1    2    0    0  0.00000000000E+00  0.00000000000E+00  0.32295644756E+03  0.55332262588E+03  0.44929395867E+03 0.  0.
      99925    2    3    3    0    0  0.47746973212E+02 -0.18180342279E+02  0.32104001017E+03  0.41818758554E+03  0.26306628494E+03 0.  0.
         25    1    4    4    0    0 -0.11169779635E+02 -0.11813395877E+02  0.11998467038E+03  0.17409235918E+03  0.12509000000E+03 0.  0.
         25    1    3    3    0    0 -0.47746973212E+02  0.18180342279E+02  0.19164373850E+01  0.13513504034E+03  0.12509000000E+03 0.  0.
         25    1    4    4    0    0  0.58916752848E+02 -0.63669464028E+01  0.20105533979E+03  0.24409522635E+03  0.12509000000E+03 0.  0.
<mgrwt>
<rscale>  2 0.44929396E+03</rscale>
<asrwt>0</asrwt>
<pdfrwt beam="1">  1       21 0.64432284E-01 0.44929396E+03</pdfrwt>
<pdfrwt beam="2">  1       21 0.16938690E-01 0.44929396E+03</pdfrwt>
<totfact> 0.64510634E+04</totfact>
</mgrwt>
</event>
<event>
 7    0  0.4775379E-002  0.4567134E+03  0.7546771E-02  0.1025739E+00
         21   -1    0    0  502  501  0.00000000000E+00  0.00000000000E+00  0.65081604413E+02  0.65081604413E+02  0.00000000000E+00 0.  1.
         21   -1    0    0  501  502 -0.00000000000E+00 -0.00000000000E+00 -0.80125231692E+03  0.80125231692E+03  0.00000000000E+00 0.  1.
      99926    2    1    2    0    0 -0.17763568394E-14  0.00000000000E+00 -0.73617071251E+03  0.86633392133E+03  0.45671341704E+03 0.  0.
      99925    2    3    3    0    0  0.23050907926E+01 -0.10682527018E+03 -0.54177742018E+03  0.61167098333E+03  0.26306209730E+03 0.  0.
         25    1    4    4    0    0 -0.27475822468E+02 -0.77800115946E+02 -0.24950334062E+03  0.29104502047E+03  0.12509000000E+03 0.  0.
         25    1    3    3    0    0 -0.23050907926E+01  0.10682527018E+03 -0.19439329232E+03  0.25466293800E+03  0.12509000000E+03 0.  0.
         25    1    4    4    0    0  0.29780913260E+02 -0.29025154235E+02 -0.29227407956E+03  0.32062596286E+03  0.12509000000E+03 0.  0.
<mgrwt>
<rscale>  2 0.45671342E+03</rscale>
<asrwt>0</asrwt>
<pdfrwt beam="1">  1       21 0.95708236E-02 0.45671342E+03</pdfrwt>
<pdfrwt beam="2">  1       21 0.11783123E+00 0.45671342E+03</pdfrwt>
<totfact> 0.44121306E+04</totfact>
</mgrwt>
</event>
<event>
 7    0  0.4775379E-002  0.4543055E+03  0.7546771E-02  0.1026446E+00
         21   -1    0    0  502  501  0.00000000000E+00  0.00000000000E+00  0.11856777860E+03  0.11856777860E+03  0.00000000000E+00 0. -1.
         21   -1    0    0  501  502 -0.00000000000E+00 -0.00000000000E+00 -0.43518031639E+03  0.43518031639E+03  0.00000000000E+00 0. -1.
      99926    2    1    2    0    0  0.00000000000E+00  0.00000000000E+00 -0.31661253779E+03  0.55374809498E+03  0.45430546289E+03 0.  0.
      99925    2    3    3    0    0  0.95607772693E+02 -0.49046182692E+02 -0.15800508273E+03  0.32494641855E+03  0.26282730932E+03 0.  0.
         25    1    4    4    0    0  0.14166741386E+02 -0.47295014858E+02 -0.80799216404E+02  0.15688701815E+03  0.12509000000E+03 0.  0.
         25    1    4    4    0    0  0.81441031307E+02 -0.17511678343E+01 -0.77205866321E+02  0.16805940040E+03  0.12509000000E+03 0.  0.
         25    1    3    3    0    0 -0.95607772693E+02  0.49046182692E+02 -0.15860745507E+03  0.22880167643E+03  0.12509000000E+03 0.  0.
<mgrwt>
<rscale>  2 0.45430546E+03</rscale>
<asrwt>0</asrwt>
<pdfrwt beam="1">  1       21 0.17436438E-01 0.45430546E+03</pdfrwt>
<pdfrwt beam="2">  1       21 0.63997104E-01 0.45430546E+03</pdfrwt>
<totfact> 0.61959251E+04</totfact>
</mgrwt>
</event>
<event>
 7    0  0.4775379E-002  0.4530649E+03  0.7546771E-02  0.1026812E+00
         21   -1    0    0  502  501  0.00000000000E+00  0.00000000000E+00  0.12700615856E+04  0.12700615856E+04  0.00000000000E+00 0.  1.
         21   -1    0    0  501  502 -0.00000000000E+00 -0.00000000000E+00 -0.40405083175E+02  0.40405083175E+02  0.00000000000E+00 0.  1.
      99926    2    1    2    0    0  0.00000000000E+00  0.33306690739E-15  0.12296565025E+04  0.13104666688E+04  0.45306486955E+03 0.  0.
      99925    2    3    3    0    0 -0.79578595842E+02  0.73329935102E+00  0.55019674230E+03  0.61501978771E+03  0.26305815593E+03 0.  0.
         25    1    3    3    0    0  0.79578595842E+02 -0.73329935102E+00  0.67945976017E+03  0.69544688110E+03  0.12509000000E+03 0.  0.
         25    1    4    4    0    0  0.85177832442E+00  0.11820271709E+02  0.24556778911E+03  0.27584686240E+03  0.12509000000E+03 0.  0.
         25    1    4    4    0    0 -0.80430374166E+02 -0.11086972358E+02  0.30462895319E+03  0.33917292531E+03  0.12509000000E+03 0.  0.
<mgrwt>
<rscale>  2 0.45306487E+03</rscale>
<asrwt>0</asrwt>
<pdfrwt beam="1">  1       21 0.18677374E+00 0.45306487E+03</pdfrwt>
<pdfrwt beam="2">  1       21 0.59419248E-02 0.45306487E+03</pdfrwt>
<totfact> 0.29249922E+04</totfact>
</mgrwt>
</event>
<event>
 7    0  0.4775379E-002  0.4474650E+03  0.7546771E-02  0.1028481E+00
         21   -1    0    0  502  501  0.00000000000E+00  0.00000000000E+00  0.15122190638E+03  0.15122190638E+03  0.00000000000E+00 0. -1.
         21   -1    0    0  501  502 -0.00000000000E+00 -0.00000000000E+00 -0.33101184607E+03  0.33101184607E+03  0.00000000000E+00 0. -1.
      99926    2    1    2    0    0  0.00000000000E+00  0.00000000000E+00 -0.17978993969E+03  0.48223375245E+03  0.44746504846E+03 0.  0.
      99925    2    3    3    0    0 -0.91505355815E+02  0.34952973334E+02 -0.15758809074E+03  0.32181127683E+03  0.26293259795E+03 0.  0.
         25    1    4    4    0    0 -0.17009413978E+02  0.34079198733E+02 -0.46893038197E+02  0.13891427962E+03  0.12509000000E+03 0.  0.
         25    1    3    3    0    0  0.91505355815E+02 -0.34952973334E+02 -0.22201848944E+02  0.16042247562E+03  0.12509000000E+03 0.  0.
         25    1    4    4    0    0 -0.74495941837E+02  0.87377460148E+00 -0.11069505254E+03  0.18289699721E+03  0.12509000000E+03 0.  0.
<mgrwt>
<rscale>  2 0.44746505E+03</rscale>
<asrwt>0</asrwt>
<pdfrwt beam="1">  1       21 0.22238516E-01 0.44746505E+03</pdfrwt>
<pdfrwt beam="2">  1       21 0.48678212E-01 0.44746505E+03</pdfrwt>
<totfact> 0.70671488E+04</totfact>
</mgrwt>
</event>
<event>
 7    0  0.4775379E-002  0.4548882E+03  0.7546771E-02  0.1026274E+00
         21   -1    0    0  502  501  0.00000000000E+00  0.00000000000E+00  0.13240713819E+04  0.13240713819E+04  0.00000000000E+00 0. -1.
         21   -1    0    0  501  502 -0.00000000000E+00 -0.00000000000E+00 -0.39069503578E+02  0.39069503578E+02  0.00000000000E+00 0. -1.
      99926    2    1    2    0    0  0.00000000000E+00  0.00000000000E+00  0.12850018783E+04  0.13631408855E+04  0.45488816908E+03 0.  0.
      99925    2    3    3    0    0  0.52291980827E+02  0.97523820959E+02  0.74034940011E+03  0.79345748478E+03  0.26308211454E+03 0.  0.
         25    1    4    4    0    0  0.44778319699E+02  0.56406628679E+02  0.28610033966E+03  0.32044924423E+03  0.12509000000E+03 0.  0.
         25    1    3    3    0    0 -0.52291980827E+02 -0.97523820959E+02  0.54465247821E+03  0.56968340070E+03  0.12509000000E+03 0.  0.
         25    1    4    4    0    0  0.75136611280E+01  0.41117192281E+02  0.45424906045E+03  0.47300824055E+03  0.12509000000E+03 0.  0.
<mgrwt>
<rscale>  2 0.45488817E+03</rscale>
<asrwt>0</asrwt>
<pdfrwt beam="1">  1       21 0.19471635E+00 0.45488817E+03</pdfrwt>
<pdfrwt beam="2">  1       21 0.57455161E-02 0.45488817E+03</pdfrwt>
<totfact> 0.27354788E+04</totfact>
</mgrwt>
</event>
<event>
 7    0  0.4775379E-002  0.4586168E+03  0.7546771E-02  0.1025183E+00
         21   -1    0    0  502  501  0.00000000000E+00  0.00000000000E+00  0.42096882442E+02  0.42096882442E+02  0.00000000000E+00 0. -1.
         21   -1    0    0  501  502 -0.00000000000E+00 -0.00000000000E+00 -0.12490793523E+04  0.12490793523E+04  0.00000000000E+00 0. -1.
      99926    2    1    2    0    0  0.00000000000E+00  0.00000000000E+00 -0.12069824698E+04  0.12911762347E+04  0.45861681894E+03 0.  0.
      99925    2    3    3    0    0 -0.69238739047E+02  0.75415872195E+02 -0.91396403382E+03  0.95652885507E+03  0.26293656781E+03 0.  0.
         25    1    4    4    0    0 -0.51410905928E+01  0.43913214312E+02 -0.53237929792E+03  0.54866203273E+03  0.12509000000E+03 0.  0.
         25    1    4    4    0    0 -0.64097648454E+02  0.31502657883E+02 -0.38158473590E+03  0.40786682234E+03  0.12509000000E+03 0.  0.
         25    1    3    3    0    0  0.69238739047E+02 -0.75415872195E+02 -0.29301843600E+03  0.33464737964E+03  0.12509000000E+03 0.  0.
<mgrwt>
<rscale>  2 0.45861682E+03</rscale>
<asrwt>0</asrwt>
<pdfrwt beam="1">  1       21 0.61907183E-02 0.45861682E+03</pdfrwt>
<pdfrwt beam="2">  1       21 0.18368813E+00 0.45861682E+03</pdfrwt>
<totfact> 0.28559945E+04</totfact>
</mgrwt>
</event>
<event>
 7    0  0.4775379E-002  0.4528505E+03  0.7546771E-02  0.1026875E+00
         21   -1    0    0  502  501  0.00000000000E+00  0.00000000000E+00  0.14759070874E+04  0.14759070874E+04  0.00000000000E+00 0.  1.
         21   -1    0    0  501  502 -0.00000000000E+00 -0.00000000000E+00 -0.34736871835E+02  0.34736871835E+02  0.00000000000E+00 0.  1.
      99926    2    1    2    0    0  0.00000000000E+00 -0.14210854715E-13  0.14411702155E+04  0.15106439592E+04  0.45285050661E+03 0.  0.
      99925    2    3    3    0    0  0.57978764949E+02  0.88683929556E+02  0.79364511635E+03  0.84268988988E+03  0.26273047646E+03 0.  0.
         25    1    4    4    0    0 -0.11097500404E+02  0.34214558297E+02  0.34888847973E+03  0.37237678486E+03  0.12509000000E+03 0.  0.
         25    1    4    4    0    0  0.69076265353E+02  0.54469371259E+02  0.44475663662E+03  0.47031310503E+03  0.12509000000E+03 0.  0.
         25    1    3    3    0    0 -0.57978764949E+02 -0.88683929556E+02  0.64752509917E+03  0.66795406931E+03  0.12509000000E+03 0.  0.
<mgrwt>
<rscale>  2 0.45285051E+03</rscale>
<asrwt>0</asrwt>
<pdfrwt beam="1">  1       21 0.21704512E+00 0.45285051E+03</pdfrwt>
<pdfrwt beam="2">  1       21 0.51083645E-02 0.45285051E+03</pdfrwt>
<totfact> 0.23916263E+04</totfact>
</mgrwt>
</event>
<event>
 7    0  0.4775379E-002  0.4507938E+03  0.7546771E-02  0.1027486E+00
         21   -1    0    0  502  501  0.00000000000E+00  0.00000000000E+00  0.20845603692E+02  0.20845603692E+02  0.00000000000E+00 0.  1.
         21   -1    0    0  501  502 -0.00000000000E+00 -0.00000000000E+00 -0.24371447118E+04  0.24371447118E+04  0.00000000000E+00 0.  1.
      99926    2    1    2    0    0  0.00000000000E+00  0.00000000000E+00 -0.24162991081E+04  0.24579903155E+04  0.45079375685E+03 0.  0.
      99925    2    3    3    0    0 -0.37577136015E+02 -0.82405016043E+02 -0.18588090515E+04  0.18795049664E+04  0.26299277725E+03 0.  0.
         25    1    3    3    0    0  0.37577136015E+02  0.82405016043E+02 -0.55749005657E+03  0.57848534907E+03  0.12509000000E+03 0.  0.
         25    1    4    4    0    0 -0.81912475495E+01 -0.68116770399E+02 -0.11701151787E+04  0.11787807389E+04  0.12509000000E+03 0.  0.
         25    1    4    4    0    0 -0.29385888465E+02 -0.14288245644E+02 -0.68869387284E+03  0.70072422749E+03  0.12509000000E+03 0.  0.
<mgrwt>
<rscale>  2 0.45079376E+03</rscale>
<asrwt>0</asrwt>
<pdfrwt beam="1">  1       21 0.30655323E-02 0.45079376E+03</pdfrwt>
<pdfrwt beam="2">  1       21 0.35840336E+00 0.45079376E+03</pdfrwt>
<totfact> 0.78240260E+03</totfact>
</mgrwt>
</event>
<event>
 7    0  0.4775379E-002  0.4537418E+03  0.7546771E-02  0.1026612E+00
         21   -1    0    0  502  501  0.00000000000E+00  0.00000000000E+00  0.13214825473E+03  0.13214825473E+03  0.00000000000E+00 0. -1.
         21   -1    0    0  501  502 -0.00000000000E+00 -0.00000000000E+00 -0.38948987762E+03  0.38948987762E+03  0.00000000000E+00 0. -1.
      99926    2    1    2    0    0  0.00000000000E+00  0.00000000000E+00 -0.25734162289E+03  0.52163813234E+03  0.45374181011E+03 0.  0.
      99925    2    3    3    0    0  0.10224646388E+03 -0.44609737507E+02 -0.15170867438E+03  0.32352151020E+03  0.26307086046E+03 0.  0.
         25    1    4    4    0    0  0.34157808962E+02  0.15978209071E+02 -0.77118596639E+02  0.15171303545E+03  0.12509000000E+03 0.  0.
         25    1    3    3    0    0 -0.10224646388E+03  0.44609737507E+02 -0.10563294851E+03  0.19811662214E+03  0.12509000000E+03 0.  0.
         25    1    4    4    0    0  0.68088654923E+02 -0.60587946578E+02 -0.74590077742E+02  0.17180847475E+03  0.12509000000E+03 0.  0.
<mgrwt>
<rscale>  2 0.45374181E+03</rscale>
<asrwt>0</asrwt>
<pdfrwt beam="1">  1       21 0.19433567E-01 0.45374181E+03</pdfrwt>
<pdfrwt beam="2">  1       21 0.57277923E-01 0.45374181E+03</pdfrwt>
<totfact> 0.64416206E+04</totfact>
</mgrwt>
</event>
<event>
 7    0  0.4775379E-002  0.4559418E+03  0.7546771E-02  0.1025965E+00
         21   -1    0    0  502  501  0.00000000000E+00  0.00000000000E+00  0.26457168226E+03  0.26457168226E+03  0.00000000000E+00 0. -1.
         21   -1    0    0  501  502 -0.00000000000E+00 -0.00000000000E+00 -0.19643348399E+03  0.19643348399E+03  0.00000000000E+00 0. -1.
      99926    2    1    2    0    0  0.00000000000E+00  0.00000000000E+00  0.68138198272E+02  0.46100516625E+03  0.45594182660E+03 0.  0.
      99925    2    3    3    0    0  0.17838491183E+02 -0.90191874152E+01 -0.70651974005E+02  0.27309620550E+03  0.26304045035E+03 0.  0.
         25    1    3    3    0    0 -0.17838491183E+02  0.90191874152E+01  0.13879017228E+03  0.18790896075E+03  0.12509000000E+03 0.  0.
         25    1    4    4    0    0  0.26961062277E+02  0.13867069077E+02 -0.29573207608E+01  0.12874567305E+03  0.12509000000E+03 0.  0.
         25    1    4    4    0    0 -0.91225710942E+01 -0.22886256493E+02 -0.67694653245E+02  0.14435053245E+03  0.12509000000E+03 0.  0.
<mgrwt>
<rscale>  2 0.45594183E+03</rscale>
<asrwt>0</asrwt>
<pdfrwt beam="1">  1       21 0.38907600E-01 0.45594183E+03</pdfrwt>
<pdfrwt beam="2">  1       21 0.28887277E-01 0.45594183E+03</pdfrwt>
<totfact> 0.67598236E+04</totfact>
</mgrwt>
</event>
<event>
 7    0  0.4775379E-002  0.4572606E+03  0.7546771E-02  0.1025579E+00
         21   -1    0    0  502  501  0.00000000000E+00  0.00000000000E+00  0.10184209896E+04  0.10184209896E+04  0.00000000000E+00 0. -1.
         21   -1    0    0  501  502 -0.00000000000E+00 -0.00000000000E+00 -0.51326324195E+02  0.51326324195E+02  0.00000000000E+00 0. -1.
      99926    2    1    2    0    0  0.00000000000E+00  0.00000000000E+00  0.96709466543E+03  0.10697473138E+04  0.45726056414E+03 0.  0.
      99925    2    3    3    0    0  0.68738347523E+02 -0.44374413341E+02  0.79737294046E+03  0.84359024228E+03  0.26295787061E+03 0.  0.
         25    1    3    3    0    0 -0.68738347523E+02  0.44374413341E+02  0.16972172497E+03  0.22615707154E+03  0.12509000000E+03 0.  0.
         25    1    4    4    0    0  0.63153074012E+02 -0.21919067766E+02  0.32944752391E+03  0.35868082664E+03  0.12509000000E+03 0.  0.
         25    1    4    4    0    0  0.55852735110E+01 -0.22455345574E+02  0.46792541655E+03  0.48490941564E+03  0.12509000000E+03 0.  0.
<mgrwt>
<rscale>  2 0.45726056E+03</rscale>
<asrwt>0</asrwt>
<pdfrwt beam="1">  1       21 0.14976778E+00 0.45726056E+03</pdfrwt>
<pdfrwt beam="2">  1       21 0.75479895E-02 0.45726056E+03</pdfrwt>
<totfact> 0.35923147E+04</totfact>
</mgrwt>
</event>
<event>
 7    0  0.4775379E-002  0.4564044E+03  0.7546771E-02  0.1025829E+00
         21   -1    0    0  502  501  0.00000000000E+00  0.00000000000E+00  0.13201474301E+03  0.13201474301E+03  0.00000000000E+00 0. -1.
         21   -1    0    0  501  502 -0.00000000000E+00 -0.00000000000E+00 -0.39447297608E+03  0.39447297608E+03  0.00000000000E+00 0. -1.
      99926    2    1    2    0    0 -0.14210854715E-13  0.71054273576E-14 -0.26245823308E+03  0.52648771909E+03  0.45640441961E+03 0.  0.
      99925    2    3    3    0    0  0.10733572695E+03 -0.34126813131E+02 -0.18852642962E+03  0.34264262855E+03  0.26301360911E+03 0.  0.
         25    1    4    4    0    0  0.97008914950E+02 -0.13488236707E+02 -0.10176623906E+03  0.18867044714E+03  0.12509000000E+03 0.  0.
         25    1    3    3    0    0 -0.10733572695E+03  0.34126813131E+02 -0.73931803457E+02  0.18384509054E+03  0.12509000000E+03 0.  0.
         25    1    4    4    0    0  0.10326811999E+02 -0.20638576425E+02 -0.86760190559E+02  0.15397218141E+03  0.12509000000E+03 0.  0.
<mgrwt>
<rscale>  2 0.45640442E+03</rscale>
<asrwt>0</asrwt>
<pdfrwt beam="1">  1       21 0.19413933E-01 0.45640442E+03</pdfrwt>
<pdfrwt beam="2">  1       21 0.58010732E-01 0.45640442E+03</pdfrwt>
<totfact> 0.62743478E+04</totfact>
</mgrwt>
</event>
<event>
 7    0  0.4775379E-002  0.4351395E+03  0.7546771E-02  0.1032249E+00
         21   -1    0    0  502  501  0.00000000000E+00  0.00000000000E+00  0.17253279286E+03  0.17253279286E+03  0.00000000000E+00 0. -1.
         21   -1    0    0  501  502 -0.00000000000E+00 -0.00000000000E+00 -0.27436291668E+03  0.27436291668E+03  0.00000000000E+00 0. -1.
      99926    2    1    2    0    0  0.71054273576E-14  0.00000000000E+00 -0.10183012382E+03  0.44689570954E+03  0.43513951911E+03 0.  0.
      99925    2    3    3    0    0 -0.31862465583E+02  0.87501220211E+02 -0.71283731832E+02  0.28798607983E+03  0.26302648441E+03 0.  0.
         25    1    4    4    0    0 -0.34526486392E+02  0.57494745792E+02 -0.72361254301E+02  0.15931535795E+03  0.12509000000E+03 0.  0.
         25    1    4    4    0    0  0.26640208085E+01  0.30006474419E+02  0.10775224684E+01  0.12867072188E+03  0.12509000000E+03 0.  0.
         25    1    3    3    0    0  0.31862465583E+02 -0.87501220211E+02 -0.30546391988E+02  0.15890962971E+03  0.12509000000E+03 0.  0.
<mgrwt>
<rscale>  2 0.43513952E+03</rscale>
<asrwt>0</asrwt>
<pdfrwt beam="1">  1       21 0.25372470E-01 0.43513952E+03</pdfrwt>
<pdfrwt beam="2">  1       21 0.40347487E-01 0.43513952E+03</pdfrwt>
<totfact> 0.81259062E+04</totfact>
</mgrwt>
</event>
<event>
 6    0  0.4775379E-002  0.5723418E+03  0.7546771E-02  0.9964510E-01
         21   -1    0    0  502  501  0.00000000000E+00  0.00000000000E+00  0.14070192058E+03  0.14070192058E+03  0.00000000000E+00 0.  1.
         21   -1    0    0  501  502 -0.00000000000E+00 -0.00000000000E+00 -0.58203748382E+03  0.58203748382E+03  0.00000000000E+00 0.  1.
      99925    2    1    2    0    0  0.69111237964E+02  0.16721480450E+03 -0.13783142567E+03  0.34790687689E+03  0.26325755265E+03 0.  0.
         25    1    3    3    0    0  0.55772894859E+01  0.86804876544E+02 -0.35183935528E+02  0.15637010638E+03  0.12509000000E+03 0.  0.
         25    1    3    3    0    0  0.63533948478E+02  0.80409927956E+02 -0.10264749015E+03  0.19153677051E+03  0.12509000000E+03 0.  0.
         25    1    1    2    0    0 -0.69111237964E+02 -0.16721480450E+03 -0.30350413757E+03  0.37483252751E+03  0.12509000000E+03 0.  0.
<mgrwt>
<rscale>  2 0.57234183E+03</rscale>
<asrwt>0</asrwt>
<pdfrwt beam="1">  1       21 0.20691459E-01 0.57234183E+03</pdfrwt>
<pdfrwt beam="2">  1       21 0.85593749E-01 0.57234183E+03</pdfrwt>
<totfact> 0.22494352E+04</totfact>
</mgrwt>
</event>
<event>
 7    0  0.4775379E-002  0.4587490E+03  0.7546771E-02  0.1025145E+00
         21   -1    0    0  502  501  0.00000000000E+00  0.00000000000E+00  0.46285541744E+02  0.46285541744E+02  0.00000000000E+00 0.  1.
         21   -1    0    0  501  502 -0.00000000000E+00 -0.00000000000E+00 -0.11366975871E+04  0.11366975871E+04  0.00000000000E+00 0.  1.
      99926    2    1    2    0    0  0.00000000000E+00  0.00000000000E+00 -0.10904120453E+04  0.11829831288E+04  0.45874901031E+03 0.  0.
      99925    2    3    3    0    0  0.91787934514E+02 -0.71042956602E+02 -0.71180746960E+03  0.76769881720E+03  0.26309593983E+03 0.  0.
         25    1    4    4    0    0  0.70279758088E+02 -0.41580078097E+02 -0.28984643178E+03  0.32607761255E+03  0.12509000000E+03 0.  0.
         25    1    4    4    0    0  0.21508176425E+02 -0.29462878506E+02 -0.42196103782E+03  0.44162120466E+03  0.12509000000E+03 0.  0.
         25    1    3    3    0    0 -0.91787934514E+02  0.71042956602E+02 -0.37860457571E+03  0.41528431159E+03  0.12509000000E+03 0.  0.
<mgrwt>
<rscale>  2 0.45874901E+03</rscale>
<asrwt>0</asrwt>
<pdfrwt beam="1">  1       21 0.68066979E-02 0.45874901E+03</pdfrwt>
<pdfrwt beam="2">  1       21 0.16716139E+00 0.45874901E+03</pdfrwt>
<totfact> 0.31762058E+04</totfact>
</mgrwt>
</event>
<event>
 7    0  0.4775379E-002  0.4529568E+03  0.7546771E-02  0.1026844E+00
         21   -1    0    0  502  501  0.00000000000E+00  0.00000000000E+00  0.39152315141E+03  0.39152315141E+03  0.00000000000E+00 0.  1.
         21   -1    0    0  501  502 -0.00000000000E+00 -0.00000000000E+00 -0.13100751904E+03  0.13100751904E+03  0.00000000000E+00 0.  1.
      99926    2    1    2    0    0  0.00000000000E+00  0.71054273576E-14  0.26051563237E+03  0.52253067045E+03  0.45295684877E+03 0.  0.
      99925    2    3    3    0    0 -0.70063092860E+02 -0.52287646468E+02  0.84680206992E+02  0.28970361044E+03  0.26289657565E+03 0.  0.
         25    1    3    3    0    0  0.70063092860E+02  0.52287646468E+02  0.17583542538E+03  0.23282706001E+03  0.12509000000E+03 0.  0.
         25    1    4    4    0    0 -0.20105100597E+02 -0.56113701912E+02  0.66614983433E+02  0.15374663161E+03  0.12509000000E+03 0.  0.
         25    1    4    4    0    0 -0.49957992263E+02  0.38260554443E+01  0.18065223559E+02  0.13595697883E+03  0.12509000000E+03 0.  0.
<mgrwt>
<rscale>  2 0.45295685E+03</rscale>
<asrwt>0</asrwt>
<pdfrwt beam="1">  1       21 0.57576934E-01 0.45295685E+03</pdfrwt>
<pdfrwt beam="2">  1       21 0.19265812E-01 0.45295685E+03</pdfrwt>
<totfact> 0.64757506E+04</totfact>
</mgrwt>
</event>
<event>
 7    0  0.4775379E-002  0.4523462E+03  0.7546771E-02  0.1027025E+00
         21   -1    0    0  502  501  0.00000000000E+00  0.00000000000E+00  0.20639682998E+03  0.20639682998E+03  0.00000000000E+00 0.  1.
         21   -1    0    0  501  502 -0.00000000000E+00 -0.00000000000E+00 -0.24784422272E+03  0.24784422272E+03  0.00000000000E+00 0.  1.
      99926    2    1    2    0    0  0.00000000000E+00  0.00000000000E+00 -0.41447392747E+02  0.45424105270E+03  0.45234615904E+03 0.  0.
      99925    2    3    3    0    0  0.44968150061E+02 -0.40025334063E+02 -0.11955592019E+03  0.29495322503E+03  0.26283003066E+03 0.  0.
         25    1    4    4    0    0 -0.12352656253E+02 -0.36999531436E+02 -0.70842963967E+02  0.14895565477E+03  0.12509000000E+03 0.  0.
         25    1    3    3    0    0 -0.44968150061E+02  0.40025334063E+02  0.78108527443E+02  0.15928782768E+03  0.12509000000E+03 0.  0.
         25    1    4    4    0    0  0.57320806314E+02 -0.30258026268E+01 -0.48712956223E+02  0.14599757026E+03  0.12509000000E+03 0.  0.
<mgrwt>
<rscale>  2 0.45234616E+03</rscale>
<asrwt>0</asrwt>
<pdfrwt beam="1">  1       21 0.30352475E-01 0.45234616E+03</pdfrwt>
<pdfrwt beam="2">  1       21 0.36447679E-01 0.45234616E+03</pdfrwt>
<totfact> 0.70073465E+04</totfact>
</mgrwt>
</event>
<event>
 7    0  0.4775379E-002  0.4566512E+03  0.7546771E-02  0.1025757E+00
         21   -1    0    0  502  501  0.00000000000E+00  0.00000000000E+00  0.70522598136E+03  0.70522598136E+03  0.00000000000E+00 0. -1.
         21   -1    0    0  501  502 -0.00000000000E+00 -0.00000000000E+00 -0.73923236132E+02  0.73923236132E+02  0.00000000000E+00 0. -1.
      99926    2    1    2    0    0  0.35527136788E-14  0.14210854715E-13  0.63130274523E+03  0.77914921749E+03  0.45665123123E+03 0.  0.
      99925    2    3    3    0    0  0.29782687743E+02  0.74843356255E+02  0.25686102312E+03  0.37623154870E+03  0.26283846099E+03 0.  0.
         25    1    4    4    0    0  0.80884904547E+00  0.20829163436E+02  0.75644319391E+02  0.14766204469E+03  0.12509000000E+03 0.  0.
         25    1    3    3    0    0 -0.29782687743E+02 -0.74843356255E+02  0.37444172211E+03  0.40291766879E+03  0.12509000000E+03 0.  0.
         25    1    4    4    0    0  0.28973838697E+02  0.54014192819E+02  0.18121670373E+03  0.22856950401E+03  0.12509000000E+03 0.  0.
<mgrwt>
<rscale>  2 0.45665123E+03</rscale>
<asrwt>0</asrwt>
<pdfrwt beam="1">  1       21 0.10370970E+00 0.45665123E+03</pdfrwt>
<pdfrwt beam="2">  1       21 0.10871065E-01 0.45665123E+03</pdfrwt>
<totfact> 0.48162638E+04</totfact>
</mgrwt>
</event>
<event>
 7    0  0.4775379E-002  0.4529813E+03  0.7546771E-02  0.1026837E+00
         21   -1    0    0  502  501  0.00000000000E+00  0.00000000000E+00  0.12349790728E+04  0.12349790728E+04  0.00000000000E+00 0. -1.
         21   -1    0    0  501  502 -0.00000000000E+00 -0.00000000000E+00 -0.41537559363E+02  0.41537559363E+02  0.00000000000E+00 0. -1.
      99926    2    1    2    0    0  0.00000000000E+00 -0.71054273576E-14  0.11934415134E+04  0.12765166322E+04  0.45298130888E+03 0.  0.
      99925    2    3    3    0    0  0.96390111641E+02 -0.55779046964E+02  0.74814798213E+03  0.80076859715E+03  0.26287370980E+03 0.  0.
         25    1    4    4    0    0  0.49204355491E+02 -0.34696076198E+02  0.26683371431E+03  0.30078667773E+03  0.12509000000E+03 0.  0.
         25    1    4    4    0    0  0.47185756150E+02 -0.21082970766E+02  0.48131426782E+03  0.49998191942E+03  0.12509000000E+03 0.  0.
         25    1    3    3    0    0 -0.96390111641E+02  0.55779046964E+02  0.44529353129E+03  0.47574803501E+03  0.12509000000E+03 0.  0.
<mgrwt>
<rscale>  2 0.45298131E+03</rscale>
<asrwt>0</asrwt>
<pdfrwt beam="1">  1       21 0.18161454E+00 0.45298131E+03</pdfrwt>
<pdfrwt beam="2">  1       21 0.61084655E-02 0.45298131E+03</pdfrwt>
<totfact> 0.30277228E+04</totfact>
</mgrwt>
</event>
<event>
 7    0  0.4775379E-002  0.4640909E+03  0.7546771E-02  0.1023601E+00
         21   -1    0    0  502  501  0.00000000000E+00  0.00000000000E+00  0.64882196452E+02  0.64882196452E+02  0.00000000000E+00 0.  1.
         21   -1    0    0  501  502 -0.00000000000E+00 -0.00000000000E+00 -0.82988991830E+03  0.82988991830E+03  0.00000000000E+00 0.  1.
      99926    2    1    2    0    0  0.00000000000E+00  0.00000000000E+00 -0.76500772185E+03  0.89477211475E+03  0.46409085624E+03 0.  0.
      99925    2    3    3    0    0 -0.28303400390E+02  0.10326494319E+03 -0.36672568987E+03  0.46379553063E+03  0.26297116126E+03 0.  0.
         25    1    3    3    0    0  0.28303400390E+02 -0.10326494319E+03 -0.39828203198E+03  0.43097658412E+03  0.12509000000E+03 0.  0.
         25    1    4    4    0    0 -0.99281071210E+01  0.50052742798E+02 -0.11629882449E+03  0.17826039675E+03  0.12509000000E+03 0.  0.
         25    1    4    4    0    0 -0.18375293269E+02  0.53212200392E+02 -0.25042686538E+03  0.28553513388E+03  0.12509000000E+03 0.  0.
<mgrwt>
<rscale>  2 0.46409086E+03</rscale>
<asrwt>0</asrwt>
<pdfrwt beam="1">  1       21 0.95415000E-02 0.46409086E+03</pdfrwt>
<pdfrwt beam="2">  1       21 0.12204263E+00 0.46409086E+03</pdfrwt>
<totfact> 0.40499717E+04</totfact>
</mgrwt>
</event>
<event>
 7    0  0.4775379E-002  0.4532599E+03  0.7546771E-02  0.1026754E+00
         21   -1    0    0  502  501  0.00000000000E+00  0.00000000000E+00  0.36187303480E+02  0.36187303480E+02  0.00000000000E+00 0. -1.
         21   -1    0    0  501  502 -0.00000000000E+00 -0.00000000000E+00 -0.14193134567E+04  0.14193134567E+04  0.00000000000E+00 0. -1.
      99926    2    1    2    0    0 -0.35527136788E-14  0.35527136788E-14 -0.13831261532E+04  0.14555007602E+04  0.45325986714E+03 0.  0.
      99925    2    3    3    0    0 -0.25758587343E+02  0.30017501449E+02 -0.12067187293E+04  0.12356561730E+04  0.26289072048E+03 0.  0.
         25    1    4    4    0    0 -0.37481440316E+02 -0.38117731242E+01 -0.72492925503E+03  0.73660662560E+03  0.12509000000E+03 0.  0.
         25    1    4    4    0    0  0.11722852973E+02  0.33829274573E+02 -0.48178947428E+03  0.49904954737E+03  0.12509000000E+03 0.  0.
         25    1    3    3    0    0  0.25758587343E+02 -0.30017501449E+02 -0.17640742391E+03  0.21984458721E+03  0.12509000000E+03 0.  0.
<mgrwt>
<rscale>  2 0.45325987E+03</rscale>
<asrwt>0</asrwt>
<pdfrwt beam="1">  1       21 0.53216641E-02 0.45325987E+03</pdfrwt>
<pdfrwt beam="2">  1       21 0.20872249E+00 0.45325987E+03</pdfrwt>
<totfact> 0.25229128E+04</totfact>
</mgrwt>
</event>
<event>
 7    0  0.4775379E-002  0.4562488E+03  0.7546771E-02  0.1025875E+00
         21   -1    0    0  502  501  0.00000000000E+00  0.00000000000E+00  0.13057333725E+03  0.13057333725E+03  0.00000000000E+00 0.  1.
         21   -1    0    0  501  502 -0.00000000000E+00 -0.00000000000E+00 -0.39855563798E+03  0.39855563798E+03  0.00000000000E+00 0.  1.
      99926    2    1    2    0    0  0.35527136788E-14  0.00000000000E+00 -0.26798230073E+03  0.52912897524E+03  0.45624879061E+03 0.  0.
      99925    2    3    3    0    0  0.18852949701E+02  0.74692977188E+02 -0.26649646184E+03  0.38221338596E+03  0.26293009277E+03 0.  0.
         25    1    4    4    0    0 -0.22144844013E+02  0.29601542549E+02 -0.94991112128E+02  0.16136128693E+03  0.12509000000E+03 0.  0.
         25    1    4    4    0    0  0.40997793713E+02  0.45091434639E+02 -0.17150534971E+03  0.22085209903E+03  0.12509000000E+03 0.  0.
         25    1    3    3    0    0 -0.18852949701E+02 -0.74692977188E+02 -0.14858388902E+01  0.14691558927E+03  0.12509000000E+03 0.  0.
<mgrwt>
<rscale>  2 0.45624879E+03</rscale>
<asrwt>0</asrwt>
<pdfrwt beam="1">  1       21 0.19201961E-01 0.45624879E+03</pdfrwt>
<pdfrwt beam="2">  1       21 0.58611123E-01 0.45624879E+03</pdfrwt>
<totfact> 0.62643173E+04</totfact>
</mgrwt>
</event>
<event>
 7    0  0.4775379E-002  0.4534771E+03  0.7546771E-02  0.1026690E+00
         21   -1    0    0  502  501  0.00000000000E+00  0.00000000000E+00  0.20301433152E+03  0.20301433152E+03  0.00000000000E+00 0. -1.
         21   -1    0    0  501  502 -0.00000000000E+00 -0.00000000000E+00 -0.25323520273E+03  0.25323520273E+03  0.00000000000E+00 0. -1.
      99926    2    1    2    0    0  0.00000000000E+00  0.00000000000E+00 -0.50220871214E+02  0.45624953425E+03  0.45347712356E+03 0.  0.
      99925    2    3    3    0    0 -0.41445587497E+02  0.54278427815E+02 -0.12057930939E+03  0.29731023020E+03  0.26304014652E+03 0.  0.
         25    1    4    4    0    0 -0.11807012166E+01 -0.98358896375E+01 -0.52518085057E+02  0.13602865925E+03  0.12509000000E+03 0.  0.
         25    1    4    4    0    0 -0.40264886280E+02  0.64114317453E+02 -0.68061224329E+02  0.16128157095E+03  0.12509000000E+03 0.  0.
         25    1    3    3    0    0  0.41445587497E+02 -0.54278427815E+02  0.70358438171E+02  0.15893930405E+03  0.12509000000E+03 0.  0.
<mgrwt>
<rscale>  2 0.45347712E+03</rscale>
<asrwt>0</asrwt>
<pdfrwt beam="1">  1       21 0.29855049E-01 0.45347712E+03</pdfrwt>
<pdfrwt beam="2">  1       21 0.37240471E-01 0.45347712E+03</pdfrwt>
<totfact> 0.69292391E+04</totfact>
</mgrwt>
</event>
<event>
 7    0  0.4775379E-002  0.4983878E+03  0.7546771E-02  0.1014201E+00
         21   -1    0    0  502  501  0.00000000000E+00  0.00000000000E+00  0.55134025592E+03  0.55134025592E+03  0.00000000000E+00 0.  1.
         21   -1    0    0  501  502 -0.00000000000E+00 -0.00000000000E+00 -0.11263027719E+03  0.11263027719E+03  0.00000000000E+00 0.  1.
      99926    2    1    2    0    0  0.00000000000E+00  0.00000000000E+00  0.43870997873E+03  0.66397053310E+03  0.49838782428E+03 0.  0.
      99925    2    3    3    0    0 -0.71300299965E+02  0.11469163292E+03  0.35434249052E+03  0.46147785520E+03  0.26299297864E+03 0.  0.
         25    1    4    4    0    0 -0.59401051561E+02  0.27129531898E+02  0.14776777064E+03  0.20432160573E+03  0.12509000000E+03 0.  0.
         25    1    3    3    0    0  0.71300299965E+02 -0.11469163292E+03  0.84367488210E+02  0.20249267790E+03  0.12509000000E+03 0.  0.
         25    1    4    4    0    0 -0.11899248404E+02  0.87562101025E+02  0.20657471988E+03  0.25715624947E+03  0.12509000000E+03 0.  0.
<mgrwt>
<rscale>  2 0.49838782E+03</rscale>
<asrwt>0</asrwt>
<pdfrwt beam="1">  1       21 0.81079448E-01 0.49838782E+03</pdfrwt>
<pdfrwt beam="2">  1       21 0.16563276E-01 0.49838782E+03</pdfrwt>
<totfact> 0.39533981E+04</totfact>
</mgrwt>
</event>
<event>
 7    0  0.4775379E-002  0.4532633E+03  0.7546771E-02  0.1026753E+00
         21   -1    0    0  502  501  0.00000000000E+00  0.00000000000E+00  0.22827453539E+03  0.22827453539E+03  0.00000000000E+00 0. -1.
         21   -1    0    0  501  502 -0.00000000000E+00 -0.00000000000E+00 -0.22500056051E+03  0.22500056051E+03  0.00000000000E+00 0. -1.
      99926    2    1    2    0    0  0.14210854715E-13  0.71054273576E-14  0.32739748781E+01  0.45327509589E+03  0.45326327189E+03 0.  0.
      99925    2    3    3    0    0  0.64901558416E+02  0.51461910238E+02 -0.73826548331E+02  0.28459629086E+03  0.26207660911E+03 0.  0.
         25    1    3    3    0    0 -0.64901558416E+02 -0.51461910238E+02  0.77100523209E+02  0.16867880504E+03  0.12509000000E+03 0.  0.
         25    1    4    4    0    0  0.58337354916E+02  0.56799616907E+02 -0.34401922093E+02  0.15316802474E+03  0.12509000000E+03 0.  0.
         25    1    4    4    0    0  0.65642034992E+01 -0.53377066683E+01 -0.39424626238E+02  0.13142826612E+03  0.12509000000E+03 0.  0.
<mgrwt>
<rscale>  2 0.45326327E+03</rscale>
<asrwt>0</asrwt>
<pdfrwt beam="1">  1       21 0.33569785E-01 0.45326327E+03</pdfrwt>
<pdfrwt beam="2">  1       21 0.33088318E-01 0.45326327E+03</pdfrwt>
<totfact> 0.69632263E+04</totfact>
</mgrwt>
</event>
<event>
 7    0  0.4775379E-002  0.4577763E+03  0.7546771E-02  0.1025428E+00
         21   -1    0    0  502  501  0.00000000000E+00  0.00000000000E+00  0.51360030579E+03  0.51360030579E+03  0.00000000000E+00 0.  1.
         21   -1    0    0  501  502 -0.00000000000E+00 -0.00000000000E+00 -0.10200496312E+03  0.10200496312E+03  0.00000000000E+00 0.  1.
      99926    2    1    2    0    0  0.00000000000E+00  0.00000000000E+00  0.41159534267E+03  0.61560526891E+03  0.45777627832E+03 0.  0.
      99925    2    3    3    0    0 -0.36762631696E+02  0.70875559590E+02  0.14553240400E+03  0.31095492594E+03  0.26294191243E+03 0.  0.
         25    1    3    3    0    0  0.36762631696E+02 -0.70875559590E+02  0.26606293867E+03  0.30465034297E+03  0.12509000000E+03 0.  0.
         25    1    4    4    0    0 -0.43801263038E+02  0.69157609512E+02  0.78597800273E+02  0.16889774393E+03  0.12509000000E+03 0.  0.
         25    1    4    4    0    0  0.70386313424E+01  0.17179500780E+01  0.66934603726E+02  0.14205718201E+03  0.12509000000E+03 0.  0.
<mgrwt>
<rscale>  2 0.45777628E+03</rscale>
<asrwt>0</asrwt>
<pdfrwt beam="1">  1       21 0.75529456E-01 0.45777628E+03</pdfrwt>
<pdfrwt beam="2">  1       21 0.15000730E-01 0.45777628E+03</pdfrwt>
<totfact> 0.56479257E+04</totfact>
</mgrwt>
</event>
<event>
 7    0  0.4775379E-002  0.4595324E+03  0.7546771E-02  0.1024917E+00
         21   -1    0    0  502  501  0.00000000000E+00  0.00000000000E+00  0.10561386206E+04  0.10561386206E+04  0.00000000000E+00 0. -1.
         21   -1    0    0  501  502 -0.00000000000E+00 -0.00000000000E+00 -0.49986352315E+02  0.49986352315E+02  0.00000000000E+00 0. -1.
      99926    2    1    2    0    0 -0.88817841970E-15  0.00000000000E+00  0.10061522682E+04  0.11061249729E+04  0.45953244578E+03 0.  0.
      99925    2    3    3    0    0  0.54535283744E+01 -0.90821608981E+02  0.80867948675E+03  0.85528376183E+03  0.26319098640E+03 0.  0.
         25    1    4    4    0    0  0.40476632470E+02 -0.59900959058E+02  0.44491785003E+03  0.46778828977E+03  0.12509000000E+03 0.  0.
         25    1    3    3    0    0 -0.54535283744E+01  0.90821608981E+02  0.19747278149E+03  0.25084121105E+03  0.12509000000E+03 0.  0.
         25    1    4    4    0    0 -0.35023104096E+02 -0.30920649923E+02  0.36376163672E+03  0.38749547205E+03  0.12509000000E+03 0.  0.
<mgrwt>
<rscale>  2 0.45953245E+03</rscale>
<asrwt>0</asrwt>
<pdfrwt beam="1">  1       21 0.15531449E+00 0.45953245E+03</pdfrwt>
<pdfrwt beam="2">  1       21 0.73509348E-02 0.45953245E+03</pdfrwt>
<totfact> 0.34061532E+04</totfact>
</mgrwt>
</event>
<event>
 7    0  0.4775379E-002  0.4608099E+03  0.7546771E-02  0.1024547E+00
         21   -1    0    0  502  501  0.00000000000E+00  0.00000000000E+00  0.16411543764E+03  0.16411543764E+03  0.00000000000E+00 0.  1.
         21   -1    0    0  501  502 -0.00000000000E+00 -0.00000000000E+00 -0.32347006184E+03  0.32347006184E+03  0.00000000000E+00 0.  1.
      99926    2    1    2    0    0  0.00000000000E+00 -0.17763568394E-14 -0.15935462420E+03  0.48758549948E+03  0.46080985563E+03 0.  0.
      99925    2    3    3    0    0  0.94356966909E+02  0.92065852576E+01 -0.24639846657E+02  0.28074358447E+03  0.26310043664E+03 0.  0.
         25    1    4    4    0    0  0.27505947147E+02  0.72754305880E+01  0.24545456479E+02  0.13061200769E+03  0.12509000000E+03 0.  0.
         25    1    4    4    0    0  0.66851019763E+02  0.19311546696E+01 -0.49185303137E+02  0.15013157678E+03  0.12509000000E+03 0.  0.
         25    1    3    3    0    0 -0.94356966909E+02 -0.92065852576E+01 -0.13471477754E+03  0.20684191501E+03  0.12509000000E+03 0.  0.
<mgrwt>
<rscale>  2 0.46080986E+03</rscale>
<asrwt>0</asrwt>
<pdfrwt beam="1">  1       21 0.24134624E-01 0.46080986E+03</pdfrwt>
<pdfrwt beam="2">  1       21 0.47569126E-01 0.46080986E+03</pdfrwt>
<totfact> 0.63187084E+04</totfact>
</mgrwt>
</event>
<event>
 7    0  0.4775379E-002  0.4716584E+03  0.7546771E-02  0.1021453E+00
         21   -1    0    0  502  501  0.00000000000E+00  0.00000000000E+00  0.13828884955E+03  0.13828884955E+03  0.00000000000E+00 0. -1.
         21   -1    0    0  501  502 -0.00000000000E+00 -0.00000000000E+00 -0.40216837408E+03  0.40216837408E+03  0.00000000000E+00 0. -1.
      99926    2    1    2    0    0  0.00000000000E+00 -0.14210854715E-13 -0.26387952453E+03  0.54045722364E+03  0.47165835847E+03 0.  0.
      99925    2    3    3    0    0 -0.99789410851E+02 -0.78536717094E+02 -0.14383797003E+03  0.32555393060E+03  0.26300201075E+03 0.  0.
         25    1    4    4    0    0 -0.98507628002E+01 -0.23109947637E+02 -0.74483481472E+02  0.14773761985E+03  0.12509000000E+03 0.  0.
         25    1    4    4    0    0 -0.89938648051E+02 -0.55426769457E+02 -0.69354488562E+02  0.17781631075E+03  0.12509000000E+03 0.  0.
         25    1    3    3    0    0  0.99789410851E+02  0.78536717094E+02 -0.12004155449E+03  0.21490329303E+03  0.12509000000E+03 0.  0.
<mgrwt>
<rscale>  2 0.47165836E+03</rscale>
<asrwt>0</asrwt>
<pdfrwt beam="1">  1       21 0.20336596E-01 0.47165836E+03</pdfrwt>
<pdfrwt beam="2">  1       21 0.59142408E-01 0.47165836E+03</pdfrwt>
<totfact> 0.54890745E+04</totfact>
</mgrwt>
</event>
<event>
 7    0  0.4775379E-002  0.4485077E+03  0.7546771E-02  0.1028168E+00
         21   -1    0    0  502  501  0.00000000000E+00  0.00000000000E+00  0.93094837890E+03  0.93094837890E+03  0.00000000000E+00 0. -1.
         21   -1    0    0  501  502 -0.00000000000E+00 -0.00000000000E+00 -0.54019946699E+02  0.54019946699E+02  0.00000000000E+00 0. -1.
      99926    2    1    2    0    0  0.00000000000E+00  0.00000000000E+00  0.87692843221E+03  0.98496832560E+03  0.44850766686E+03 0.  0.
      99925    2    3    3    0    0 -0.18705046840E+02  0.90457865335E+02  0.43811412458E+03  0.51941702998E+03  0.26328228330E+03 0.  0.
         25    1    4    4    0    0  0.53718868755E+01  0.25886807146E+02  0.14470568658E+03  0.19309642095E+03  0.12509000000E+03 0.  0.
         25    1    4    4    0    0 -0.24076933715E+02  0.64571058189E+02  0.29340843800E+03  0.32632060904E+03  0.12509000000E+03 0.  0.
         25    1    3    3    0    0  0.18705046840E+02 -0.90457865335E+02  0.43881430762E+03  0.46555129562E+03  0.12509000000E+03 0.  0.
<mgrwt>
<rscale>  2 0.44850767E+03</rscale>
<asrwt>0</asrwt>
<pdfrwt beam="1">  1       21 0.13690416E+00 0.44850767E+03</pdfrwt>
<pdfrwt beam="2">  1       21 0.79441103E-02 0.44850767E+03</pdfrwt>
<totfact> 0.41838300E+04</totfact>
</mgrwt>
</event>
<event>
 7    0  0.4775379E-002  0.4747693E+03  0.7546771E-02  0.1020583E+00
         21   -1    0    0  502  501  0.00000000000E+00  0.00000000000E+00  0.56570976113E+02  0.56570976113E+02  0.00000000000E+00 0.  1.
         21   -1    0    0  501  502 -0.00000000000E+00 -0.00000000000E+00 -0.99611992106E+03  0.99611992106E+03  0.00000000000E+00 0.  1.
      99926    2    1    2    0    0 -0.44408920985E-15 -0.71054273576E-14 -0.93954894495E+03  0.10526908972E+04  0.47476931771E+03 0.  0.
      99925    2    3    3    0    0  0.21140424980E+01  0.41865434828E+02 -0.30660607194E+03  0.40614517381E+03  0.26303884704E+03 0.  0.
         25    1    3    3    0    0 -0.21140424980E+01 -0.41865434828E+02 -0.63294287301E+03  0.64654572337E+03  0.12509000000E+03 0.  0.
         25    1    4    4    0    0  0.11651188887E+02  0.27556432277E+02 -0.21355546076E+03  0.24929610924E+03  0.12509000000E+03 0.  0.
         25    1    4    4    0    0 -0.95371463891E+01  0.14309002551E+02 -0.93050611181E+02  0.15684906457E+03  0.12509000000E+03 0.  0.
<mgrwt>
<rscale>  2 0.47476932E+03</rscale>
<asrwt>0</asrwt>
<pdfrwt beam="1">  1       21 0.83192618E-02 0.47476932E+03</pdfrwt>
<pdfrwt beam="2">  1       21 0.14648821E+00 0.47476932E+03</pdfrwt>
<totfact> 0.31955662E+04</totfact>
</mgrwt>
</event>
<event>
 7    0  0.4775379E-002  0.4590303E+03  0.7546771E-02  0.1025063E+00
         21   -1    0    0  502  501  0.00000000000E+00  0.00000000000E+00  0.45558203504E+03  0.45558203504E+03  0.00000000000E+00 0. -1.
         21   -1    0    0  501  502 -0.00000000000E+00 -0.00000000000E+00 -0.11562617848E+03  0.11562617848E+03  0.00000000000E+00 0. -1.
      99926    2    1    2    0    0 -0.71054273576E-14  0.00000000000E+00  0.33995585655E+03  0.57120821352E+03  0.45903032447E+03 0.  0.
      99925    2    3    3    0    0 -0.57756048825E+02  0.99111976238E+02  0.18526481639E+03  0.34156551058E+03  0.26303041803E+03 0.  0.
         25    1    4    4    0    0  0.12022927051E+02  0.44950289414E+02  0.77779035033E+02  0.15447383495E+03  0.12509000000E+03 0.  0.
         25    1    4    4    0    0 -0.69778975876E+02  0.54161686824E+02  0.10748578136E+03  0.18709167563E+03  0.12509000000E+03 0.  0.
         25    1    3    3    0    0  0.57756048825E+02 -0.99111976238E+02  0.15469104016E+03  0.22964270294E+03  0.12509000000E+03 0.  0.
<mgrwt>
<rscale>  2 0.45903032E+03</rscale>
<asrwt>0</asrwt>
<pdfrwt beam="1">  1       21 0.66997358E-01 0.45903032E+03</pdfrwt>
<pdfrwt beam="2">  1       21 0.17003850E-01 0.45903032E+03</pdfrwt>
<totfact> 0.58596482E+04</totfact>
</mgrwt>
</event>
<event>
 7    0  0.4775379E-002  0.4626716E+03  0.7546771E-02  0.1024009E+00
         21   -1    0    0  502  501  0.00000000000E+00  0.00000000000E+00  0.38747367607E+03  0.38747367607E+03  0.00000000000E+00 0.  1.
         21   -1    0    0  501  502 -0.00000000000E+00 -0.00000000000E+00 -0.13811582186E+03  0.13811582186E+03  0.00000000000E+00 0.  1.
      99926    2    1    2    0    0 -0.17763568394E-14  0.00000000000E+00  0.24935785420E+03  0.52558949793E+03  0.46267156913E+03 0.  0.
      99925    2    3    3    0    0  0.11217274724E+02  0.31650284092E+02  0.24703468498E+02  0.26627372739E+03  0.26299024470E+03 0.  0.
         25    1    4    4    0    0  0.26172171365E+02  0.51058899546E+02  0.15059248547E+02  0.13844234484E+03  0.12509000000E+03 0.  0.
         25    1    3    3    0    0 -0.11217274724E+02 -0.31650284092E+02  0.22465438571E+03  0.25931577054E+03  0.12509000000E+03 0.  0.
         25    1    4    4    0    0 -0.14954896641E+02 -0.19408615454E+02  0.96442199505E+01  0.12783138255E+03  0.12509000000E+03 0.  0.
<mgrwt>
<rscale>  2 0.46267157E+03</rscale>
<asrwt>0</asrwt>
<pdfrwt beam="1">  1       21 0.56981423E-01 0.46267157E+03</pdfrwt>
<pdfrwt beam="2">  1       21 0.20311150E-01 0.46267157E+03</pdfrwt>
<totfact> 0.59785579E+04</totfact>
</mgrwt>
</event>
<event>
 7    0  0.4775379E-002  0.4460276E+03  0.7546771E-02  0.1028913E+00
         21   -1    0    0  502  501  0.00000000000E+00  0.00000000000E+00  0.74021857065E+02  0.74021857065E+02  0.00000000000E+00 0.  1.
         21   -1    0    0  501  502 -0.00000000000E+00 -0.00000000000E+00 -0.67189834199E+03  0.67189834199E+03  0.00000000000E+00 0.  1.
      99926    2    1    2    0    0  0.00000000000E+00  0.00000000000E+00 -0.59787648493E+03  0.74592019906E+03  0.44602763606E+03 0.  0.
      99925    2    3    3    0    0 -0.82378058990E+02 -0.51990441430E+02 -0.31632781623E+03  0.42280054390E+03  0.26307387175E+03 0.  0.
         25    1    4    4    0    0 -0.41447244149E+02 -0.29761003945E+02 -0.22008633152E+03  0.25824231417E+03  0.12509000000E+03 0.  0.
         25    1    4    4    0    0 -0.40930814841E+02 -0.22229437485E+02 -0.96241484709E+02  0.16455822974E+03  0.12509000000E+03 0.  0.
         25    1    3    3    0    0  0.82378058990E+02  0.51990441430E+02 -0.28154866870E+03  0.32311965516E+03  0.12509000000E+03 0.  0.
<mgrwt>
<rscale>  2 0.44602764E+03</rscale>
<asrwt>0</asrwt>
<pdfrwt beam="1">  1       21 0.10885568E-01 0.44602764E+03</pdfrwt>
<pdfrwt beam="2">  1       21 0.98808574E-01 0.44602764E+03</pdfrwt>
<totfact> 0.54202332E+04</totfact>
</mgrwt>
</event>
<event>
 7    0  0.4775379E-002  0.4556065E+03  0.7546771E-02  0.1026063E+00
         21   -1    0    0  502  501  0.00000000000E+00  0.00000000000E+00  0.56269165256E+03  0.56269165256E+03  0.00000000000E+00 0. -1.
         21   -1    0    0  501  502 -0.00000000000E+00 -0.00000000000E+00 -0.92225143417E+02  0.92225143417E+02  0.00000000000E+00 0. -1.
      99926    2    1    2    0    0 -0.71054273576E-14  0.00000000000E+00  0.47046650914E+03  0.65491679598E+03  0.45560648967E+03 0.  0.
      99925    2    3    3    0    0  0.41973878947E+02  0.62875759201E+02  0.41802890621E+03  0.49963518757E+03  0.26300567792E+03 0.  0.
         25    1    4    4    0    0 -0.10011176334E+02  0.56209087323E+02  0.19496734364E+03  0.23857799215E+03  0.12509000000E+03 0.  0.
         25    1    4    4    0    0  0.51985055281E+02  0.66666718774E+01  0.22306156257E+03  0.26105719542E+03  0.12509000000E+03 0.  0.
         25    1    3    3    0    0 -0.41973878947E+02 -0.62875759201E+02  0.52437602933E+02  0.15528160841E+03  0.12509000000E+03 0.  0.
<mgrwt>
<rscale>  2 0.45560649E+03</rscale>
<asrwt>0</asrwt>
<pdfrwt beam="1">  1       21 0.82748771E-01 0.45560649E+03</pdfrwt>
<pdfrwt beam="2">  1       21 0.13562521E-01 0.45560649E+03</pdfrwt>
<totfact> 0.55154800E+04</totfact>
</mgrwt>
</event>
<event>
 7    0  0.4775379E-002  0.4515597E+03  0.7546771E-02  0.1027258E+00
         21   -1    0    0  502  501  0.00000000000E+00  0.00000000000E+00  0.55521897771E+03  0.55521897771E+03  0.00000000000E+00 0.  1.
         21   -1    0    0  501  502 -0.00000000000E+00 -0.00000000000E+00 -0.91813403184E+02  0.91813403184E+02  0.00000000000E+00 0.  1.
      99926    2    1    2    0    0  0.71054273576E-14  0.71054273576E-14  0.46340557453E+03  0.64703238089E+03  0.45155971413E+03 0.  0.
      99925    2    3    3    0    0 -0.59546274314E+02 -0.59670040093E+02  0.39366804347E+03  0.48084843520E+03  0.26293424408E+03 0.  0.
         25    1    3    3    0    0  0.59546274314E+02  0.59670040093E+02  0.69737531054E+02  0.16618394570E+03  0.12509000000E+03 0.  0.
         25    1    4    4    0    0 -0.30246541283E+02 -0.40090613709E+02  0.13188661966E+03  0.18858340095E+03  0.12509000000E+03 0.  0.
         25    1    4    4    0    0 -0.29299733031E+02 -0.19579426384E+02  0.26178142381E+03  0.29226503425E+03  0.12509000000E+03 0.  0.
<mgrwt>
<rscale>  2 0.45155971E+03</rscale>
<asrwt>0</asrwt>
<pdfrwt beam="1">  1       21 0.81649848E-01 0.45155971E+03</pdfrwt>
<pdfrwt beam="2">  1       21 0.13501971E-01 0.45155971E+03</pdfrwt>
<totfact> 0.57415356E+04</totfact>
</mgrwt>
</event>
<event>
 7    0  0.4775379E-002  0.4368982E+03  0.7546771E-02  0.1031703E+00
         21   -1    0    0  502  501  0.00000000000E+00  0.00000000000E+00  0.51258898797E+02  0.51258898797E+02  0.00000000000E+00 0.  1.
         21   -1    0    0  501  502 -0.00000000000E+00 -0.00000000000E+00 -0.93096039824E+03  0.93096039824E+03  0.00000000000E+00 0.  1.
      99926    2    1    2    0    0  0.71054273576E-14 -0.14210854715E-13 -0.87970149944E+03  0.98221929703E+03  0.43689817961E+03 0.  0.
      99925    2    3    3    0    0  0.47136507229E+02 -0.81481329557E+02 -0.59334250576E+03  0.65586053931E+03  0.26312860070E+03 0.  0.
         25    1    3    3    0    0 -0.47136507229E+02  0.81481329557E+02 -0.28635899368E+03  0.32635875773E+03  0.12509000000E+03 0.  0.
         25    1    4    4    0    0  0.13206079203E+02  0.10015753533E+01 -0.26157038393E+03  0.29024468562E+03  0.12509000000E+03 0.  0.
         25    1    4    4    0    0  0.33930428026E+02 -0.82482904910E+02 -0.33177212183E+03  0.36561585369E+03  0.12509000000E+03 0.  0.
<mgrwt>
<rscale>  2 0.43689818E+03</rscale>
<asrwt>0</asrwt>
<pdfrwt beam="1">  1       21 0.75380736E-02 0.43689818E+03</pdfrwt>
<pdfrwt beam="2">  1       21 0.13690594E+00 0.43689818E+03</pdfrwt>
<totfact> 0.46039022E+04</totfact>
</mgrwt>
</event>
<event>
 6    0  0.4775379E-002  0.4547769E+03  0.7546771E-02  0.1026307E+00
         21   -1    0    0  502  501  0.00000000000E+00  0.00000000000E+00  0.52632360238E+03  0.52632360238E+03  0.00000000000E+00 0. -1.
         21   -1    0    0  501  502 -0.00000000000E+00 -0.00000000000E+00 -0.98239026414E+02  0.98239026414E+02  0.00000000000E+00 0. -1.
      99926    2    1    2    0    0  0.00000000000E+00 -0.35527136788E-14  0.42808457596E+03  0.62456262879E+03  0.45477694874E+03 0.  0.
         25    1    3    3    0    0  0.19555833732E+02 -0.40171567018E+02  0.91984447728E+02  0.16156989866E+03  0.12509000000E+03 0.  0.
         25    1    3    3    0    0 -0.50722848943E+02 -0.23907214077E+02  0.27365708543E+03  0.30607200263E+03  0.12509000000E+03 0.  0.
         25    1    3    3    0    0  0.31167015211E+02  0.64078781095E+02  0.62443042808E+02  0.15692072750E+03  0.12509000000E+03 0.  0.
<mgrwt>
<rscale>  2 0.45477695E+03</rscale>
<asrwt>0</asrwt>
<pdfrwt beam="1">  1       21 0.77400528E-01 0.45477695E+03</pdfrwt>
<pdfrwt beam="2">  1       21 0.14446916E-01 0.45477695E+03</pdfrwt>
<totfact> 0.57292113E+04</totfact>
</mgrwt>
</event>
<event>
 7    0  0.4775379E-002  0.4515064E+03  0.7546771E-02  0.1027274E+00
         21   -1    0    0  502  501  0.00000000000E+00  0.00000000000E+00  0.35637315750E+02  0.35637315750E+02  0.00000000000E+00 0. -1.
         21   -1    0    0  501  502 -0.00000000000E+00 -0.00000000000E+00 -0.14300884960E+04  0.14300884960E+04  0.00000000000E+00 0. -1.
      99926    2    1    2    0    0  0.00000000000E+00  0.00000000000E+00 -0.13944511803E+04  0.14657258118E+04  0.45150643531E+03 0.  0.
      99925    2    3    3    0    0  0.74099481264E+02 -0.46656259857E+02 -0.66484392313E+03  0.72031196867E+03  0.26299116028E+03 0.  0.
         25    1    3    3    0    0 -0.74099481264E+02  0.46656259857E+02 -0.72960725713E+03  0.74541384309E+03  0.12509000000E+03 0.  0.
         25    1    4    4    0    0  0.31394956940E+02 -0.37917917457E+02 -0.43190668806E+03  0.45234312980E+03  0.12509000000E+03 0.  0.
         25    1    4    4    0    0  0.42704524324E+02 -0.87383424007E+01 -0.23293723507E+03  0.26796883888E+03  0.12509000000E+03 0.  0.
<mgrwt>
<rscale>  2 0.45150644E+03</rscale>
<asrwt>0</asrwt>
<pdfrwt beam="1">  1       21 0.52407825E-02 0.45150644E+03</pdfrwt>
<pdfrwt beam="2">  1       21 0.21030710E+00 0.45150644E+03</pdfrwt>
<totfact> 0.25311738E+04</totfact>
</mgrwt>
</event>
<event>
 7    0  0.4775379E-002  0.4521924E+03  0.7546771E-02  0.1027070E+00
         21   -1    0    0  502  501  0.00000000000E+00  0.00000000000E+00  0.14878629480E+03  0.14878629480E+03  0.00000000000E+00 0.  1.
         21   -1    0    0  501  502 -0.00000000000E+00 -0.00000000000E+00 -0.34357660985E+03  0.34357660985E+03  0.00000000000E+00 0.  1.
      99926    2    1    2    0    0  0.00000000000E+00  0.00000000000E+00 -0.19479031505E+03  0.49236290465E+03  0.45219239604E+03 0.  0.
      99925    2    3    3    0    0 -0.74499729633E+02 -0.76917025154E+02 -0.93245520286E+02  0.29890672895E+03  0.26302864309E+03 0.  0.
         25    1    4    4    0    0 -0.65051446162E+02 -0.46775754207E+02 -0.18224721457E+02  0.14966399167E+03  0.12509000000E+03 0.  0.
         25    1    3    3    0    0  0.74499729633E+02  0.76917025154E+02 -0.10154479477E+03  0.19345617570E+03  0.12509000000E+03 0.  0.
         25    1    4    4    0    0 -0.94482834711E+01 -0.30141270946E+02 -0.75020798829E+02  0.14924273728E+03  0.12509000000E+03 0.  0.
<mgrwt>
<rscale>  2 0.45219240E+03</rscale>
<asrwt>0</asrwt>
<pdfrwt beam="1">  1       21 0.21880338E-01 0.45219240E+03</pdfrwt>
<pdfrwt beam="2">  1       21 0.50525972E-01 0.45219240E+03</pdfrwt>
<totfact> 0.67298093E+04</totfact>
</mgrwt>
</event>
<event>
 7    0  0.4775379E-002  0.4511889E+03  0.7546771E-02  0.1027368E+00
         21   -1    0    0  502  501  0.00000000000E+00  0.00000000000E+00  0.17790068102E+03  0.17790068102E+03  0.00000000000E+00 0. -1.
         21   -1    0    0  501  502 -0.00000000000E+00 -0.00000000000E+00 -0.28607457248E+03  0.28607457248E+03  0.00000000000E+00 0. -1.
      99926    2    1    2    0    0 -0.71054273576E-14  0.14210854715E-13 -0.10817389146E+03  0.46397525350E+03  0.45118892392E+03 0.  0.
      99925    2    3    3    0    0  0.46213874320E+02 -0.97721935666E+02 -0.86700820180E+02  0.29726022784E+03  0.26298538352E+03 0.  0.
         25    1    4    4    0    0  0.57482609989E+01 -0.87341154594E+01 -0.35459663972E+02  0.13043857998E+03  0.12509000000E+03 0.  0.
         25    1    4    4    0    0  0.40465613321E+02 -0.88987820207E+02 -0.51241156208E+02  0.16682164786E+03  0.12509000000E+03 0.  0.
         25    1    3    3    0    0 -0.46213874320E+02  0.97721935666E+02 -0.21473071285E+02  0.16671502566E+03  0.12509000000E+03 0.  0.
<mgrwt>
<rscale>  2 0.45118892E+03</rscale>
<asrwt>0</asrwt>
<pdfrwt beam="1">  1       21 0.26161865E-01 0.45118892E+03</pdfrwt>
<pdfrwt beam="2">  1       21 0.42069790E-01 0.45118892E+03</pdfrwt>
<totfact> 0.69978282E+04</totfact>
</mgrwt>
</event>
<event>
 7    0  0.4775379E-002  0.4539541E+03  0.7546771E-02  0.1026549E+00
         21   -1    0    0  502  501  0.00000000000E+00  0.00000000000E+00  0.23495592524E+04  0.23495592524E+04  0.00000000000E+00 0.  1.
         21   -1    0    0  501  502 -0.00000000000E+00 -0.00000000000E+00 -0.21926910468E+02  0.21926910468E+02  0.00000000000E+00 0.  1.
      99926    2    1    2    0    0  0.87430063189E-15 -0.14210854715E-13  0.23276323419E+04  0.23714861629E+04  0.45395407418E+03 0.  0.
      99925    2    3    3    0    0 -0.32062470978E-01  0.10134684160E+03  0.17182683729E+04  0.17412138898E+04  0.26288481399E+03 0.  0.
         25    1    3    3    0    0  0.32062470978E-01 -0.10134684160E+03  0.60936396899E+03  0.63027227302E+03  0.12509000000E+03 0.  0.
         25    1    4    4    0    0 -0.15634509727E+02  0.33238583294E+02  0.61397807789E+03  0.62766697344E+03  0.12509000000E+03 0.  0.
         25    1    4    4    0    0  0.15602447256E+02  0.68108258310E+02  0.11042902950E+04  0.11135469164E+04  0.12509000000E+03 0.  0.
<mgrwt>
<rscale>  2 0.45395407E+03</rscale>
<asrwt>0</asrwt>
<pdfrwt beam="1">  1       21 0.34552325E+00 0.45395407E+03</pdfrwt>
<pdfrwt beam="2">  1       21 0.32245473E-02 0.45395407E+03</pdfrwt>
<totfact> 0.86074041E+03</totfact>
</mgrwt>
</event>
<event>
 7    0  0.4775379E-002  0.4430157E+03  0.7546771E-02  0.1029826E+00
         21   -1    0    0  502  501  0.00000000000E+00  0.00000000000E+00  0.67617034841E+03  0.67617034841E+03  0.00000000000E+00 0. -1.
         21   -1    0    0  501  502 -0.00000000000E+00 -0.00000000000E+00 -0.72564143437E+02  0.72564143437E+02  0.00000000000E+00 0. -1.
      99926    2    1    2    0    0 -0.17763568394E-14  0.00000000000E+00  0.60360620497E+03  0.74873449184E+03  0.44301567534E+03 0.  0.
      99925    2    3    3    0    0  0.89023507213E+01  0.59328256866E+02  0.52257122282E+03  0.58806940434E+03  0.26295598013E+03 0.  0.
         25    1    4    4    0    0 -0.17199037351E+02  0.64222595072E+02  0.26408974732E+03  0.29968525380E+03  0.12509000000E+03 0.  0.
         25    1    4    4    0    0  0.26101388072E+02 -0.48943382058E+01  0.25848147550E+03  0.28838415054E+03  0.12509000000E+03 0.  0.
         25    1    3    3    0    0 -0.89023507213E+01 -0.59328256866E+02  0.81034982145E+02  0.16066508750E+03  0.12509000000E+03 0.  0.
<mgrwt>
<rscale>  2 0.44301568E+03</rscale>
<asrwt>0</asrwt>
<pdfrwt beam="1">  1       21 0.99436812E-01 0.44301568E+03</pdfrwt>
<pdfrwt beam="2">  1       21 0.10671198E-01 0.44301568E+03</pdfrwt>
<totfact> 0.55369557E+04</totfact>
</mgrwt>
</event>
<event>
 7    0  0.4775379E-002  0.3995512E+03  0.7546771E-02  0.1043935E+00
         21   -1    0    0  502  501  0.00000000000E+00  0.00000000000E+00  0.85537221437E+02  0.85537221437E+02  0.00000000000E+00 0.  1.
         21   -1    0    0  501  502 -0.00000000000E+00 -0.00000000000E+00 -0.46658382682E+03  0.46658382682E+03  0.00000000000E+00 0.  1.
      99926    2    1    2    0    0  0.00000000000E+00  0.00000000000E+00 -0.38104660538E+03  0.55212104826E+03  0.39955116876E+03 0.  0.
      99925    2    3    3    0    0  0.28029372239E+02 -0.11103628392E+02 -0.20913326524E+03  0.33738716436E+03  0.26302935155E+03 0.  0.
         25    1    4    4    0    0  0.16679865610E+02  0.19052891570E+01 -0.53793557190E+02  0.13719731389E+03  0.12509000000E+03 0.  0.
         25    1    4    4    0    0  0.11349506630E+02 -0.13008917549E+02 -0.15533970805E+03  0.20018985047E+03  0.12509000000E+03 0.  0.
         25    1    3    3    0    0 -0.28029372239E+02  0.11103628392E+02 -0.17191334014E+03  0.21473388389E+03  0.12509000000E+03 0.  0.
<mgrwt>
<rscale>  2 0.39955117E+03</rscale>
<asrwt>0</asrwt>
<pdfrwt beam="1">  1       21 0.12579003E-01 0.39955117E+03</pdfrwt>
<pdfrwt beam="2">  1       21 0.68615269E-01 0.39955117E+03</pdfrwt>
<totfact> 0.98231299E+04</totfact>
</mgrwt>
</event>
<event>
 7    0  0.4775379E-002  0.4561753E+03  0.7546771E-02  0.1025896E+00
         21   -1    0    0  502  501  0.00000000000E+00  0.00000000000E+00  0.81240709045E+03  0.81240709045E+03  0.00000000000E+00 0.  1.
         21   -1    0    0  501  502 -0.00000000000E+00 -0.00000000000E+00 -0.64036820612E+02  0.64036820612E+02  0.00000000000E+00 0.  1.
      99926    2    1    2    0    0  0.00000000000E+00  0.00000000000E+00  0.74837026984E+03  0.87644391107E+03  0.45617526069E+03 0.  0.
      99925    2    3    3    0    0 -0.91667308381E+02 -0.44384459129E+02  0.56991688202E+03  0.63589039236E+03  0.26301798996E+03 0.  0.
         25    1    4    4    0    0 -0.32317518150E+01 -0.22178124815E+02  0.26801103124E+03  0.29661377986E+03  0.12509000000E+03 0.  0.
         25    1    4    4    0    0 -0.88435556566E+02 -0.22206334314E+02  0.30190585078E+03  0.33927661249E+03  0.12509000000E+03 0.  0.
         25    1    3    3    0    0  0.91667308381E+02  0.44384459129E+02  0.17845338782E+03  0.24055351871E+03  0.12509000000E+03 0.  0.
<mgrwt>
<rscale>  2 0.45617526E+03</rscale>
<asrwt>0</asrwt>
<pdfrwt beam="1">  1       21 0.11947162E+00 0.45617526E+03</pdfrwt>
<pdfrwt beam="2">  1       21 0.94171800E-02 0.45617526E+03</pdfrwt>
<totfact> 0.43862722E+04</totfact>
</mgrwt>
</event>
<event>
 7    0  0.4775379E-002  0.4460726E+03  0.7546771E-02  0.1028900E+00
         21   -1    0    0  502  501  0.00000000000E+00  0.00000000000E+00  0.14493376552E+04  0.14493376552E+04  0.00000000000E+00 0. -1.
         21   -1    0    0  501  502 -0.00000000000E+00 -0.00000000000E+00 -0.34322706466E+02  0.34322706466E+02  0.00000000000E+00 0. -1.
      99926    2    1    2    0    0  0.00000000000E+00  0.00000000000E+00  0.14150149487E+04  0.14836603616E+04  0.44607259906E+03 0.  0.
      99925    2    3    3    0    0 -0.67311089714E+02  0.30537380583E+02  0.11442015460E+04  0.11763320005E+04  0.26286209876E+03 0.  0.
         25    1    4    4    0    0 -0.56253674965E+02 -0.15130023080E+01  0.71302757549E+03  0.72610095485E+03  0.12509000000E+03 0.  0.
         25    1    3    3    0    0  0.67311089714E+02 -0.30537380583E+02  0.27081340265E+03  0.30732836115E+03  0.12509000000E+03 0.  0.
         25    1    4    4    0    0 -0.11057414749E+02  0.32050382891E+02  0.43117397055E+03  0.45023104562E+03  0.12509000000E+03 0.  0.
<mgrwt>
<rscale>  2 0.44607260E+03</rscale>
<asrwt>0</asrwt>
<pdfrwt beam="1">  1       21 0.21313785E+00 0.44607260E+03</pdfrwt>
<pdfrwt beam="2">  1       21 0.50474578E-02 0.44607260E+03</pdfrwt>
<totfact> 0.25934868E+04</totfact>
</mgrwt>
</event>
<event>
 7    0  0.4775379E-002  0.4533833E+03  0.7546771E-02  0.1026718E+00
         21   -1    0    0  502  501  0.00000000000E+00  0.00000000000E+00  0.32328658418E+02  0.32328658418E+02  0.00000000000E+00 0.  1.
         21   -1    0    0  501  502 -0.00000000000E+00 -0.00000000000E+00 -0.15895837445E+04  0.15895837445E+04  0.00000000000E+00 0.  1.
      99926    2    1    2    0    0  0.00000000000E+00  0.00000000000E+00 -0.15572550861E+04  0.16219124029E+04  0.45338332525E+03 0.  0.
      99925    2    3    3    0    0  0.10634685299E+03  0.11121844940E+02 -0.10954574659E+04  0.11316697092E+04  0.26308919152E+03 0.  0.
         25    1    4    4    0    0  0.67019401808E+02  0.78317014291E-01 -0.71913366330E+03  0.73300227841E+03  0.12509000000E+03 0.  0.
         25    1    4    4    0    0  0.39327451185E+02  0.11043527926E+02 -0.37632380255E+03  0.39866743081E+03  0.12509000000E+03 0.  0.
         25    1    3    3    0    0 -0.10634685299E+03 -0.11121844940E+02 -0.46179762024E+03  0.49024269371E+03  0.12509000000E+03 0.  0.
<mgrwt>
<rscale>  2 0.45338333E+03</rscale>
<asrwt>0</asrwt>
<pdfrwt beam="1">  1       21 0.47542126E-02 0.45338333E+03</pdfrwt>
<pdfrwt beam="2">  1       21 0.23376241E+00 0.45338333E+03</pdfrwt>
<totfact> 0.21204023E+04</totfact>
</mgrwt>
</event>
<event>
 7    0  0.4775379E-002  0.4499560E+03  0.7546771E-02  0.1027735E+00
         21   -1    0    0  502  501  0.00000000000E+00  0.00000000000E+00  0.29945114312E+03  0.29945114312E+03  0.00000000000E+00 0.  1.
         21   -1    0    0  501  502 -0.00000000000E+00 -0.00000000000E+00 -0.16902620365E+03  0.16902620365E+03  0.00000000000E+00 0.  1.
      99926    2    1    2    0    0  0.00000000000E+00  0.00000000000E+00  0.13042493947E+03  0.46847734677E+03  0.44995595296E+03 0.  0.
      99925    2    3    3    0    0 -0.75295532116E+02 -0.50440683027E+02  0.14461992727E+03  0.31335582847E+03  0.26279891973E+03 0.  0.
         25    1    4    4    0    0 -0.56381069430E+02  0.62647983298E+01  0.53234785287E+02  0.14730758009E+03  0.12509000000E+03 0.  0.
         25    1    3    3    0    0  0.75295532116E+02  0.50440683027E+02 -0.14194987804E+02  0.15512151830E+03  0.12509000000E+03 0.  0.
         25    1    4    4    0    0 -0.18914462686E+02 -0.56705481357E+02  0.91385141986E+02  0.16604824838E+03  0.12509000000E+03 0.  0.
<mgrwt>
<rscale>  2 0.44995595E+03</rscale>
<asrwt>0</asrwt>
<pdfrwt beam="1">  1       21 0.44036933E-01 0.44995595E+03</pdfrwt>
<pdfrwt beam="2">  1       21 0.24856795E-01 0.44995595E+03</pdfrwt>
<totfact> 0.70321446E+04</totfact>
</mgrwt>
</event>
<event>
 7    0  0.4775379E-002  0.4243962E+03  0.7546771E-02  0.1035645E+00
         21   -1    0    0  502  501  0.00000000000E+00  0.00000000000E+00  0.24767086899E+03  0.24767086899E+03  0.00000000000E+00 0. -1.
         21   -1    0    0  501  502 -0.00000000000E+00 -0.00000000000E+00 -0.18180593706E+03  0.18180593706E+03  0.00000000000E+00 0. -1.
      99926    2    1    2    0    0  0.00000000000E+00  0.00000000000E+00  0.65864931929E+02  0.42947680605E+03  0.42439620365E+03 0.  0.
      99925    2    3    3    0    0 -0.45918177724E+02 -0.57721942195E+02  0.84681164471E+01  0.27332878594E+03  0.26305249394E+03 0.  0.
         25    1    4    4    0    0 -0.21555578380E+02 -0.69127818171E+02  0.14327738677E+02  0.14524493244E+03  0.12509000000E+03 0.  0.
         25    1    3    3    0    0  0.45918177724E+02  0.57721942195E+02  0.57396815482E+02  0.15614802011E+03  0.12509000000E+03 0.  0.
         25    1    4    4    0    0 -0.24362599344E+02  0.11405875976E+02 -0.58596222296E+01  0.12808385350E+03  0.12509000000E+03 0.  0.
<mgrwt>
<rscale>  2 0.42439620E+03</rscale>
<asrwt>0</asrwt>
<pdfrwt beam="1">  1       21 0.36422187E-01 0.42439620E+03</pdfrwt>
<pdfrwt beam="2">  1       21 0.26736167E-01 0.42439620E+03</pdfrwt>
<totfact> 0.90645996E+04</totfact>
</mgrwt>
</event>
<event>
 7    0  0.4775379E-002  0.4584782E+03  0.7546771E-02  0.1025224E+00
         21   -1    0    0  502  501  0.00000000000E+00  0.00000000000E+00  0.27135788765E+03  0.27135788765E+03  0.00000000000E+00 0.  1.
         21   -1    0    0  501  502 -0.00000000000E+00 -0.00000000000E+00 -0.19365774118E+03  0.19365774118E+03  0.00000000000E+00 0.  1.
      99926    2    1    2    0    0  0.00000000000E+00  0.14210854715E-13  0.77700146477E+02  0.46501562883E+03  0.45847815901E+03 0.  0.
      99925    2    3    3    0    0  0.45644010543E+02 -0.86186452630E+02 -0.15764836673E+02  0.28091051893E+03  0.26296522442E+03 0.  0.
         25    1    3    3    0    0 -0.45644010543E+02  0.86186452630E+02  0.93464983151E+02  0.18410510990E+03  0.12509000000E+03 0.  0.
         25    1    4    4    0    0  0.25371342801E+02 -0.81529606197E+02 -0.26084237718E+02  0.15368369230E+03  0.12509000000E+03 0.  0.
         25    1    4    4    0    0  0.20272667742E+02 -0.46568464329E+01  0.10319401045E+02  0.12722682663E+03  0.12509000000E+03 0.  0.
<mgrwt>
<rscale>  2 0.45847816E+03</rscale>
<asrwt>0</asrwt>
<pdfrwt beam="1">  1       21 0.39905572E-01 0.45847816E+03</pdfrwt>
<pdfrwt beam="2">  1       21 0.28479079E-01 0.45847816E+03</pdfrwt>
<totfact> 0.65966077E+04</totfact>
</mgrwt>
</event>
<event>
 7    0  0.4775379E-002  0.4482977E+03  0.7546771E-02  0.1028231E+00
         21   -1    0    0  502  501  0.00000000000E+00  0.00000000000E+00  0.12513133361E+04  0.12513133361E+04  0.00000000000E+00 0.  1.
         21   -1    0    0  501  502 -0.00000000000E+00 -0.00000000000E+00 -0.40151987861E+02  0.40151987861E+02  0.00000000000E+00 0.  1.
      99926    2    1    2    0    0  0.00000000000E+00  0.00000000000E+00  0.12111613483E+04  0.12914653240E+04  0.44829774875E+03 0.  0.
      99925    2    3    3    0    0 -0.21952449567E+02 -0.23662206795E+02  0.47393785100E+03  0.54300837594E+03  0.26305740752E+03 0.  0.
         25    1    4    4    0    0 -0.31702763199E+02  0.23020124597E+02  0.24096663074E+03  0.27431262560E+03  0.12509000000E+03 0.  0.
         25    1    3    3    0    0  0.21952449567E+02  0.23662206795E+02  0.73722349727E+03  0.74845694806E+03  0.12509000000E+03 0.  0.
         25    1    4    4    0    0  0.97503136312E+01 -0.46682331392E+02  0.23297122026E+03  0.26869575034E+03  0.12509000000E+03 0.  0.
<mgrwt>
<rscale>  2 0.44829775E+03</rscale>
<asrwt>0</asrwt>
<pdfrwt beam="1">  1       21 0.18401664E+00 0.44829775E+03</pdfrwt>
<pdfrwt beam="2">  1       21 0.59047049E-02 0.44829775E+03</pdfrwt>
<totfact> 0.30945533E+04</totfact>
</mgrwt>
</event>
<event>
 7    0  0.4775379E-002  0.4598646E+03  0.7546771E-02  0.1024820E+00
         21   -1    0    0  502  501  0.00000000000E+00  0.00000000000E+00  0.44010552829E+03  0.44010552829E+03  0.00000000000E+00 0.  1.
         21   -1    0    0  501  502 -0.00000000000E+00 -0.00000000000E+00 -0.12012771793E+03  0.12012771793E+03  0.00000000000E+00 0.  1.
      99926    2    1    2    0    0  0.00000000000E+00  0.00000000000E+00  0.31997781037E+03  0.56023324622E+03  0.45986464426E+03 0.  0.
      99925    2    3    3    0    0  0.49074575664E+02  0.97950865641E+02  0.14826195777E+03  0.32120076267E+03  0.26303162503E+03 0.  0.
         25    1    4    4    0    0  0.34834168661E+02  0.24674212724E+02  0.10627648458E+03  0.16960081177E+03  0.12509000000E+03 0.  0.
         25    1    4    4    0    0  0.14240407003E+02  0.73276652917E+02  0.41985473194E+02  0.15159995090E+03  0.12509000000E+03 0.  0.
         25    1    3    3    0    0 -0.49074575664E+02 -0.97950865641E+02  0.17171585260E+03  0.23903248355E+03  0.12509000000E+03 0.  0.
<mgrwt>
<rscale>  2 0.45986464E+03</rscale>
<asrwt>0</asrwt>
<pdfrwt beam="1">  1       21 0.64721401E-01 0.45986464E+03</pdfrwt>
<pdfrwt beam="2">  1       21 0.17665841E-01 0.45986464E+03</pdfrwt>
<totfact> 0.58896121E+04</totfact>
</mgrwt>
</event>
<event>
 7    0  0.4775379E-002  0.4547731E+03  0.7546771E-02  0.1026308E+00
         21   -1    0    0  502  501  0.00000000000E+00  0.00000000000E+00  0.62738514276E+02  0.62738514276E+02  0.00000000000E+00 0. -1.
         21   -1    0    0  501  502 -0.00000000000E+00 -0.00000000000E+00 -0.82412920704E+03  0.82412920704E+03  0.00000000000E+00 0. -1.
      99926    2    1    2    0    0  0.00000000000E+00  0.00000000000E+00 -0.76139069276E+03  0.88686772131E+03  0.45477309516E+03 0.  0.
      99925    2    3    3    0    0 -0.98664859053E+02 -0.53131083266E+02 -0.50696792140E+03  0.58201345923E+03  0.26299339722E+03 0.  0.
         25    1    4    4    0    0 -0.79541644166E+02 -0.19194323551E+02 -0.21345650423E+03  0.26058872292E+03  0.12509000000E+03 0.  0.
         25    1    4    4    0    0 -0.19123214887E+02 -0.33936759714E+02 -0.29351141717E+03  0.32142473631E+03  0.12509000000E+03 0.  0.
         25    1    3    3    0    0  0.98664859053E+02  0.53131083266E+02 -0.25442277137E+03  0.30485426208E+03  0.12509000000E+03 0.  0.
<mgrwt>
<rscale>  2 0.45477310E+03</rscale>
<asrwt>0</asrwt>
<pdfrwt beam="1">  1       21 0.92262529E-02 0.45477310E+03</pdfrwt>
<pdfrwt beam="2">  1       21 0.12119546E+00 0.45477310E+03</pdfrwt>
<totfact> 0.43884292E+04</totfact>
</mgrwt>
</event>
<event>
 7    0  0.4775379E-002  0.4542862E+03  0.7546771E-02  0.1026452E+00
         21   -1    0    0  502  501  0.00000000000E+00  0.00000000000E+00  0.38532081866E+02  0.38532081866E+02  0.00000000000E+00 0.  1.
         21   -1    0    0  501  502 -0.00000000000E+00 -0.00000000000E+00 -0.13389878214E+04  0.13389878214E+04  0.00000000000E+00 0.  1.
      99926    2    1    2    0    0  0.00000000000E+00  0.00000000000E+00 -0.13004557395E+04  0.13775199032E+04  0.45428620208E+03 0.  0.
      99925    2    3    3    0    0 -0.10513845923E+03 -0.21565289189E+02 -0.71732475577E+03  0.77154266802E+03  0.26306677105E+03 0.  0.
         25    1    3    3    0    0  0.10513845923E+03  0.21565289189E+02 -0.58313098373E+03  0.60597723521E+03  0.12509000000E+03 0.  0.
         25    1    4    4    0    0 -0.85403304507E+02  0.13654409957E+02 -0.35972660663E+03  0.39055205409E+03  0.12509000000E+03 0.  0.
         25    1    4    4    0    0 -0.19735154726E+02 -0.35219699146E+02 -0.35759814913E+03  0.38099061393E+03  0.12509000000E+03 0.  0.
<mgrwt>
<rscale>  2 0.45428620E+03</rscale>
<asrwt>0</asrwt>
<pdfrwt beam="1">  1       21 0.56664821E-02 0.45428620E+03</pdfrwt>
<pdfrwt beam="2">  1       21 0.19690999E+00 0.45428620E+03</pdfrwt>
<totfact> 0.27087226E+04</totfact>
</mgrwt>
</event>
<event>
 7    0  0.4775379E-002  0.4215356E+03  0.7546771E-02  0.1036568E+00
         21   -1    0    0  502  501  0.00000000000E+00  0.00000000000E+00  0.17885970460E+04  0.17885970460E+04  0.00000000000E+00 0.  1.
         21   -1    0    0  501  502 -0.00000000000E+00 -0.00000000000E+00 -0.24836818008E+02  0.24836818008E+02  0.00000000000E+00 0.  1.
      99926    2    1    2    0    0  0.00000000000E+00 -0.71054273576E-14  0.17637602280E+04  0.18134338640E+04  0.42153557061E+03 0.  0.
      99925    2    3    3    0    0  0.17152379469E+02  0.62413811738E+02  0.13334718711E+04  0.13606808782E+04  0.26289833237E+03 0.  0.
         25    1    4    4    0    0 -0.63248135483E+01 -0.46007635166E+01  0.69456461414E+03  0.70578231885E+03  0.12509000000E+03 0.  0.
         25    1    3    3    0    0 -0.17152379469E+02 -0.62413811738E+02  0.43028835691E+03  0.45275298586E+03  0.12509000000E+03 0.  0.
         25    1    4    4    0    0  0.23477193018E+02  0.67014575254E+02  0.63890725698E+03  0.65489855933E+03  0.12509000000E+03 0.  0.
<mgrwt>
<rscale>  2 0.42153557E+03</rscale>
<asrwt>0</asrwt>
<pdfrwt beam="1">  1       21 0.26302889E+00 0.42153557E+03</pdfrwt>
<pdfrwt beam="2">  1       21 0.36524745E-02 0.42153557E+03</pdfrwt>
<totfact> 0.22243034E+04</totfact>
</mgrwt>
</event>
<event>
 7    0  0.4775379E-002  0.4775534E+03  0.7546771E-02  0.1019810E+00
         21   -1    0    0  502  501  0.00000000000E+00  0.00000000000E+00  0.13367466124E+03  0.13367466124E+03  0.00000000000E+00 0.  1.
         21   -1    0    0  501  502 -0.00000000000E+00 -0.00000000000E+00 -0.42651547002E+03  0.42651547002E+03  0.00000000000E+00 0.  1.
      99926    2    1    2    0    0  0.00000000000E+00  0.00000000000E+00 -0.29284080877E+03  0.56019013126E+03  0.47755339375E+03 0.  0.
      99925    2    3    3    0    0  0.40996591599E+02  0.79114420466E+02 -0.29693485979E+03  0.40655393304E+03  0.26301326481E+03 0.  0.
         25    1    4    4    0    0 -0.60580282625E+01  0.34127974815E+02 -0.97695772465E+02  0.16246042727E+03  0.12509000000E+03 0.  0.
         25    1    4    4    0    0  0.47054619862E+02  0.44986445652E+02 -0.19923908732E+03  0.24409350577E+03  0.12509000000E+03 0.  0.
         25    1    3    3    0    0 -0.40996591599E+02 -0.79114420466E+02  0.40940510184E+01  0.15363619822E+03  0.12509000000E+03 0.  0.
<mgrwt>
<rscale>  2 0.47755339E+03</rscale>
<asrwt>0</asrwt>
<pdfrwt beam="1">  1       21 0.19658039E-01 0.47755339E+03</pdfrwt>
<pdfrwt beam="2">  1       21 0.62722863E-01 0.47755339E+03</pdfrwt>
<totfact> 0.51392345E+04</totfact>
</mgrwt>
</event>
<event>
 7    0  0.4775379E-002  0.4541767E+03  0.7546771E-02  0.1026484E+00
         21   -1    0    0  502  501  0.00000000000E+00  0.00000000000E+00  0.19004607339E+03  0.19004607339E+03  0.00000000000E+00 0. -1.
         21   -1    0    0  501  502 -0.00000000000E+00 -0.00000000000E+00 -0.27135059741E+03  0.27135059741E+03  0.00000000000E+00 0. -1.
      99926    2    1    2    0    0  0.00000000000E+00  0.00000000000E+00 -0.81304524020E+02  0.46139667080E+03  0.45417668611E+03 0.  0.
      99925    2    3    3    0    0 -0.91108276554E+02  0.65508366416E+02 -0.45497575534E+02  0.28957784242E+03  0.26304606690E+03 0.  0.
         25    1    4    4    0    0 -0.56050842564E+02 -0.68498677457E+01 -0.24089666836E+02  0.13934287850E+03  0.12509000000E+03 0.  0.
         25    1    4    4    0    0 -0.35057433990E+02  0.72358234162E+02 -0.21407908698E+02  0.15023496392E+03  0.12509000000E+03 0.  0.
         25    1    3    3    0    0  0.91108276554E+02 -0.65508366416E+02 -0.35806948485E+02  0.17181882838E+03  0.12509000000E+03 0.  0.
<mgrwt>
<rscale>  2 0.45417669E+03</rscale>
<asrwt>0</asrwt>
<pdfrwt beam="1">  1       21 0.27947952E-01 0.45417669E+03</pdfrwt>
<pdfrwt beam="2">  1       21 0.39904499E-01 0.45417669E+03</pdfrwt>
<totfact> 0.68525827E+04</totfact>
</mgrwt>
</event>
<event>
 7    0  0.4775379E-002  0.4302132E+03  0.7546771E-02  0.1033793E+00
         21   -1    0    0  502  501  0.00000000000E+00  0.00000000000E+00  0.27294952306E+03  0.27294952306E+03  0.00000000000E+00 0. -1.
         21   -1    0    0  501  502 -0.00000000000E+00 -0.00000000000E+00 -0.16952167310E+03  0.16952167310E+03  0.00000000000E+00 0. -1.
      99926    2    1    2    0    0  0.00000000000E+00  0.00000000000E+00  0.10342784996E+03  0.44247119616E+03  0.43021324861E+03 0.  0.
      99925    2    3    3    0    0  0.65862655354E+02 -0.20472074358E+02  0.12266115940E+03  0.29833784300E+03  0.26306408600E+03 0.  0.
         25    1    4    4    0    0  0.64838764846E+02 -0.10509679327E+02  0.93746398478E+02  0.16955947073E+03  0.12509000000E+03 0.  0.
         25    1    3    3    0    0 -0.65862655354E+02  0.20472074358E+02 -0.19233309441E+02  0.14413335315E+03  0.12509000000E+03 0.  0.
         25    1    4    4    0    0  0.10238905074E+01 -0.99623950306E+01  0.28914760919E+02  0.12877837227E+03  0.12509000000E+03 0.  0.
<mgrwt>
<rscale>  2 0.43021325E+03</rscale>
<asrwt>0</asrwt>
<pdfrwt beam="1">  1       21 0.40139636E-01 0.43021325E+03</pdfrwt>
<pdfrwt beam="2">  1       21 0.24929658E-01 0.43021325E+03</pdfrwt>
<totfact> 0.85074129E+04</totfact>
</mgrwt>
</event>
<event>
 7    0  0.4775379E-002  0.4586064E+03  0.7546771E-02  0.1025186E+00
         21   -1    0    0  502  501  0.00000000000E+00  0.00000000000E+00  0.80338964835E+02  0.80338964835E+02  0.00000000000E+00 0.  1.
         21   -1    0    0  501  502 -0.00000000000E+00 -0.00000000000E+00 -0.65447634089E+03  0.65447634089E+03  0.00000000000E+00 0.  1.
      99926    2    1    2    0    0 -0.35527136788E-14  0.00000000000E+00 -0.57413737606E+03  0.73481530573E+03  0.45860637473E+03 0.  0.
      99925    2    3    3    0    0 -0.25896155302E+02 -0.95811478877E+02 -0.45804895957E+03  0.53739575531E+03  0.26293515953E+03 0.  0.
         25    1    3    3    0    0  0.25896155302E+02  0.95811478877E+02 -0.11608841649E+03  0.19741955042E+03  0.12509000000E+03 0.  0.
         25    1    4    4    0    0 -0.48621199329E+02 -0.37391989767E+02 -0.25896622214E+03  0.29406324869E+03  0.12509000000E+03 0.  0.
         25    1    4    4    0    0  0.22725044028E+02 -0.58419489110E+02 -0.19908273743E+03  0.24333250662E+03  0.12509000000E+03 0.  0.
<mgrwt>
<rscale>  2 0.45860637E+03</rscale>
<asrwt>0</asrwt>
<pdfrwt beam="1">  1       21 0.11814554E-01 0.45860637E+03</pdfrwt>
<pdfrwt beam="2">  1       21 0.96246521E-01 0.45860637E+03</pdfrwt>
<totfact> 0.49630813E+04</totfact>
</mgrwt>
</event>
<event>
 7    0  0.4775379E-002  0.4502636E+03  0.7546771E-02  0.1027643E+00
         21   -1    0    0  502  501  0.00000000000E+00  0.00000000000E+00  0.29479706832E+03  0.29479706832E+03  0.00000000000E+00 0.  1.
         21   -1    0    0  501  502 -0.00000000000E+00 -0.00000000000E+00 -0.17192952406E+03  0.17192952406E+03  0.00000000000E+00 0.  1.
      99926    2    1    2    0    0 -0.71054273576E-14  0.00000000000E+00  0.12286754426E+03  0.46672659238E+03  0.45026356570E+03 0.  0.
      99925    2    3    3    0    0  0.60508469393E+02 -0.16675445934E+02 -0.14407482946E+02  0.27068759993E+03  0.26291606232E+03 0.  0.
         25    1    4    4    0    0  0.23652280764E+02 -0.48166598243E+02 -0.50757717269E+01  0.13620838128E+03  0.12509000000E+03 0.  0.
         25    1    3    3    0    0 -0.60508469393E+02  0.16675445934E+02  0.13727502721E+03  0.19603899245E+03  0.12509000000E+03 0.  0.
         25    1    4    4    0    0  0.36856188629E+02  0.31491152309E+02 -0.93317112194E+01  0.13447921865E+03  0.12509000000E+03 0.  0.
<mgrwt>
<rscale>  2 0.45026357E+03</rscale>
<asrwt>0</asrwt>
<pdfrwt beam="1">  1       21 0.43352510E-01 0.45026357E+03</pdfrwt>
<pdfrwt beam="2">  1       21 0.25283753E-01 0.45026357E+03</pdfrwt>
<totfact> 0.70283949E+04</totfact>
</mgrwt>
</event>
<event>
 7    0  0.4775379E-002  0.4442048E+03  0.7546771E-02  0.1029464E+00
         21   -1    0    0  502  501  0.00000000000E+00  0.00000000000E+00  0.18132996453E+03  0.18132996453E+03  0.00000000000E+00 0. -1.
         21   -1    0    0  501  502 -0.00000000000E+00 -0.00000000000E+00 -0.27204255118E+03  0.27204255118E+03  0.00000000000E+00 0. -1.
      99926    2    1    2    0    0  0.35527136788E-14  0.00000000000E+00 -0.90712586650E+02  0.45337251571E+03  0.44420475530E+03 0.  0.
      99925    2    3    3    0    0 -0.31143995775E+02  0.36483524880E+02  0.34877486377E+02  0.26973872088E+03  0.26313787722E+03 0.  0.
         25    1    4    4    0    0 -0.31826465170E+02  0.22288901053E+02  0.55332394789E+02  0.14219318200E+03  0.12509000000E+03 0.  0.
         25    1    3    3    0    0  0.31143995775E+02 -0.36483524880E+02 -0.12559007303E+03  0.18363379483E+03  0.12509000000E+03 0.  0.
         25    1    4    4    0    0  0.68246939447E+00  0.14194623827E+02 -0.20454908412E+02  0.12754553888E+03  0.12509000000E+03 0.  0.
<mgrwt>
<rscale>  2 0.44420476E+03</rscale>
<asrwt>0</asrwt>
<pdfrwt beam="1">  1       21 0.26666172E-01 0.44420476E+03</pdfrwt>
<pdfrwt beam="2">  1       21 0.40006257E-01 0.44420476E+03</pdfrwt>
<totfact> 0.74904375E+04</totfact>
</mgrwt>
</event>
<event>
 7    0  0.4775379E-002  0.4563891E+03  0.7546771E-02  0.1025834E+00
         21   -1    0    0  502  501  0.00000000000E+00  0.00000000000E+00  0.59218914735E+02  0.59218914735E+02  0.00000000000E+00 0. -1.
         21   -1    0    0  501  502 -0.00000000000E+00 -0.00000000000E+00 -0.87932617889E+03  0.87932617889E+03  0.00000000000E+00 0. -1.
      99926    2    1    2    0    0  0.00000000000E+00  0.00000000000E+00 -0.82010726415E+03  0.93854509362E+03  0.45638905338E+03 0.  0.
      99925    2    3    3    0    0 -0.64188703185E+02  0.43549030629E+02 -0.34249983329E+03  0.43877207134E+03  0.26305529286E+03 0.  0.
         25    1    4    4    0    0 -0.61987355448E+02 -0.28709319314E+01 -0.15482959055E+03  0.20849552680E+03  0.12509000000E+03 0.  0.
         25    1    3    3    0    0  0.64188703185E+02 -0.43549030629E+02 -0.47760743087E+03  0.49977302228E+03  0.12509000000E+03 0.  0.
         25    1    4    4    0    0 -0.22013477370E+01  0.46419962560E+02 -0.18767024274E+03  0.23027654454E+03  0.12509000000E+03 0.  0.
<mgrwt>
<rscale>  2 0.45638905E+03</rscale>
<asrwt>0</asrwt>
<pdfrwt beam="1">  1       21 0.87086638E-02 0.45638905E+03</pdfrwt>
<pdfrwt beam="2">  1       21 0.12931267E+00 0.45638905E+03</pdfrwt>
<totfact> 0.41159203E+04</totfact>
</mgrwt>
</event>
<event>
 7    0  0.4775379E-002  0.4069432E+03  0.7546771E-02  0.1041402E+00
         21   -1    0    0  502  501  0.00000000000E+00  0.00000000000E+00  0.35232709428E+02  0.35232709428E+02  0.00000000000E+00 0. -1.
         21   -1    0    0  501  502 -0.00000000000E+00 -0.00000000000E+00 -0.11750640198E+04  0.11750640198E+04  0.00000000000E+00 0. -1.
      99926    2    1    2    0    0 -0.44408920985E-15  0.00000000000E+00 -0.11398313104E+04  0.12102967293E+04  0.40694318606E+03 0.  0.
      99925    2    3    3    0    0  0.33607933209E+01  0.32960307030E+02 -0.89443654172E+03  0.93287326708E+03  0.26294130238E+03 0.  0.
         25    1    4    4    0    0 -0.72222130871E+01  0.54340685588E+02 -0.42027394281E+03  0.44190809630E+03  0.12509000000E+03 0.  0.
         25    1    4    4    0    0  0.10583006408E+02 -0.21380378558E+02 -0.47416259891E+03  0.49096517078E+03  0.12509000000E+03 0.  0.
         25    1    3    3    0    0 -0.33607933209E+01 -0.32960307030E+02 -0.24539476870E+03  0.27742346219E+03  0.12509000000E+03 0.  0.
<mgrwt>
<rscale>  2 0.40694319E+03</rscale>
<asrwt>0</asrwt>
<pdfrwt beam="1">  1       21 0.51812810E-02 0.40694319E+03</pdfrwt>
<pdfrwt beam="2">  1       21 0.17280352E+00 0.40694319E+03</pdfrwt>
<totfact> 0.47159357E+04</totfact>
</mgrwt>
</event>
<event>
 7    0  0.4775379E-002  0.4240057E+03  0.7546771E-02  0.1035770E+00
         21   -1    0    0  502  501  0.00000000000E+00  0.00000000000E+00  0.57345437353E+02  0.57345437353E+02  0.00000000000E+00 0. -1.
         21   -1    0    0  501  502 -0.00000000000E+00 -0.00000000000E+00 -0.78376256483E+03  0.78376256483E+03  0.00000000000E+00 0. -1.
      99926    2    1    2    0    0  0.00000000000E+00  0.00000000000E+00 -0.72641712748E+03  0.84110800219E+03  0.42400569365E+03 0.  0.
      99925    2    3    3    0    0  0.53956050472E+02  0.52818269052E+02 -0.41462293970E+03  0.49677655059E+03  0.26300900014E+03 0.  0.
         25    1    3    3    0    0 -0.53956050472E+02 -0.52818269052E+02 -0.31179418778E+03  0.34433145160E+03  0.12509000000E+03 0.  0.
         25    1    4    4    0    0  0.45753652863E+02  0.30098564218E+01 -0.15647311216E+03  0.20550863465E+03  0.12509000000E+03 0.  0.
         25    1    4    4    0    0  0.82023976086E+01  0.49808412630E+02 -0.25814982754E+03  0.29126791593E+03  0.12509000000E+03 0.  0.
<mgrwt>
<rscale>  2 0.42400569E+03</rscale>
<asrwt>0</asrwt>
<pdfrwt beam="1">  1       21 0.84331532E-02 0.42400569E+03</pdfrwt>
<pdfrwt beam="2">  1       21 0.11525919E+00 0.42400569E+03</pdfrwt>
<totfact> 0.58906610E+04</totfact>
</mgrwt>
</event>
<event>
 7    0  0.4775379E-002  0.4531213E+03  0.7546771E-02  0.1026795E+00
         21   -1    0    0  502  501  0.00000000000E+00  0.00000000000E+00  0.70630123157E+03  0.70630123157E+03  0.00000000000E+00 0.  1.
         21   -1    0    0  501  502 -0.00000000000E+00 -0.00000000000E+00 -0.72673988065E+02  0.72673988065E+02  0.00000000000E+00 0.  1.
      99926    2    1    2    0    0  0.00000000000E+00  0.00000000000E+00  0.63362724350E+03  0.77897521963E+03  0.45312129622E+03 0.  0.
      99925    2    3    3    0    0  0.84273599046E+02  0.72819481164E+02  0.40563658518E+03  0.49607600663E+03  0.26295560231E+03 0.  0.
         25    1    4    4    0    0  0.24342197862E+02  0.72803582708E+02  0.21503582552E+03  0.26034749588E+03  0.12509000000E+03 0.  0.
         25    1    4    4    0    0  0.59931401184E+02  0.15898456389E-01  0.19060075966E+03  0.23572851075E+03  0.12509000000E+03 0.  0.
         25    1    3    3    0    0 -0.84273599046E+02 -0.72819481164E+02  0.22799065832E+03  0.28289921300E+03  0.12509000000E+03 0.  0.
<mgrwt>
<rscale>  2 0.45312130E+03</rscale>
<asrwt>0</asrwt>
<pdfrwt beam="1">  1       21 0.10386782E+00 0.45312130E+03</pdfrwt>
<pdfrwt beam="2">  1       21 0.10687352E-01 0.45312130E+03</pdfrwt>
<totfact> 0.49524895E+04</totfact>
</mgrwt>
</event>
<event>
 7    0  0.4775379E-002  0.4534625E+03  0.7546771E-02  0.1026694E+00
         21   -1    0    0  502  501  0.00000000000E+00  0.00000000000E+00  0.13220071418E+04  0.13220071418E+04  0.00000000000E+00 0. -1.
         21   -1    0    0  501  502 -0.00000000000E+00 -0.00000000000E+00 -0.38885617302E+02  0.38885617302E+02  0.00000000000E+00 0. -1.
      99926    2    1    2    0    0  0.00000000000E+00  0.00000000000E+00  0.12831215245E+04  0.13608927591E+04  0.45346251790E+03 0.  0.
      99925    2    3    3    0    0  0.59602031336E+02  0.92767215350E+02  0.86587964382E+03  0.91156386678E+03  0.26276028477E+03 0.  0.
         25    1    4    4    0    0  0.69172283505E+02  0.37764032407E+02  0.46312519490E+03  0.48615160310E+03  0.12509000000E+03 0.  0.
         25    1    4    4    0    0 -0.95702521688E+01  0.55003182943E+02  0.40275444892E+03  0.42541226368E+03  0.12509000000E+03 0.  0.
         25    1    3    3    0    0 -0.59602031336E+02 -0.92767215350E+02  0.41724188067E+03  0.44932889231E+03  0.12509000000E+03 0.  0.
<mgrwt>
<rscale>  2 0.45346252E+03</rscale>
<asrwt>0</asrwt>
<pdfrwt beam="1">  1       21 0.19441279E+00 0.45346252E+03</pdfrwt>
<pdfrwt beam="2">  1       21 0.57184740E-02 0.45346252E+03</pdfrwt>
<totfact> 0.27722874E+04</totfact>
</mgrwt>
</event>
<event>
 7    0  0.4775379E-002  0.4503986E+03  0.7546771E-02  0.1027603E+00
         21   -1    0    0  502  501  0.00000000000E+00  0.00000000000E+00  0.34777753964E+03  0.34777753964E+03  0.00000000000E+00 0.  1.
         21   -1    0    0  501  502 -0.00000000000E+00 -0.00000000000E+00 -0.14582520166E+03  0.14582520166E+03  0.00000000000E+00 0.  1.
      99926    2    1    2    0    0  0.00000000000E+00  0.00000000000E+00  0.20195233798E+03  0.49360274130E+03  0.45039862278E+03 0.  0.
      99925    2    3    3    0    0  0.10403797765E+03  0.23845327585E+02  0.15034562954E+03  0.32125640134E+03  0.26307673146E+03 0.  0.
         25    1    3    3    0    0 -0.10403797765E+03 -0.23845327585E+02  0.51606708442E+02  0.17234633996E+03  0.12509000000E+03 0.  0.
         25    1    4    4    0    0  0.18460962945E+02 -0.21718830789E+01  0.42434714685E+02  0.13339316826E+03  0.12509000000E+03 0.  0.
         25    1    4    4    0    0  0.85577014706E+02  0.26017210664E+02  0.10791091486E+03  0.18786323308E+03  0.12509000000E+03 0.  0.
<mgrwt>
<rscale>  2 0.45039862E+03</rscale>
<asrwt>0</asrwt>
<pdfrwt beam="1">  1       21 0.51143756E-01 0.45039862E+03</pdfrwt>
<pdfrwt beam="2">  1       21 0.21444883E-01 0.45039862E+03</pdfrwt>
<totfact> 0.68179061E+04</totfact>
</mgrwt>
</event>
<event>
 7    0  0.4775379E-002  0.4569786E+03  0.7546771E-02  0.1025661E+00
         21   -1    0    0  502  501  0.00000000000E+00  0.00000000000E+00  0.20554591392E+03  0.20554591392E+03  0.00000000000E+00 0.  1.
         21   -1    0    0  501  502 -0.00000000000E+00 -0.00000000000E+00 -0.25399362346E+03  0.25399362346E+03  0.00000000000E+00 0.  1.
      99926    2    1    2    0    0  0.00000000000E+00  0.00000000000E+00 -0.48447709548E+02  0.45953953738E+03  0.45697856170E+03 0.  0.
      99925    2    3    3    0    0 -0.10100812440E+03  0.54027820224E+02 -0.39898369388E+02  0.28970948742E+03  0.26309325470E+03 0.  0.
         25    1    4    4    0    0 -0.32035297258E+02 -0.90280200123E+01 -0.40595338092E+01  0.12950580423E+03  0.12509000000E+03 0.  0.
         25    1    3    3    0    0  0.10100812440E+03 -0.54027820224E+02 -0.85493401600E+01  0.16983004996E+03  0.12509000000E+03 0.  0.
         25    1    4    4    0    0 -0.68972827138E+02  0.63055840236E+02 -0.35838835578E+02  0.16020368319E+03  0.12509000000E+03 0.  0.
<mgrwt>
<rscale>  2 0.45697856E+03</rscale>
<asrwt>0</asrwt>
<pdfrwt beam="1">  1       21 0.30227341E-01 0.45697856E+03</pdfrwt>
<pdfrwt beam="2">  1       21 0.37352003E-01 0.45697856E+03</pdfrwt>
<totfact> 0.67148190E+04</totfact>
</mgrwt>
</event>
<event>
 7    0  0.4775379E-002  0.4517451E+03  0.7546771E-02  0.1027203E+00
         21   -1    0    0  502  501  0.00000000000E+00  0.00000000000E+00  0.77565150872E+02  0.77565150872E+02  0.00000000000E+00 0. -1.
         21   -1    0    0  501  502 -0.00000000000E+00 -0.00000000000E+00 -0.65774920484E+03  0.65774920484E+03  0.00000000000E+00 0. -1.
      99926    2    1    2    0    0 -0.13322676296E-14  0.00000000000E+00 -0.58018405397E+03  0.73531435571E+03  0.45174513305E+03 0.  0.
      99925    2    3    3    0    0 -0.30600491149E+01 -0.10931293533E+03 -0.34610377082E+03  0.44826075656E+03  0.26304220947E+03 0.  0.
         25    1    3    3    0    0  0.30600491149E+01  0.10931293533E+03 -0.23408028315E+03  0.28705359916E+03  0.12509000000E+03 0.  0.
         25    1    4    4    0    0  0.13011103722E+02 -0.41605080500E+02 -0.11014659192E+03  0.17227899278E+03  0.12509000000E+03 0.  0.
         25    1    4    4    0    0 -0.16071152837E+02 -0.67707854827E+02 -0.23595717891E+03  0.27598176378E+03  0.12509000000E+03 0.  0.
<mgrwt>
<rscale>  2 0.45174513E+03</rscale>
<asrwt>0</asrwt>
<pdfrwt beam="1">  1       21 0.11406640E-01 0.45174513E+03</pdfrwt>
<pdfrwt beam="2">  1       21 0.96727821E-01 0.45174513E+03</pdfrwt>
<totfact> 0.52354213E+04</totfact>
</mgrwt>
</event>
<event>
 7    0  0.4775379E-002  0.4584997E+03  0.7546771E-02  0.1025217E+00
         21   -1    0    0  502  501  0.00000000000E+00  0.00000000000E+00  0.92307391293E+02  0.92307391293E+02  0.00000000000E+00 0.  1.
         21   -1    0    0  501  502 -0.00000000000E+00 -0.00000000000E+00 -0.56935307489E+03  0.56935307489E+03  0.00000000000E+00 0.  1.
      99926    2    1    2    0    0  0.35527136788E-14  0.00000000000E+00 -0.47704568359E+03  0.66166046618E+03  0.45849971458E+03 0.  0.
      99925    2    3    3    0    0  0.16202455260E+02  0.91489451002E+02 -0.40124026956E+03  0.48837801439E+03  0.26246236268E+03 0.  0.
         25    1    3    3    0    0 -0.16202455260E+02 -0.91489451002E+02 -0.75805414029E+02  0.17328245179E+03  0.12509000000E+03 0.  0.
         25    1    4    4    0    0  0.21331592900E+01  0.18344672677E+02 -0.23903609149E+03  0.27041974506E+03  0.12509000000E+03 0.  0.
         25    1    4    4    0    0  0.14069295970E+02  0.73144778325E+02 -0.16220417808E+03  0.21795826933E+03  0.12509000000E+03 0.  0.
<mgrwt>
<rscale>  2 0.45849971E+03</rscale>
<asrwt>0</asrwt>
<pdfrwt beam="1">  1       21 0.13574617E-01 0.45849971E+03</pdfrwt>
<pdfrwt beam="2">  1       21 0.83728392E-01 0.45849971E+03</pdfrwt>
<totfact> 0.53541163E+04</totfact>
</mgrwt>
</event>
<event>
 7    0  0.4775379E-002  0.4538166E+03  0.7546771E-02  0.1026590E+00
         21   -1    0    0  502  501  0.00000000000E+00  0.00000000000E+00  0.91902729032E+02  0.91902729032E+02  0.00000000000E+00 0.  1.
         21   -1    0    0  501  502 -0.00000000000E+00 -0.00000000000E+00 -0.56023773689E+03  0.56023773689E+03  0.00000000000E+00 0.  1.
      99926    2    1    2    0    0  0.00000000000E+00  0.00000000000E+00 -0.46833500786E+03  0.65214046592E+03  0.45381660140E+03 0.  0.
      99925    2    3    3    0    0 -0.62717569279E+02  0.59508769226E+02 -0.39747654247E+03  0.48438106282E+03  0.26298788013E+03 0.  0.
         25    1    4    4    0    0 -0.55852034679E+02  0.64433208399E+02 -0.21195870470E+03  0.26047089803E+03  0.12509000000E+03 0.  0.
         25    1    4    4    0    0 -0.68655345996E+01 -0.49244391727E+01 -0.18551783778E+03  0.22391016480E+03  0.12509000000E+03 0.  0.
         25    1    3    3    0    0  0.62717569279E+02 -0.59508769226E+02 -0.70858465388E+02  0.16775940310E+03  0.12509000000E+03 0.  0.
<mgrwt>
<rscale>  2 0.45381660E+03</rscale>
<asrwt>0</asrwt>
<pdfrwt beam="1">  1       21 0.13515107E-01 0.45381660E+03</pdfrwt>
<pdfrwt beam="2">  1       21 0.82387902E-01 0.45381660E+03</pdfrwt>
<totfact> 0.56100214E+04</totfact>
</mgrwt>
</event>
<event>
 7    0  0.4775379E-002  0.4586296E+03  0.7546771E-02  0.1025179E+00
         21   -1    0    0  502  501  0.00000000000E+00  0.00000000000E+00  0.13304942549E+03  0.13304942549E+03  0.00000000000E+00 0.  1.
         21   -1    0    0  501  502 -0.00000000000E+00 -0.00000000000E+00 -0.39523121526E+03  0.39523121526E+03  0.00000000000E+00 0.  1.
      99926    2    1    2    0    0 -0.35527136788E-14  0.00000000000E+00 -0.26218178977E+03  0.52828064075E+03  0.45862963762E+03 0.  0.
      99925    2    3    3    0    0 -0.18953294832E+02  0.37597719845E+02 -0.28962353907E+03  0.39347198514E+03  0.26299352232E+03 0.  0.
         25    1    4    4    0    0 -0.15867968927E-01 -0.11073241000E+01 -0.19156161713E+03  0.22878939590E+03  0.12509000000E+03 0.  0.
         25    1    3    3    0    0  0.18953294832E+02 -0.37597719845E+02  0.27441749303E+02  0.13480865561E+03  0.12509000000E+03 0.  0.
         25    1    4    4    0    0 -0.18937426863E+02  0.38705043945E+02 -0.98061921941E+02  0.16468258924E+03  0.12509000000E+03 0.  0.
<mgrwt>
<rscale>  2 0.45862964E+03</rscale>
<asrwt>0</asrwt>
<pdfrwt beam="1">  1       21 0.19566092E-01 0.45862964E+03</pdfrwt>
<pdfrwt beam="2">  1       21 0.58122236E-01 0.45862964E+03</pdfrwt>
<totfact> 0.61533482E+04</totfact>
</mgrwt>
</event>
<event>
 7    0  0.4775379E-002  0.4561099E+03  0.7546771E-02  0.1025916E+00
         21   -1    0    0  502  501  0.00000000000E+00  0.00000000000E+00  0.57994472568E+03  0.57994472568E+03  0.00000000000E+00 0. -1.
         21   -1    0    0  501  502 -0.00000000000E+00 -0.00000000000E+00 -0.89679351895E+02  0.89679351895E+02  0.00000000000E+00 0. -1.
      99926    2    1    2    0    0  0.00000000000E+00  0.53290705182E-14  0.49026537378E+03  0.66962407757E+03  0.45610993032E+03 0.  0.
      99925    2    3    3    0    0  0.83652135177E+02  0.11879527736E+02  0.19475478721E+03  0.33779156292E+03  0.26274495227E+03 0.  0.
         25    1    4    4    0    0  0.35014647247E+02  0.45454337733E+02  0.99428280095E+02  0.16978107469E+03  0.12509000000E+03 0.  0.
         25    1    3    3    0    0 -0.83652135177E+02 -0.11879527736E+02  0.29551058658E+03  0.33183251465E+03  0.12509000000E+03 0.  0.
         25    1    4    4    0    0  0.48637487929E+02 -0.33574809997E+02  0.95326507111E+02  0.16801048823E+03  0.12509000000E+03 0.  0.
<mgrwt>
<rscale>  2 0.45610993E+03</rscale>
<asrwt>0</asrwt>
<pdfrwt beam="1">  1       21 0.85285987E-01 0.45610993E+03</pdfrwt>
<pdfrwt beam="2">  1       21 0.13188140E-01 0.45610993E+03</pdfrwt>
<totfact> 0.54108464E+04</totfact>
</mgrwt>
</event>
<event>
 7    0  0.4775379E-002  0.4438013E+03  0.7546771E-02  0.1029587E+00
         21   -1    0    0  502  501  0.00000000000E+00  0.00000000000E+00  0.36915412170E+02  0.36915412170E+02  0.00000000000E+00 0.  1.
         21   -1    0    0  501  502 -0.00000000000E+00 -0.00000000000E+00 -0.13338573317E+04  0.13338573317E+04  0.00000000000E+00 0.  1.
      99926    2    1    2    0    0  0.14210854715E-13 -0.53290705182E-14 -0.12969419195E+04  0.13707727439E+04  0.44380127614E+03 0.  0.
      99925    2    3    3    0    0  0.67050985237E+02 -0.15940492918E+02 -0.59113865692E+03  0.65066463564E+03  0.26300118331E+03 0.  0.
         25    1    4    4    0    0  0.21944568180E+01  0.16378107781E+02 -0.30538573984E+03  0.33042550787E+03  0.12509000000E+03 0.  0.
         25    1    4    4    0    0  0.64856528419E+02 -0.32318600699E+02 -0.28575291709E+03  0.32023912777E+03  0.12509000000E+03 0.  0.
         25    1    3    3    0    0 -0.67050985237E+02  0.15940492918E+02 -0.70580326261E+03  0.72010810823E+03  0.12509000000E+03 0.  0.
<mgrwt>
<rscale>  2 0.44380128E+03</rscale>
<asrwt>0</asrwt>
<pdfrwt beam="1">  1       21 0.54287367E-02 0.44380128E+03</pdfrwt>
<pdfrwt beam="2">  1       21 0.19615550E+00 0.44380128E+03</pdfrwt>
<totfact> 0.29616589E+04</totfact>
</mgrwt>
</event>
<event>
 7    0  0.4775379E-002  0.4466492E+03  0.7546771E-02  0.1028726E+00
         21   -1    0    0  502  501  0.00000000000E+00  0.00000000000E+00  0.11296853217E+03  0.11296853217E+03  0.00000000000E+00 0. -1.
         21   -1    0    0  501  502 -0.00000000000E+00 -0.00000000000E+00 -0.44148473041E+03  0.44148473041E+03  0.00000000000E+00 0. -1.
      99926    2    1    2    0    0  0.00000000000E+00  0.00000000000E+00 -0.32851619825E+03  0.55445326258E+03  0.44664922241E+03 0.  0.
      99925    2    3    3    0    0  0.90936508071E+02  0.52695942240E+02 -0.19600904803E+03  0.34409175520E+03  0.26255147735E+03 0.  0.
         25    1    4    4    0    0  0.71496800216E+02  0.15134563797E+02 -0.13724121617E+03  0.19955827965E+03  0.12509000000E+03 0.  0.
         25    1    3    3    0    0 -0.90936508071E+02 -0.52695942240E+02 -0.13250715022E+03  0.21036150738E+03  0.12509000000E+03 0.  0.
         25    1    4    4    0    0  0.19439707855E+02  0.37561378444E+02 -0.58767831858E+02  0.14453347555E+03  0.12509000000E+03 0.  0.
<mgrwt>
<rscale>  2 0.44664922E+03</rscale>
<asrwt>0</asrwt>
<pdfrwt beam="1">  1       21 0.16613019E-01 0.44664922E+03</pdfrwt>
<pdfrwt beam="2">  1       21 0.64924225E-01 0.44664922E+03</pdfrwt>
<totfact> 0.65814464E+04</totfact>
</mgrwt>
</event>
<event>
 7    0  0.4775379E-002  0.4604185E+03  0.7546771E-02  0.1024660E+00
         21   -1    0    0  502  501  0.00000000000E+00  0.00000000000E+00  0.16632921899E+03  0.16632921899E+03  0.00000000000E+00 0. -1.
         21   -1    0    0  501  502 -0.00000000000E+00 -0.00000000000E+00 -0.31862286697E+03  0.31862286697E+03  0.00000000000E+00 0. -1.
      99926    2    1    2    0    0  0.00000000000E+00 -0.35527136788E-14 -0.15229364798E+03  0.48495208596E+03  0.46041847320E+03 0.  0.
      99925    2    3    3    0    0 -0.59479035436E+02  0.20833871993E+02 -0.20066347471E+03  0.33676654646E+03  0.26300964023E+03 0.  0.
         25    1    4    4    0    0 -0.72223964436E+01  0.16218168131E+02 -0.13876566053E+03  0.18766621601E+03  0.12509000000E+03 0.  0.
         25    1    3    3    0    0  0.59479035436E+02 -0.20833871993E+02  0.48369826736E+02  0.14818553950E+03  0.12509000000E+03 0.  0.
         25    1    4    4    0    0 -0.52256638992E+02  0.46157038618E+01 -0.61897814185E+02  0.14910033046E+03  0.12509000000E+03 0.  0.
<mgrwt>
<rscale>  2 0.46041847E+03</rscale>
<asrwt>0</asrwt>
<pdfrwt beam="1">  1       21 0.24460179E-01 0.46041847E+03</pdfrwt>
<pdfrwt beam="2">  1       21 0.46856304E-01 0.46041847E+03</pdfrwt>
<totfact> 0.63563136E+04</totfact>
</mgrwt>
</event>
<event>
 7    0  0.4775379E-002  0.4412649E+03  0.7546771E-02  0.1030359E+00
         21   -1    0    0  502  501  0.00000000000E+00  0.00000000000E+00  0.67608295713E+02  0.67608295713E+02  0.00000000000E+00 0.  1.
         21   -1    0    0  501  502 -0.00000000000E+00 -0.00000000000E+00 -0.72001054489E+03  0.72001054489E+03  0.00000000000E+00 0.  1.
      99926    2    1    2    0    0 -0.14210854715E-13  0.00000000000E+00 -0.65240224918E+03  0.78761884060E+03  0.44126493554E+03 0.  0.
      99925    2    3    3    0    0  0.66684394319E+02  0.70954959676E+02 -0.45424660803E+03  0.53385796701E+03  0.26302648780E+03 0.  0.
         25    1    4    4    0    0  0.90061927778E+00  0.21945037188E+02 -0.25318152331E+03  0.28325039738E+03  0.12509000000E+03 0.  0.
         25    1    4    4    0    0  0.65783775041E+02  0.49009922488E+02 -0.20106508473E+03  0.25060756963E+03  0.12509000000E+03 0.  0.
         25    1    3    3    0    0 -0.66684394319E+02 -0.70954959676E+02 -0.19815564115E+03  0.25376087359E+03  0.12509000000E+03 0.  0.
<mgrwt>
<rscale>  2 0.44126494E+03</rscale>
<asrwt>0</asrwt>
<pdfrwt beam="1">  1       21 0.99423960E-02 0.44126494E+03</pdfrwt>
<pdfrwt beam="2">  1       21 0.10588391E+00 0.44126494E+03</pdfrwt>
<totfact> 0.53955165E+04</totfact>
</mgrwt>
</event>
<event>
 7    0  0.4775379E-002  0.4570900E+03  0.7546771E-02  0.1025629E+00
         21   -1    0    0  502  501  0.00000000000E+00  0.00000000000E+00  0.11954994708E+03  0.11954994708E+03  0.00000000000E+00 0. -1.
         21   -1    0    0  501  502 -0.00000000000E+00 -0.00000000000E+00 -0.43691203016E+03  0.43691203016E+03  0.00000000000E+00 0. -1.
      99926    2    1    2    0    0  0.00000000000E+00  0.88817841970E-15 -0.31736208308E+03  0.55646197725E+03  0.45708996964E+03 0.  0.
      99925    2    3    3    0    0  0.53516483133E+02  0.67475852830E+01 -0.32318686129E+03  0.42011323316E+03  0.26293694584E+03 0.  0.
         25    1    3    3    0    0 -0.53516483133E+02 -0.67475852830E+01  0.58247782124E+01  0.13634874409E+03  0.12509000000E+03 0.  0.
         25    1    4    4    0    0  0.20783458287E+02 -0.10204750356E+02 -0.10079417956E+03  0.16230546448E+03  0.12509000000E+03 0.  0.
         25    1    4    4    0    0  0.32733024846E+02  0.16952335639E+02 -0.22239268173E+03  0.25780776867E+03  0.12509000000E+03 0.  0.
<mgrwt>
<rscale>  2 0.45708997E+03</rscale>
<asrwt>0</asrwt>
<pdfrwt beam="1">  1       21 0.17580875E-01 0.45708997E+03</pdfrwt>
<pdfrwt beam="2">  1       21 0.64251768E-01 0.45708997E+03</pdfrwt>
<totfact> 0.60436104E+04</totfact>
</mgrwt>
</event>
<event>
 7    0  0.4775379E-002  0.4564856E+03  0.7546771E-02  0.1025805E+00
         21   -1    0    0  502  501  0.00000000000E+00  0.00000000000E+00  0.77891258122E+03  0.77891258122E+03  0.00000000000E+00 0.  1.
         21   -1    0    0  501  502 -0.00000000000E+00 -0.00000000000E+00 -0.66881416617E+02  0.66881416617E+02  0.00000000000E+00 0.  1.
      99926    2    1    2    0    0 -0.14210854715E-13  0.00000000000E+00  0.71203116460E+03  0.84579399783E+03  0.45648560482E+03 0.  0.
      99925    2    3    3    0    0  0.90028599510E+02  0.33552510156E+02  0.56308716615E+03  0.62885450756E+03  0.26298272818E+03 0.  0.
         25    1    4    4    0    0  0.86235081886E+02  0.16437094739E+02  0.28374005442E+03  0.32227720058E+03  0.12509000000E+03 0.  0.
         25    1    3    3    0    0 -0.90028599510E+02 -0.33552510156E+02  0.14894399844E+03  0.21693949027E+03  0.12509000000E+03 0.  0.
         25    1    4    4    0    0  0.37935176241E+01  0.17115415417E+02  0.27934711173E+03  0.30657730698E+03  0.12509000000E+03 0.  0.
<mgrwt>
<rscale>  2 0.45648560E+03</rscale>
<asrwt>0</asrwt>
<pdfrwt beam="1">  1       21 0.11454596E+00 0.45648560E+03</pdfrwt>
<pdfrwt beam="2">  1       21 0.98355029E-02 0.45648560E+03</pdfrwt>
<totfact> 0.45100197E+04</totfact>
</mgrwt>
</event>
<event>
 7    0  0.4775379E-002  0.4601449E+03  0.7546771E-02  0.1024739E+00
         21   -1    0    0  502  501  0.00000000000E+00  0.00000000000E+00  0.62235887532E+02  0.62235887532E+02  0.00000000000E+00 0. -1.
         21   -1    0    0  501  502 -0.00000000000E+00 -0.00000000000E+00 -0.85052757306E+03  0.85052757306E+03  0.00000000000E+00 0. -1.
      99926    2    1    2    0    0  0.00000000000E+00  0.00000000000E+00 -0.78829168553E+03  0.91276346059E+03  0.46014492665E+03 0.  0.
      99925    2    3    3    0    0 -0.10541882348E+03 -0.13339274854E+02 -0.39238073941E+03  0.48417968821E+03  0.26301380422E+03 0.  0.
         25    1    3    3    0    0  0.10541882348E+03  0.13339274854E+02 -0.39591094611E+03  0.42858377238E+03  0.12509000000E+03 0.  0.
         25    1    4    4    0    0 -0.70483880134E+02 -0.30820155711E+02 -0.15840121593E+03  0.21600072376E+03  0.12509000000E+03 0.  0.
         25    1    4    4    0    0 -0.34934943351E+02  0.17480880857E+02 -0.23397952348E+03  0.26817896445E+03  0.12509000000E+03 0.  0.
<mgrwt>
<rscale>  2 0.46014493E+03</rscale>
<asrwt>0</asrwt>
<pdfrwt beam="1">  1       21 0.91523368E-02 0.46014493E+03</pdfrwt>
<pdfrwt beam="2">  1       21 0.12507758E+00 0.46014493E+03</pdfrwt>
<totfact> 0.41009720E+04</totfact>
</mgrwt>
</event>
<event>
 7    0  0.4775379E-002  0.4514242E+03  0.7546771E-02  0.1027298E+00
         21   -1    0    0  502  501  0.00000000000E+00  0.00000000000E+00  0.19202929571E+03  0.19202929571E+03  0.00000000000E+00 0.  1.
         21   -1    0    0  501  502 -0.00000000000E+00 -0.00000000000E+00 -0.26530304311E+03  0.26530304311E+03  0.00000000000E+00 0.  1.
      99926    2    1    2    0    0  0.00000000000E+00  0.17763568394E-14 -0.73273747398E+02  0.45733233881E+03  0.45142421963E+03 0.  0.
      99925    2    3    3    0    0  0.84671070356E+02  0.10880670585E+02 -0.11606265725E+03  0.29996023819E+03  0.26309318680E+03 0.  0.
         25    1    3    3    0    0 -0.84671070356E+02 -0.10880670585E+02  0.42788909848E+02  0.15737210062E+03  0.12509000000E+03 0.  0.
         25    1    4    4    0    0  0.48122879239E+02 -0.29304210781E+02 -0.80333008315E+02  0.15898254181E+03  0.12509000000E+03 0.  0.
         25    1    4    4    0    0  0.36548191116E+02  0.40184881366E+02 -0.35729648932E+02  0.14097769638E+03  0.12509000000E+03 0.  0.
<mgrwt>
<rscale>  2 0.45142422E+03</rscale>
<asrwt>0</asrwt>
<pdfrwt beam="1">  1       21 0.28239602E-01 0.45142422E+03</pdfrwt>
<pdfrwt beam="2">  1       21 0.39015153E-01 0.45142422E+03</pdfrwt>
<totfact> 0.70360398E+04</totfact>
</mgrwt>
</event>
<event>
 7    0  0.4775379E-002  0.4525728E+03  0.7546771E-02  0.1026958E+00
         21   -1    0    0  502  501  0.00000000000E+00  0.00000000000E+00  0.10804719681E+04  0.10804719681E+04  0.00000000000E+00 0.  1.
         21   -1    0    0  501  502 -0.00000000000E+00 -0.00000000000E+00 -0.47391829911E+02  0.47391829911E+02  0.00000000000E+00 0.  1.
      99926    2    1    2    0    0  0.00000000000E+00  0.00000000000E+00  0.10330801382E+04  0.11278637980E+04  0.45257283937E+03 0.  0.
      99925    2    3    3    0    0  0.16571175354E+02 -0.41354256910E+02  0.39815431960E+03  0.47920126508E+03  0.26291103404E+03 0.  0.
         25    1    4    4    0    0  0.30271962842E+01 -0.24980232302E+02  0.12799615297E+03  0.18073101338E+03  0.12509000000E+03 0.  0.
         25    1    4    4    0    0  0.13543979070E+02 -0.16374024609E+02  0.27015816663E+03  0.29847025169E+03  0.12509000000E+03 0.  0.
         25    1    3    3    0    0 -0.16571175354E+02  0.41354256910E+02  0.63492581858E+03  0.64866253293E+03  0.12509000000E+03 0.  0.
<mgrwt>
<rscale>  2 0.45257284E+03</rscale>
<asrwt>0</asrwt>
<pdfrwt beam="1">  1       21 0.15889292E+00 0.45257284E+03</pdfrwt>
<pdfrwt beam="2">  1       21 0.69693875E-02 0.45257284E+03</pdfrwt>
<totfact> 0.35191254E+04</totfact>
</mgrwt>
</event>
<event>
 7    0  0.4775379E-002  0.4561235E+03  0.7546771E-02  0.1025912E+00
         21   -1    0    0  502  501  0.00000000000E+00  0.00000000000E+00  0.31836875102E+03  0.31836875102E+03  0.00000000000E+00 0. -1.
         21   -1    0    0  501  502 -0.00000000000E+00 -0.00000000000E+00 -0.16337079217E+03  0.16337079217E+03  0.00000000000E+00 0. -1.
      99926    2    1    2    0    0  0.00000000000E+00  0.00000000000E+00  0.15499795885E+03  0.48173954319E+03  0.45612347037E+03 0.  0.
      99925    2    3    3    0    0 -0.39750898246E+02  0.51394370866E+02 -0.18104296408E+01  0.27088913634E+03  0.26297553358E+03 0.  0.
         25    1    4    4    0    0 -0.66990375436E+01  0.61395063798E+02  0.13793269755E+02  0.14018556756E+03  0.12509000000E+03 0.  0.
         25    1    4    4    0    0 -0.33051860702E+02 -0.10000692932E+02 -0.15603699396E+02  0.13070356877E+03  0.12509000000E+03 0.  0.
         25    1    3    3    0    0  0.39750898246E+02 -0.51394370866E+02  0.15680838849E+03  0.21085040685E+03  0.12509000000E+03 0.  0.
<mgrwt>
<rscale>  2 0.45612347E+03</rscale>
<asrwt>0</asrwt>
<pdfrwt beam="1">  1       21 0.46818934E-01 0.45612347E+03</pdfrwt>
<pdfrwt beam="2">  1       21 0.24025116E-01 0.45612347E+03</pdfrwt>
<totfact> 0.65983300E+04</totfact>
</mgrwt>
</event>
<event>
 7    0  0.4775379E-002  0.4548891E+03  0.7546771E-02  0.1026274E+00
         21   -1    0    0  502  501  0.00000000000E+00  0.00000000000E+00  0.23846888707E+03  0.23846888707E+03  0.00000000000E+00 0.  1.
         21   -1    0    0  501  502 -0.00000000000E+00 -0.00000000000E+00 -0.21692989790E+03  0.21692989790E+03  0.00000000000E+00 0.  1.
      99926    2    1    2    0    0  0.00000000000E+00  0.00000000000E+00  0.21538989170E+02  0.45539878496E+03  0.45488913516E+03 0.  0.
      99925    2    3    3    0    0 -0.55493082894E+02  0.60044968339E+02 -0.63958433171E+02  0.28322968843E+03  0.26352133645E+03 0.  0.
         25    1    4    4    0    0 -0.16338104419E+02  0.39459051982E+02 -0.71603504179E+02  0.15032804246E+03  0.12509000000E+03 0.  0.
         25    1    3    3    0    0  0.55493082894E+02 -0.60044968339E+02  0.85497422341E+02  0.17216909653E+03  0.12509000000E+03 0.  0.
         25    1    4    4    0    0 -0.39154978475E+02  0.20585916357E+02  0.76450710081E+01  0.13290164597E+03  0.12509000000E+03 0.  0.
<mgrwt>
<rscale>  2 0.45488914E+03</rscale>
<asrwt>0</asrwt>
<pdfrwt beam="1">  1       21 0.35068954E-01 0.45488914E+03</pdfrwt>
<pdfrwt beam="2">  1       21 0.31901456E-01 0.45488914E+03</pdfrwt>
<totfact> 0.68577255E+04</totfact>
</mgrwt>
</event>
<event>
 7    0  0.4775379E-002  0.4418231E+03  0.7546771E-02  0.1030189E+00
         21   -1    0    0  502  501  0.00000000000E+00  0.00000000000E+00  0.72355299304E+02  0.72355299304E+02  0.00000000000E+00 0. -1.
         21   -1    0    0  501  502 -0.00000000000E+00 -0.00000000000E+00 -0.67447603284E+03  0.67447603284E+03  0.00000000000E+00 0. -1.
      99926    2    1    2    0    0  0.00000000000E+00  0.00000000000E+00 -0.60212073354E+03  0.74683133214E+03  0.44182311044E+03 0.  0.
      99925    2    3    3    0    0  0.43448549414E+02 -0.55535533006E+02 -0.50427993123E+03  0.57307200846E+03  0.26294734446E+03 0.  0.
         25    1    4    4    0    0  0.18552759830E+01  0.70316902200E+01 -0.25780120919E+03  0.28663889875E+03  0.12509000000E+03 0.  0.
         25    1    4    4    0    0  0.41593273431E+02 -0.62567223226E+02 -0.24647872204E+03  0.28643310971E+03  0.12509000000E+03 0.  0.
         25    1    3    3    0    0 -0.43448549414E+02  0.55535533006E+02 -0.97840802300E+02  0.17375932368E+03  0.12509000000E+03 0.  0.
<mgrwt>
<rscale>  2 0.44182311E+03</rscale>
<asrwt>0</asrwt>
<pdfrwt beam="1">  1       21 0.10640485E-01 0.44182311E+03</pdfrwt>
<pdfrwt beam="2">  1       21 0.99187649E-01 0.44182311E+03</pdfrwt>
<totfact> 0.56012711E+04</totfact>
</mgrwt>
</event>
<event>
 7    0  0.4775379E-002  0.4581033E+03  0.7546771E-02  0.1025333E+00
         21   -1    0    0  502  501  0.00000000000E+00  0.00000000000E+00  0.34374621204E+03  0.34374621204E+03  0.00000000000E+00 0.  1.
         21   -1    0    0  501  502 -0.00000000000E+00 -0.00000000000E+00 -0.15262615580E+03  0.15262615580E+03  0.00000000000E+00 0.  1.
      99926    2    1    2    0    0 -0.35527136788E-14  0.00000000000E+00  0.19112005624E+03  0.49637236784E+03  0.45810331985E+03 0.  0.
      99925    2    3    3    0    0 -0.16116281923E+02  0.71519721645E+02  0.22520820294E+02  0.27400327019E+03  0.26305094488E+03 0.  0.
         25    1    4    4    0    0 -0.36961466318E+02  0.98077527077E+01  0.23863334492E+02  0.13296356207E+03  0.12509000000E+03 0.  0.
         25    1    3    3    0    0  0.16116281923E+02 -0.71519721645E+02  0.16859923594E+03  0.22236909764E+03  0.12509000000E+03 0.  0.
         25    1    4    4    0    0  0.20845184395E+02  0.61711968938E+02 -0.13425141976E+01  0.14103970812E+03  0.12509000000E+03 0.  0.
<mgrwt>
<rscale>  2 0.45810332E+03</rscale>
<asrwt>0</asrwt>
<pdfrwt beam="1">  1       21 0.50550914E-01 0.45810332E+03</pdfrwt>
<pdfrwt beam="2">  1       21 0.22445023E-01 0.45810332E+03</pdfrwt>
<totfact> 0.63936558E+04</totfact>
</mgrwt>
</event>
<event>
 7    0  0.4775379E-002  0.4568385E+03  0.7546771E-02  0.1025702E+00
         21   -1    0    0  502  501  0.00000000000E+00  0.00000000000E+00  0.55329129232E+02  0.55329129232E+02  0.00000000000E+00 0. -1.
         21   -1    0    0  501  502 -0.00000000000E+00 -0.00000000000E+00 -0.94299985084E+03  0.94299985084E+03  0.00000000000E+00 0. -1.
      99926    2    1    2    0    0  0.00000000000E+00  0.00000000000E+00 -0.88767072161E+03  0.99832898008E+03  0.45683852995E+03 0.  0.
      99925    2    3    3    0    0  0.20738702143E+02 -0.18178515239E+02 -0.80134433178E+03  0.84386116510E+03  0.26303683335E+03 0.  0.
         25    1    3    3    0    0 -0.20738702143E+02  0.18178515239E+02 -0.86326389829E+02  0.15446781498E+03  0.12509000000E+03 0.  0.
         25    1    4    4    0    0  0.91925924129E+01 -0.21133698205E+02 -0.27917596517E+03  0.30678635006E+03  0.12509000000E+03 0.  0.
         25    1    4    4    0    0  0.11546109730E+02  0.29551829653E+01 -0.52216836661E+03  0.53707481504E+03  0.12509000000E+03 0.  0.
<mgrwt>
<rscale>  2 0.45683853E+03</rscale>
<asrwt>0</asrwt>
<pdfrwt beam="1">  1       21 0.81366367E-02 0.45683853E+03</pdfrwt>
<pdfrwt beam="2">  1       21 0.13867645E+00 0.45683853E+03</pdfrwt>
<totfact> 0.38673553E+04</totfact>
</mgrwt>
</event>
<event>
 7    0  0.4775379E-002  0.4588907E+03  0.7546771E-02  0.1025103E+00
         21   -1    0    0  502  501  0.00000000000E+00  0.00000000000E+00  0.75115894993E+02  0.75115894993E+02  0.00000000000E+00 0. -1.
         21   -1    0    0  501  502 -0.00000000000E+00 -0.00000000000E+00 -0.70085270237E+03  0.70085270237E+03  0.00000000000E+00 0. -1.
      99926    2    1    2    0    0  0.00000000000E+00  0.00000000000E+00 -0.62573680738E+03  0.77596859736E+03  0.45889074079E+03 0.  0.
      99925    2    3    3    0    0  0.24928140352E+02 -0.86103395444E+02 -0.26489706666E+03  0.38368294447E+03  0.26269171868E+03 0.  0.
         25    1    4    4    0    0  0.17251926814E+02 -0.67269696989E+02 -0.95068741218E+02  0.17178013496E+03  0.12509000000E+03 0.  0.
         25    1    3    3    0    0 -0.24928140352E+02  0.86103395444E+02 -0.36083974071E+03  0.39228565289E+03  0.12509000000E+03 0.  0.
         25    1    4    4    0    0  0.76762135375E+01 -0.18833698455E+02 -0.16982832545E+03  0.21190280950E+03  0.12509000000E+03 0.  0.
<mgrwt>
<rscale>  2 0.45889074E+03</rscale>
<asrwt>0</asrwt>
<pdfrwt beam="1">  1       21 0.11046454E-01 0.45889074E+03</pdfrwt>
<pdfrwt beam="2">  1       21 0.10306658E+00 0.45889074E+03</pdfrwt>
<totfact> 0.47482344E+04</totfact>
</mgrwt>
</event>
<event>
 7    0  0.4775379E-002  0.4540599E+03  0.7546771E-02  0.1026518E+00
         21   -1    0    0  502  501  0.00000000000E+00  0.00000000000E+00  0.14347981198E+03  0.14347981198E+03  0.00000000000E+00 0. -1.
         21   -1    0    0  501  502 -0.00000000000E+00 -0.00000000000E+00 -0.35923245620E+03  0.35923245620E+03  0.00000000000E+00 0. -1.
      99926    2    1    2    0    0  0.00000000000E+00  0.00000000000E+00 -0.21575264423E+03  0.50271226818E+03  0.45405993116E+03 0.  0.
      99925    2    3    3    0    0 -0.99392177620E+02  0.51455680397E+02 -0.11346670411E+03  0.30615079265E+03  0.26139457317E+03 0.  0.
         25    1    3    3    0    0  0.99392177620E+02 -0.51455680397E+02 -0.10228594011E+03  0.19656147553E+03  0.12509000000E+03 0.  0.
         25    1    4    4    0    0 -0.68918237329E+02  0.41201267515E+02 -0.93117460988E+02  0.17540136123E+03  0.12509000000E+03 0.  0.
         25    1    4    4    0    0 -0.30473940291E+02  0.10254412882E+02 -0.20349243125E+02  0.13074943142E+03  0.12509000000E+03 0.  0.
<mgrwt>
<rscale>  2 0.45405993E+03</rscale>
<asrwt>0</asrwt>
<pdfrwt beam="1">  1       21 0.21099973E-01 0.45405993E+03</pdfrwt>
<pdfrwt beam="2">  1       21 0.52828301E-01 0.45405993E+03</pdfrwt>
<totfact> 0.65568434E+04</totfact>
</mgrwt>
</event>
<event>
 7    0  0.4775379E-002  0.4636892E+03  0.7546771E-02  0.1023717E+00
         21   -1    0    0  502  501  0.00000000000E+00  0.00000000000E+00  0.26136915127E+02  0.26136915127E+02  0.00000000000E+00 0.  1.
         21   -1    0    0  501  502 -0.00000000000E+00 -0.00000000000E+00 -0.20565513132E+04  0.20565513132E+04  0.00000000000E+00 0.  1.
      99926    2    1    2    0    0  0.14210854715E-13  0.14210854715E-13 -0.20304143981E+04  0.20826882283E+04  0.46368915074E+03 0.  0.
      99925    2    3    3    0    0  0.76650775291E+02  0.94250890721E+02 -0.12587122072E+04  0.12915306263E+04  0.26255735821E+03 0.  0.
         25    1    3    3    0    0 -0.76650775291E+02 -0.94250890721E+02 -0.77170219084E+03  0.79115760200E+03  0.12509000000E+03 0.  0.
         25    1    4    4    0    0  0.61492119948E+02  0.16168681722E+02 -0.56597118470E+03  0.58310684878E+03  0.12509000000E+03 0.  0.
         25    1    4    4    0    0  0.15158655344E+02  0.78082208999E+02 -0.69274102252E+03  0.70842377754E+03  0.12509000000E+03 0.  0.
<mgrwt>
<rscale>  2 0.46368915E+03</rscale>
<asrwt>0</asrwt>
<pdfrwt beam="1">  1       21 0.38436631E-02 0.46368915E+03</pdfrwt>
<pdfrwt beam="2">  1       21 0.30243409E+00 0.46368915E+03</pdfrwt>
<totfact> 0.11603745E+04</totfact>
</mgrwt>
</event>
<event>
 7    0  0.4775379E-002  0.4446831E+03  0.7546771E-02  0.1029320E+00
         21   -1    0    0  502  501  0.00000000000E+00  0.00000000000E+00  0.26352962459E+03  0.26352962459E+03  0.00000000000E+00 0.  1.
         21   -1    0    0  501  502 -0.00000000000E+00 -0.00000000000E+00 -0.18759091721E+03  0.18759091721E+03  0.00000000000E+00 0.  1.
      99926    2    1    2    0    0  0.00000000000E+00  0.00000000000E+00  0.75938707380E+02  0.45112054180E+03  0.44468309610E+03 0.  0.
      99925    2    3    3    0    0  0.39126232649E+02  0.43824199390E+02  0.13435114587E+03  0.30108406756E+03  0.26296380512E+03 0.  0.
         25    1    4    4    0    0  0.30274756872E+02  0.22721720702E+02  0.11168814697E+03  0.17191447806E+03  0.12509000000E+03 0.  0.
         25    1    4    4    0    0  0.88514757777E+01  0.21102478689E+02  0.22662998905E+02  0.12916958949E+03  0.12509000000E+03 0.  0.
         25    1    3    3    0    0 -0.39126232649E+02 -0.43824199390E+02 -0.58412438491E+02  0.15003647425E+03  0.12509000000E+03 0.  0.
<mgrwt>
<rscale>  2 0.44468310E+03</rscale>
<asrwt>0</asrwt>
<pdfrwt beam="1">  1       21 0.38754357E-01 0.44468310E+03</pdfrwt>
<pdfrwt beam="2">  1       21 0.27586899E-01 0.44468310E+03</pdfrwt>
<totfact> 0.74799452E+04</totfact>
</mgrwt>
</event>
<event>
 7    0  0.4775379E-002  0.4648213E+03  0.7546771E-02  0.1023392E+00
         21   -1    0    0  502  501  0.00000000000E+00  0.00000000000E+00  0.73473104483E+02  0.73473104483E+02  0.00000000000E+00 0.  1.
         21   -1    0    0  501  502 -0.00000000000E+00 -0.00000000000E+00 -0.73516313060E+03  0.73516313060E+03  0.00000000000E+00 0.  1.
      99926    2    1    2    0    0 -0.44408920985E-15  0.00000000000E+00 -0.66169002612E+03  0.80863623508E+03  0.46482133129E+03 0.  0.
      99925    2    3    3    0    0 -0.39599496766E+00 -0.40195380262E+02 -0.21225205636E+03  0.34038649172E+03  0.26305171147E+03 0.  0.
         25    1    3    3    0    0  0.39599496766E+00  0.40195380262E+02 -0.44943796975E+03  0.46824974337E+03  0.12509000000E+03 0.  0.
         25    1    4    4    0    0  0.11236944912E+02 -0.31718994703E+02 -0.15518107256E+03  0.20214113123E+03  0.12509000000E+03 0.  0.
         25    1    4    4    0    0 -0.11632939879E+02 -0.84763855586E+01 -0.57070983803E+02  0.13824536048E+03  0.12509000000E+03 0.  0.
<mgrwt>
<rscale>  2 0.46482133E+03</rscale>
<asrwt>0</asrwt>
<pdfrwt beam="1">  1       21 0.10804868E-01 0.46482133E+03</pdfrwt>
<pdfrwt beam="2">  1       21 0.10811223E+00 0.46482133E+03</pdfrwt>
<totfact> 0.43869842E+04</totfact>
</mgrwt>
</event>
<event>
 7    0  0.4775379E-002  0.4564637E+03  0.7546771E-02  0.1025812E+00
         21   -1    0    0  502  501  0.00000000000E+00  0.00000000000E+00  0.12470143986E+04  0.12470143986E+04  0.00000000000E+00 0. -1.
         21   -1    0    0  501  502 -0.00000000000E+00 -0.00000000000E+00 -0.41771593397E+02  0.41771593397E+02  0.00000000000E+00 0. -1.
      99926    2    1    2    0    0 -0.71054273576E-14  0.71054273576E-14  0.12052428052E+04  0.12887859920E+04  0.45646370466E+03 0.  0.
      99925    2    3    3    0    0  0.35473216692E+02 -0.54325007200E+02  0.49052017718E+03  0.56030435282E+03  0.26290942938E+03 0.  0.
         25    1    4    4    0    0  0.36728742098E+02 -0.62378999494E+02  0.23959915951E+03  0.27981316161E+03  0.12509000000E+03 0.  0.
         25    1    3    3    0    0 -0.35473216692E+02  0.54325007200E+02  0.71472262803E+03  0.72848163918E+03  0.12509000000E+03 0.  0.
         25    1    4    4    0    0 -0.12555254055E+01  0.80539922941E+01  0.25092101767E+03  0.28049119121E+03  0.12509000000E+03 0.  0.
<mgrwt>
<rscale>  2 0.45646370E+03</rscale>
<asrwt>0</asrwt>
<pdfrwt beam="1">  1       21 0.18338445E+00 0.45646370E+03</pdfrwt>
<pdfrwt beam="2">  1       21 0.61428822E-02 0.45646370E+03</pdfrwt>
<totfact> 0.29109342E+04</totfact>
</mgrwt>
</event>
<event>
 7    0  0.4775379E-002  0.4287872E+03  0.7546771E-02  0.1034244E+00
         21   -1    0    0  502  501  0.00000000000E+00  0.00000000000E+00  0.44130354086E+02  0.44130354086E+02  0.00000000000E+00 0.  1.
         21   -1    0    0  501  502 -0.00000000000E+00 -0.00000000000E+00 -0.10415647088E+04  0.10415647088E+04  0.00000000000E+00 0.  1.
      99926    2    1    2    0    0  0.48849813084E-14  0.88817841970E-15 -0.99743435476E+03  0.10856950629E+04  0.42878721718E+03 0.  0.
      99925    2    3    3    0    0  0.32383783758E+01  0.38546214080E+01 -0.42568281090E+03  0.50039797494E+03  0.26299606961E+03 0.  0.
         25    1    4    4    0    0  0.35029276126E+02  0.24548195267E+02 -0.22184964870E+03  0.25825266466E+03  0.12509000000E+03 0.  0.
         25    1    3    3    0    0 -0.32383783758E+01 -0.38546214080E+01 -0.57175154386E+03  0.58529708799E+03  0.12509000000E+03 0.  0.
         25    1    4    4    0    0 -0.31790897750E+02 -0.20693573859E+02 -0.20383316220E+03  0.24214531028E+03  0.12509000000E+03 0.  0.
<mgrwt>
<rscale>  2 0.42878722E+03</rscale>
<asrwt>0</asrwt>
<pdfrwt beam="1">  1       21 0.64897589E-02 0.42878722E+03</pdfrwt>
<pdfrwt beam="2">  1       21 0.15317126E+00 0.42878722E+03</pdfrwt>
<totfact> 0.44403866E+04</totfact>
</mgrwt>
</event>
<event>
 7    0  0.4775379E-002  0.4539340E+03  0.7546771E-02  0.1026555E+00
         21   -1    0    0  502  501  0.00000000000E+00  0.00000000000E+00  0.65450871473E+03  0.65450871473E+03  0.00000000000E+00 0. -1.
         21   -1    0    0  501  502 -0.00000000000E+00 -0.00000000000E+00 -0.78706401715E+02  0.78706401715E+02  0.00000000000E+00 0. -1.
      99926    2    1    2    0    0  0.00000000000E+00  0.35527136788E-14  0.57580231301E+03  0.73321511644E+03  0.45393402969E+03 0.  0.
      99925    2    3    3    0    0  0.40971976665E+02 -0.62001560701E+01  0.53103380932E+03  0.59404302215E+03  0.26300771987E+03 0.  0.
         25    1    3    3    0    0 -0.40971976665E+02  0.62001560701E+01  0.44768503687E+02  0.13917209429E+03  0.12509000000E+03 0.  0.
         25    1    4    4    0    0  0.27913516082E+02  0.34664471936E+02  0.29465824893E+03  0.32319000875E+03  0.12509000000E+03 0.  0.
         25    1    4    4    0    0  0.13058460584E+02 -0.40864628006E+02  0.23637556039E+03  0.27085301340E+03  0.12509000000E+03 0.  0.
<mgrwt>
<rscale>  2 0.45393403E+03</rscale>
<asrwt>0</asrwt>
<pdfrwt beam="1">  1       21 0.96251279E-01 0.45393403E+03</pdfrwt>
<pdfrwt beam="2">  1       21 0.11574471E-01 0.45393403E+03</pdfrwt>
<totfact> 0.51567301E+04</totfact>
</mgrwt>
</event>
<event>
 7    0  0.4775379E-002  0.4102955E+03  0.7546771E-02  0.1040272E+00
         21   -1    0    0  502  501  0.00000000000E+00  0.00000000000E+00  0.50229222188E+02  0.50229222188E+02  0.00000000000E+00 0. -1.
         21   -1    0    0  501  502 -0.00000000000E+00 -0.00000000000E+00 -0.83787076369E+03  0.83787076369E+03  0.00000000000E+00 0. -1.
      99926    2    1    2    0    0  0.71054273576E-14 -0.71054273576E-14 -0.78764154150E+03  0.88809998588E+03  0.41029548744E+03 0.  0.
      99925    2    3    3    0    0 -0.37862860901E+02  0.39371240331E+02 -0.45450827117E+03  0.52808752123E+03  0.26327736461E+03 0.  0.
         25    1    3    3    0    0  0.37862860901E+02 -0.39371240331E+02 -0.33313327033E+03  0.36001246465E+03  0.12509000000E+03 0.  0.
         25    1    4    4    0    0  0.51972079864E+00  0.27697620811E+02 -0.15541584630E+03  0.20141753074E+03  0.12509000000E+03 0.  0.
         25    1    4    4    0    0 -0.38382581700E+02  0.11673619520E+02 -0.29909242487E+03  0.32666999048E+03  0.12509000000E+03 0.  0.
<mgrwt>
<rscale>  2 0.41029549E+03</rscale>
<asrwt>0</asrwt>
<pdfrwt beam="1">  1       21 0.73866510E-02 0.41029549E+03</pdfrwt>
<pdfrwt beam="2">  1       21 0.12321628E+00 0.41029549E+03</pdfrwt>
<totfact> 0.63103122E+04</totfact>
</mgrwt>
</event>
<event>
 7    0  0.4775379E-002  0.4516901E+03  0.7546771E-02  0.1027219E+00
         21   -1    0    0  502  501  0.00000000000E+00  0.00000000000E+00  0.48085305590E+03  0.48085305590E+03  0.00000000000E+00 0.  1.
         21   -1    0    0  501  502 -0.00000000000E+00 -0.00000000000E+00 -0.10607393595E+03  0.10607393595E+03  0.00000000000E+00 0.  1.
      99926    2    1    2    0    0 -0.14210854715E-13  0.00000000000E+00  0.37477911995E+03  0.58692699185E+03  0.45169005414E+03 0.  0.
      99925    2    3    3    0    0  0.96787062130E+02  0.46271441544E+02  0.20431056545E+03  0.34982824053E+03  0.26292243918E+03 0.  0.
         25    1    4    4    0    0  0.70297150195E+02  0.37783269890E+01  0.70442206707E+02  0.15989239402E+03  0.12509000000E+03 0.  0.
         25    1    4    4    0    0  0.26489911935E+02  0.42493114555E+02  0.13386835874E+03  0.18993584651E+03  0.12509000000E+03 0.  0.
         25    1    3    3    0    0 -0.96787062130E+02 -0.46271441544E+02  0.17046855451E+03  0.23709875131E+03  0.12509000000E+03 0.  0.
<mgrwt>
<rscale>  2 0.45169005E+03</rscale>
<asrwt>0</asrwt>
<pdfrwt beam="1">  1       21 0.70713684E-01 0.45169005E+03</pdfrwt>
<pdfrwt beam="2">  1       21 0.15599108E-01 0.45169005E+03</pdfrwt>
<totfact> 0.61072417E+04</totfact>
</mgrwt>
</event>
<event>
 7    0  0.4775379E-002  0.4550822E+03  0.7546771E-02  0.1026217E+00
         21   -1    0    0  502  501  0.00000000000E+00  0.00000000000E+00  0.82202302042E+03  0.82202302042E+03  0.00000000000E+00 0. -1.
         21   -1    0    0  501  502 -0.00000000000E+00 -0.00000000000E+00 -0.62984798611E+02  0.62984798611E+02  0.00000000000E+00 0. -1.
      99926    2    1    2    0    0  0.00000000000E+00  0.00000000000E+00  0.75903822181E+03  0.88500781903E+03  0.45508220969E+03 0.  0.
      99925    2    3    3    0    0  0.11126460225E+03 -0.21187944468E+02  0.47845923825E+03  0.55759246384E+03  0.26297789328E+03 0.  0.
         25    1    4    4    0    0  0.49419575309E+02 -0.31325217611E+02  0.30448921631E+03  0.33434227168E+03  0.12509000000E+03 0.  0.
         25    1    3    3    0    0 -0.11126460225E+03  0.21187944468E+02  0.28057898356E+03  0.32741535520E+03  0.12509000000E+03 0.  0.
         25    1    4    4    0    0  0.61845026939E+02  0.10137273142E+02  0.17397002194E+03  0.22325019216E+03  0.12509000000E+03 0.  0.
<mgrwt>
<rscale>  2 0.45508221E+03</rscale>
<asrwt>0</asrwt>
<pdfrwt beam="1">  1       21 0.12088573E+00 0.45508221E+03</pdfrwt>
<pdfrwt beam="2">  1       21 0.92624709E-02 0.45508221E+03</pdfrwt>
<totfact> 0.43860020E+04</totfact>
</mgrwt>
</event>
<event>
 7    0  0.4775379E-002  0.4124959E+03  0.7546771E-02  0.1039537E+00
         21   -1    0    0  502  501  0.00000000000E+00  0.00000000000E+00  0.44106764995E+02  0.44106764995E+02  0.00000000000E+00 0. -1.
         21   -1    0    0  501  502 -0.00000000000E+00 -0.00000000000E+00 -0.96443735584E+03  0.96443735584E+03  0.00000000000E+00 0. -1.
      99926    2    1    2    0    0  0.00000000000E+00  0.00000000000E+00 -0.92033059084E+03  0.10085441208E+04  0.41249587540E+03 0.  0.
      99925    2    3    3    0    0  0.22003793083E+02 -0.32366288187E+02 -0.73469943944E+03  0.78130377232E+03  0.26290792078E+03 0.  0.
         25    1    4    4    0    0  0.50460457342E+02 -0.12963339469E+02 -0.40050365277E+03  0.42280609019E+03  0.12509000000E+03 0.  0.
         25    1    4    4    0    0 -0.28456664259E+02 -0.19402948718E+02 -0.33419578667E+03  0.35849768212E+03  0.12509000000E+03 0.  0.
         25    1    3    3    0    0 -0.22003793083E+02  0.32366288187E+02 -0.18563115140E+03  0.22724034851E+03  0.12509000000E+03 0.  0.
<mgrwt>
<rscale>  2 0.41249588E+03</rscale>
<asrwt>0</asrwt>
<pdfrwt beam="1">  1       21 0.64862892E-02 0.41249588E+03</pdfrwt>
<pdfrwt beam="2">  1       21 0.14182902E+00 0.41249588E+03</pdfrwt>
<totfact> 0.54924772E+04</totfact>
</mgrwt>
</event>
<event>
 7    0  0.4775379E-002  0.4538276E+03  0.7546771E-02  0.1026587E+00
         21   -1    0    0  502  501  0.00000000000E+00  0.00000000000E+00  0.52664355775E+03  0.52664355775E+03  0.00000000000E+00 0. -1.
         21   -1    0    0  501  502 -0.00000000000E+00 -0.00000000000E+00 -0.97769884904E+02  0.97769884904E+02  0.00000000000E+00 0. -1.
      99926    2    1    2    0    0  0.00000000000E+00  0.00000000000E+00  0.42887367284E+03  0.62441344265E+03  0.45382763259E+03 0.  0.
      99925    2    3    3    0    0  0.65738562946E+02  0.90455047137E+02  0.26058782049E+03  0.38677651283E+03  0.26303304827E+03 0.  0.
         25    1    4    4    0    0 -0.67672051919E+01  0.38567608405E+02  0.13715980792E+03  0.18971973142E+03  0.12509000000E+03 0.  0.
         25    1    3    3    0    0 -0.65738562946E+02 -0.90455047137E+02  0.16828585235E+03  0.23763692982E+03  0.12509000000E+03 0.  0.
         25    1    4    4    0    0  0.72505768138E+02  0.51887438731E+02  0.12342801257E+03  0.19705678141E+03  0.12509000000E+03 0.  0.
<mgrwt>
<rscale>  2 0.45382763E+03</rscale>
<asrwt>0</asrwt>
<pdfrwt beam="1">  1       21 0.77447581E-01 0.45382763E+03</pdfrwt>
<pdfrwt beam="2">  1       21 0.14377924E-01 0.45382763E+03</pdfrwt>
<totfact> 0.57732706E+04</totfact>
</mgrwt>
</event>
<event>
 7    0  0.4775379E-002  0.4377153E+03  0.7546771E-02  0.1031450E+00
         21   -1    0    0  502  501  0.00000000000E+00  0.00000000000E+00  0.21946867249E+03  0.21946867249E+03  0.00000000000E+00 0.  1.
         21   -1    0    0  501  502 -0.00000000000E+00 -0.00000000000E+00 -0.21824832140E+03  0.21824832140E+03  0.00000000000E+00 0.  1.
      99926    2    1    2    0    0 -0.71054273576E-14  0.71054273576E-14  0.12203510939E+01  0.43771699388E+03  0.43771529272E+03 0.  0.
      99925    2    3    3    0    0  0.56455599094E+02 -0.49420769885E+02  0.60844013575E+02  0.28013483629E+03  0.26295224918E+03 0.  0.
         25    1    4    4    0    0  0.31976061414E+02 -0.27308843292E+02 -0.10524773950E+02  0.13238776527E+03  0.12509000000E+03 0.  0.
         25    1    4    4    0    0  0.24479537680E+02 -0.22111926594E+02  0.71368787525E+02  0.14774707102E+03  0.12509000000E+03 0.  0.
         25    1    3    3    0    0 -0.56455599094E+02  0.49420769885E+02 -0.59623662481E+02  0.15758215760E+03  0.12509000000E+03 0.  0.
<mgrwt>
<rscale>  2 0.43771529E+03</rscale>
<asrwt>0</asrwt>
<pdfrwt beam="1">  1       21 0.32274805E-01 0.43771529E+03</pdfrwt>
<pdfrwt beam="2">  1       21 0.32095341E-01 0.43771529E+03</pdfrwt>
<totfact> 0.80354139E+04</totfact>
</mgrwt>
</event>
<event>
 7    0  0.4775379E-002  0.4544457E+03  0.7546771E-02  0.1026405E+00
         21   -1    0    0  502  501  0.00000000000E+00  0.00000000000E+00  0.38345886688E+03  0.38345886688E+03  0.00000000000E+00 0.  1.
         21   -1    0    0  501  502 -0.00000000000E+00 -0.00000000000E+00 -0.13464347614E+03  0.13464347614E+03  0.00000000000E+00 0.  1.
      99926    2    1    2    0    0  0.00000000000E+00  0.66613381478E-15  0.24881539074E+03  0.51810234302E+03  0.45444574942E+03 0.  0.
      99925    2    3    3    0    0 -0.16939489187E+02 -0.14146725608E+01  0.28359136136E+03  0.38716028016E+03  0.26302105373E+03 0.  0.
         25    1    3    3    0    0  0.16939489187E+02  0.14146725608E+01 -0.34775970619E+02  0.13094206286E+03  0.12509000000E+03 0.  0.
         25    1    4    4    0    0  0.31097199103E+02  0.85075156743E+01  0.14186019966E+03  0.19186254966E+03  0.12509000000E+03 0.  0.
         25    1    4    4    0    0 -0.48036688290E+02 -0.99221882351E+01  0.14173116170E+03  0.19529773050E+03  0.12509000000E+03 0.  0.
<mgrwt>
<rscale>  2 0.45444575E+03</rscale>
<asrwt>0</asrwt>
<pdfrwt beam="1">  1       21 0.56391010E-01 0.45444575E+03</pdfrwt>
<pdfrwt beam="2">  1       21 0.19800511E-01 0.45444575E+03</pdfrwt>
<totfact> 0.64299039E+04</totfact>
</mgrwt>
</event>
<event>
 7    0  0.4775379E-002  0.4500343E+03  0.7546771E-02  0.1027712E+00
         21   -1    0    0  502  501  0.00000000000E+00  0.00000000000E+00  0.53287480321E+03  0.53287480321E+03  0.00000000000E+00 0.  1.
         21   -1    0    0  501  502 -0.00000000000E+00 -0.00000000000E+00 -0.95018021450E+02  0.95018021450E+02  0.00000000000E+00 0.  1.
      99926    2    1    2    0    0 -0.71054273576E-14  0.00000000000E+00  0.43785678176E+03  0.62789282466E+03  0.45003426306E+03 0.  0.
      99925    2    3    3    0    0  0.51856768781E+02 -0.18897569396E+02  0.40701376869E+03  0.48773205214E+03  0.26301350572E+03 0.  0.
         25    1    4    4    0    0  0.31254005741E+02 -0.48239102882E+02  0.22969270366E+03  0.26778735993E+03  0.12509000000E+03 0.  0.
         25    1    4    4    0    0  0.20602763041E+02  0.29341533486E+02  0.17732106502E+03  0.21994469221E+03  0.12509000000E+03 0.  0.
         25    1    3    3    0    0 -0.51856768781E+02  0.18897569396E+02  0.30843013076E+02  0.14016077252E+03  0.12509000000E+03 0.  0.
<mgrwt>
<rscale>  2 0.45003426E+03</rscale>
<asrwt>0</asrwt>
<pdfrwt beam="1">  1       21 0.78363940E-01 0.45003426E+03</pdfrwt>
<pdfrwt beam="2">  1       21 0.13973239E-01 0.45003426E+03</pdfrwt>
<totfact> 0.59283433E+04</totfact>
</mgrwt>
</event>
<event>
 7    0  0.4775379E-002  0.4432253E+03  0.7546771E-02  0.1029762E+00
         21   -1    0    0  502  501  0.00000000000E+00  0.00000000000E+00  0.20413400930E+03  0.20413400930E+03  0.00000000000E+00 0.  1.
         21   -1    0    0  501  502 -0.00000000000E+00 -0.00000000000E+00 -0.24058791984E+03  0.24058791984E+03  0.00000000000E+00 0.  1.
      99926    2    1    2    0    0  0.14210854715E-13  0.00000000000E+00 -0.36453910541E+02  0.44472192913E+03  0.44322534523E+03 0.  0.
      99925    2    3    3    0    0 -0.99242981581E+02  0.20807049526E+02 -0.13072007392E+02  0.28200645907E+03  0.26282059066E+03 0.  0.
         25    1    4    4    0    0 -0.37091482294E+02 -0.17511617198E+02  0.20753521757E+02  0.13326909455E+03  0.12509000000E+03 0.  0.
         25    1    4    4    0    0 -0.62151499287E+02  0.38318666724E+02 -0.33825529148E+02  0.14873736452E+03  0.12509000000E+03 0.  0.
         25    1    3    3    0    0  0.99242981581E+02 -0.20807049526E+02 -0.23381903150E+02  0.16271547006E+03  0.12509000000E+03 0.  0.
<mgrwt>
<rscale>  2 0.44322535E+03</rscale>
<asrwt>0</asrwt>
<pdfrwt beam="1">  1       21 0.30019707E-01 0.44322535E+03</pdfrwt>
<pdfrwt beam="2">  1       21 0.35380577E-01 0.44322535E+03</pdfrwt>
<totfact> 0.76218080E+04</totfact>
</mgrwt>
</event>
<event>
 7    0  0.4775379E-002  0.4535531E+03  0.7546771E-02  0.1026668E+00
         21   -1    0    0  502  501  0.00000000000E+00  0.00000000000E+00  0.15895850438E+04  0.15895850438E+04  0.00000000000E+00 0. -1.
         21   -1    0    0  501  502 -0.00000000000E+00 -0.00000000000E+00 -0.32352846356E+02  0.32352846356E+02  0.00000000000E+00 0. -1.
      99926    2    1    2    0    0  0.35527136788E-14  0.00000000000E+00  0.15572321974E+04  0.16219378901E+04  0.45355308704E+03 0.  0.
      99925    2    3    3    0    0  0.25470153503E+02  0.34023449993E+02  0.61145564677E+03  0.66697866811E+03  0.26301371044E+03 0.  0.
         25    1    4    4    0    0 -0.20782398353E+01 -0.15351353650E+02  0.24226898747E+03  0.27309660109E+03  0.12509000000E+03 0.  0.
         25    1    3    3    0    0 -0.25470153503E+02 -0.34023449993E+02  0.94577655063E+03  0.95495922200E+03  0.12509000000E+03 0.  0.
         25    1    4    4    0    0  0.27548393338E+02  0.49374803643E+02  0.36918665931E+03  0.39388206702E+03  0.12509000000E+03 0.  0.
<mgrwt>
<rscale>  2 0.45355309E+03</rscale>
<asrwt>0</asrwt>
<pdfrwt beam="1">  1       21 0.23376245E+00 0.45355309E+03</pdfrwt>
<pdfrwt beam="2">  1       21 0.47577726E-02 0.45355309E+03</pdfrwt>
<totfact> 0.21175457E+04</totfact>
</mgrwt>
</event>
<event>
 7    0  0.4775379E-002  0.4537923E+03  0.7546771E-02  0.1026597E+00
         21   -1    0    0  502  501  0.00000000000E+00  0.00000000000E+00  0.53213990806E+03  0.53213990806E+03  0.00000000000E+00 0. -1.
         21   -1    0    0  501  502 -0.00000000000E+00 -0.00000000000E+00 -0.96744983057E+02  0.96744983057E+02  0.00000000000E+00 0. -1.
      99926    2    1    2    0    0  0.00000000000E+00  0.00000000000E+00  0.43539492500E+03  0.62888489111E+03  0.45379231544E+03 0.  0.
      99925    2    3    3    0    0  0.90653369339E+02  0.65015156976E+02  0.28883869327E+03  0.40623889145E+03  0.26297764579E+03 0.  0.
         25    1    4    4    0    0  0.79244303769E+01  0.49969924485E+02  0.13569348562E+03  0.19136358088E+03  0.12509000000E+03 0.  0.
         25    1    3    3    0    0 -0.90653369339E+02 -0.65015156976E+02  0.14655623173E+03  0.22264599967E+03  0.12509000000E+03 0.  0.
         25    1    4    4    0    0  0.82728938962E+02  0.15045232491E+02  0.15314520765E+03  0.21487531056E+03  0.12509000000E+03 0.  0.
<mgrwt>
<rscale>  2 0.45379232E+03</rscale>
<asrwt>0</asrwt>
<pdfrwt beam="1">  1       21 0.78255868E-01 0.45379232E+03</pdfrwt>
<pdfrwt beam="2">  1       21 0.14227204E-01 0.45379232E+03</pdfrwt>
<totfact> 0.57480690E+04</totfact>
</mgrwt>
</event>
<event>
 7    0  0.4775379E-002  0.4554328E+03  0.7546771E-02  0.1026114E+00
         21   -1    0    0  502  501  0.00000000000E+00  0.00000000000E+00  0.21305147725E+03  0.21305147725E+03  0.00000000000E+00 0. -1.
         21   -1    0    0  501  502 -0.00000000000E+00 -0.00000000000E+00 -0.24339072358E+03  0.24339072358E+03  0.00000000000E+00 0. -1.
      99926    2    1    2    0    0  0.00000000000E+00 -0.14210854715E-13 -0.30339246328E+02  0.45644220083E+03  0.45543277531E+03 0.  0.
      99925    2    3    3    0    0  0.65734733345E+02 -0.66675712018E+02 -0.84155303707E+02  0.29118367042E+03  0.26256258118E+03 0.  0.
         25    1    4    4    0    0  0.52119828223E+02 -0.34767841646E+01 -0.60316505191E+02  0.14837167324E+03  0.12509000000E+03 0.  0.
         25    1    3    3    0    0 -0.65734733345E+02  0.66675712018E+02  0.53816057379E+02  0.16525853041E+03  0.12509000000E+03 0.  0.
         25    1    4    4    0    0  0.13614905121E+02 -0.63198927853E+02 -0.23838798516E+02  0.14281199718E+03  0.12509000000E+03 0.  0.
<mgrwt>
<rscale>  2 0.45543278E+03</rscale>
<asrwt>0</asrwt>
<pdfrwt beam="1">  1       21 0.31331100E-01 0.45543278E+03</pdfrwt>
<pdfrwt beam="2">  1       21 0.35792753E-01 0.45543278E+03</pdfrwt>
<totfact> 0.68204487E+04</totfact>
</mgrwt>
</event>
<event>
 7    0  0.4775379E-002  0.4736296E+03  0.7546771E-02  0.1020901E+00
         21   -1    0    0  502  501  0.00000000000E+00  0.00000000000E+00  0.19497054400E+04  0.19497054400E+04  0.00000000000E+00 0. -1.
         21   -1    0    0  501  502 -0.00000000000E+00 -0.00000000000E+00 -0.28763963137E+02  0.28763963137E+02  0.00000000000E+00 0. -1.
      99926    2    1    2    0    0  0.35527136788E-14  0.00000000000E+00  0.19209414769E+04  0.19784694032E+04  0.47362962493E+03 0.  0.
      99925    2    3    3    0    0 -0.20422146083E+02  0.74635618759E+02  0.16250863430E+04  0.16480676659E+04  0.26312329719E+03 0.  0.
         25    1    4    4    0    0  0.14152233223E+02  0.48960629331E+02  0.63695559313E+03  0.65112008466E+03  0.12509000000E+03 0.  0.
         25    1    3    3    0    0  0.20422146083E+02 -0.74635618759E+02  0.29585513384E+03  0.33040173722E+03  0.12509000000E+03 0.  0.
         25    1    4    4    0    0 -0.34574379307E+02  0.25674989428E+02  0.98813074992E+03  0.99694758128E+03  0.12509000000E+03 0.  0.
<mgrwt>
<rscale>  2 0.47362962E+03</rscale>
<asrwt>0</asrwt>
<pdfrwt beam="1">  1       21 0.28672130E+00 0.47362962E+03</pdfrwt>
<pdfrwt beam="2">  1       21 0.42299959E-02 0.47362962E+03</pdfrwt>
<totfact> 0.12202540E+04</totfact>
</mgrwt>
</event>
<event>
 7    0  0.4775379E-002  0.4543629E+03  0.7546771E-02  0.1026429E+00
         21   -1    0    0  502  501  0.00000000000E+00  0.00000000000E+00  0.54586681391E+03  0.54586681391E+03  0.00000000000E+00 0.  1.
         21   -1    0    0  501  502 -0.00000000000E+00 -0.00000000000E+00 -0.94549453129E+02  0.94549453129E+02  0.00000000000E+00 0.  1.
      99926    2    1    2    0    0  0.00000000000E+00  0.00000000000E+00  0.45131736078E+03  0.64041626704E+03  0.45436288905E+03 0.  0.
      99925    2    3    3    0    0  0.67353502197E+02  0.25061342904E+02  0.16192412081E+03  0.31705807462E+03  0.26294835351E+03 0.  0.
         25    1    4    4    0    0  0.19993848748E+02 -0.25390128936E+02  0.67880823258E+02  0.14594425957E+03  0.12509000000E+03 0.  0.
         25    1    3    3    0    0 -0.67353502197E+02 -0.25061342904E+02  0.28939323997E+03  0.32335819242E+03  0.12509000000E+03 0.  0.
         25    1    4    4    0    0  0.47359653449E+02  0.50451471840E+02  0.94043297553E+02  0.17111381505E+03  0.12509000000E+03 0.  0.
<mgrwt>
<rscale>  2 0.45436289E+03</rscale>
<asrwt>0</asrwt>
<pdfrwt beam="1">  1       21 0.80274530E-01 0.45436289E+03</pdfrwt>
<pdfrwt beam="2">  1       21 0.13904332E-01 0.45436289E+03</pdfrwt>
<totfact> 0.56540744E+04</totfact>
</mgrwt>
</event>
<event>
 7    0  0.4775379E-002  0.4631983E+03  0.7546771E-02  0.1023858E+00
         21   -1    0    0  502  501  0.00000000000E+00  0.00000000000E+00  0.33629908098E+03  0.33629908098E+03  0.00000000000E+00 0. -1.
         21   -1    0    0  501  502 -0.00000000000E+00 -0.00000000000E+00 -0.15949541050E+03  0.15949541050E+03  0.00000000000E+00 0. -1.
      99926    2    1    2    0    0 -0.14210854715E-13 -0.14210854715E-13  0.17680367049E+03  0.49579449148E+03  0.46319827275E+03 0.  0.
      99925    2    3    3    0    0  0.78215196706E+02  0.78234055862E+02  0.58762939888E+02  0.29129679792E+03  0.26298775044E+03 0.  0.
         25    1    4    4    0    0  0.56235939008E+02  0.21757670074E+02  0.62426958532E+02  0.15225147058E+03  0.12509000000E+03 0.  0.
         25    1    3    3    0    0 -0.78215196706E+02 -0.78234055862E+02  0.11804073060E+03  0.20449769356E+03  0.12509000000E+03 0.  0.
         25    1    4    4    0    0  0.21979257698E+02  0.56476385788E+02 -0.36640186437E+01  0.13904532733E+03  0.12509000000E+03 0.  0.
<mgrwt>
<rscale>  2 0.46319827E+03</rscale>
<asrwt>0</asrwt>
<pdfrwt beam="1">  1       21 0.49455747E-01 0.46319827E+03</pdfrwt>
<pdfrwt beam="2">  1       21 0.23455207E-01 0.46319827E+03</pdfrwt>
<totfact> 0.61468127E+04</totfact>
</mgrwt>
</event>
<event>
 7    0  0.4775379E-002  0.4616764E+03  0.7546771E-02  0.1024296E+00
         21   -1    0    0  502  501  0.00000000000E+00  0.00000000000E+00  0.12580797372E+03  0.12580797372E+03  0.00000000000E+00 0.  1.
         21   -1    0    0  501  502 -0.00000000000E+00 -0.00000000000E+00 -0.42355247419E+03  0.42355247419E+03  0.00000000000E+00 0.  1.
      99926    2    1    2    0    0  0.14210854715E-13  0.71054273576E-14 -0.29774450047E+03  0.54936044790E+03  0.46167641716E+03 0.  0.
      99925    2    3    3    0    0 -0.11300324272E+03 -0.37630172614E+02 -0.19495930205E+03  0.34836774188E+03  0.26299275917E+03 0.  0.
         25    1    4    4    0    0 -0.38667910759E+02 -0.52629347863E+02 -0.79154974575E+02  0.16179639575E+03  0.12509000000E+03 0.  0.
         25    1    4    4    0    0 -0.74335331964E+02  0.14999175249E+02 -0.11580432747E+03  0.18657134613E+03  0.12509000000E+03 0.  0.
         25    1    3    3    0    0  0.11300324272E+03  0.37630172614E+02 -0.10278519843E+03  0.20099270602E+03  0.12509000000E+03 0.  0.
<mgrwt>
<rscale>  2 0.46167642E+03</rscale>
<asrwt>0</asrwt>
<pdfrwt beam="1">  1       21 0.18501173E-01 0.46167642E+03</pdfrwt>
<pdfrwt beam="2">  1       21 0.62287129E-01 0.46167642E+03</pdfrwt>
<totfact> 0.58743616E+04</totfact>
</mgrwt>
</event>
<event>
 7    0  0.4775379E-002  0.4592579E+03  0.7546771E-02  0.1024997E+00
         21   -1    0    0  502  501  0.00000000000E+00  0.00000000000E+00  0.22302424539E+03  0.22302424539E+03  0.00000000000E+00 0. -1.
         21   -1    0    0  501  502 -0.00000000000E+00 -0.00000000000E+00 -0.23642929457E+03  0.23642929457E+03  0.00000000000E+00 0. -1.
      99926    2    1    2    0    0  0.00000000000E+00  0.00000000000E+00 -0.13405049186E+02  0.45945353996E+03  0.45925794499E+03 0.  0.
      99925    2    3    3    0    0  0.59419765087E+02 -0.80364756804E+02  0.52629322966E+02  0.28625640077E+03  0.26302790484E+03 0.  0.
         25    1    3    3    0    0 -0.59419765087E+02  0.80364756804E+02 -0.66034372152E+02  0.17319713919E+03  0.12509000000E+03 0.  0.
         25    1    4    4    0    0  0.36930504602E+02 -0.33794488302E+01  0.63618974755E+01  0.13062643180E+03  0.12509000000E+03 0.  0.
         25    1    4    4    0    0  0.22489260486E+02 -0.76985307973E+02  0.46267425490E+02  0.15562996897E+03  0.12509000000E+03 0.  0.
<mgrwt>
<rscale>  2 0.45925794E+03</rscale>
<asrwt>0</asrwt>
<pdfrwt beam="1">  1       21 0.32797683E-01 0.45925794E+03</pdfrwt>
<pdfrwt beam="2">  1       21 0.34769014E-01 0.45925794E+03</pdfrwt>
<totfact> 0.65951497E+04</totfact>
</mgrwt>
</event>
<event>
 7    0  0.4775379E-002  0.4697663E+03  0.7546771E-02  0.1021986E+00
         21   -1    0    0  502  501  0.00000000000E+00  0.00000000000E+00  0.16076428218E+03  0.16076428218E+03  0.00000000000E+00 0.  1.
         21   -1    0    0  501  502 -0.00000000000E+00 -0.00000000000E+00 -0.34317381699E+03  0.34317381699E+03  0.00000000000E+00 0.  1.
      99926    2    1    2    0    0 -0.16653345369E-14  0.00000000000E+00 -0.18240953481E+03  0.50393809917E+03  0.46976629233E+03 0.  0.
      99925    2    3    3    0    0  0.93233282894E+00  0.82357690593E+02 -0.10357523198E+02  0.27583053410E+03  0.26304286117E+03 0.  0.
         25    1    3    3    0    0 -0.93233282894E+00 -0.82357690593E+02 -0.17205201161E+03  0.22810756507E+03  0.12509000000E+03 0.  0.
         25    1    4    4    0    0  0.40909130403E+02  0.37929978847E+02 -0.29355295222E+01  0.13699768494E+03  0.12509000000E+03 0.  0.
         25    1    4    4    0    0 -0.39976797574E+02  0.44427711745E+02 -0.74219936755E+01  0.13883284916E+03  0.12509000000E+03 0.  0.
<mgrwt>
<rscale>  2 0.46976629E+03</rscale>
<asrwt>0</asrwt>
<pdfrwt beam="1">  1       21 0.23641807E-01 0.46976629E+03</pdfrwt>
<pdfrwt beam="2">  1       21 0.50466736E-01 0.46976629E+03</pdfrwt>
<totfact> 0.57903830E+04</totfact>
</mgrwt>
</event>
<event>
 7    0  0.4775379E-002  0.4562768E+03  0.7546771E-02  0.1025867E+00
         21   -1    0    0  502  501  0.00000000000E+00  0.00000000000E+00  0.94316856689E+02  0.94316856689E+02  0.00000000000E+00 0. -1.
         21   -1    0    0  501  502 -0.00000000000E+00 -0.00000000000E+00 -0.55183273227E+03  0.55183273227E+03  0.00000000000E+00 0. -1.
      99926    2    1    2    0    0 -0.17763568394E-14  0.00000000000E+00 -0.45751587558E+03  0.64614958896E+03  0.45627679637E+03 0.  0.
      99925    2    3    3    0    0 -0.14502103301E+02  0.98059331399E+02 -0.20700025212E+03  0.34911166348E+03  0.26306635232E+03 0.  0.
         25    1    4    4    0    0  0.55024078846E+01  0.76209356162E+01 -0.94925153461E+02  0.15731067355E+03  0.12509000000E+03 0.  0.
         25    1    3    3    0    0  0.14502103301E+02 -0.98059331399E+02 -0.25051562346E+03  0.29703792548E+03  0.12509000000E+03 0.  0.
         25    1    4    4    0    0 -0.20004511186E+02  0.90438395783E+02 -0.11207509865E+03  0.19180098993E+03  0.12509000000E+03 0.  0.
<mgrwt>
<rscale>  2 0.45627680E+03</rscale>
<asrwt>0</asrwt>
<pdfrwt beam="1">  1       21 0.13870126E-01 0.45627680E+03</pdfrwt>
<pdfrwt beam="2">  1       21 0.81151872E-01 0.45627680E+03</pdfrwt>
<totfact> 0.55364010E+04</totfact>
</mgrwt>
</event>
<event>
 7    0  0.4775379E-002  0.4525100E+03  0.7546771E-02  0.1026976E+00
         21   -1    0    0  502  501  0.00000000000E+00  0.00000000000E+00  0.81941279431E+03  0.81941279431E+03  0.00000000000E+00 0.  1.
         21   -1    0    0  501  502 -0.00000000000E+00 -0.00000000000E+00 -0.62473192996E+02  0.62473192996E+02  0.00000000000E+00 0.  1.
      99926    2    1    2    0    0  0.00000000000E+00 -0.22204460493E-15  0.75693960132E+03  0.88188598731E+03  0.45251003809E+03 0.  0.
      99925    2    3    3    0    0  0.54542419730E+02 -0.34989082936E+00  0.66538585082E+03  0.71755523759E+03  0.26300606560E+03 0.  0.
         25    1    4    4    0    0  0.23920762462E+02  0.40254129863E+02  0.32931663854E+03  0.35537241644E+03  0.12509000000E+03 0.  0.
         25    1    4    4    0    0  0.30621657268E+02 -0.40604020692E+02  0.33606921228E+03  0.36218282114E+03  0.12509000000E+03 0.  0.
         25    1    3    3    0    0 -0.54542419730E+02  0.34989082936E+00  0.91553750492E+02  0.16433074972E+03  0.12509000000E+03 0.  0.
<mgrwt>
<rscale>  2 0.45251004E+03</rscale>
<asrwt>0</asrwt>
<pdfrwt beam="1">  1       21 0.12050188E+00 0.45251004E+03</pdfrwt>
<pdfrwt beam="2">  1       21 0.91872348E-02 0.45251004E+03</pdfrwt>
<totfact> 0.44895266E+04</totfact>
</mgrwt>
</event>
<event>
 7    0  0.4775379E-002  0.4590275E+03  0.7546771E-02  0.1025064E+00
         21   -1    0    0  502  501  0.00000000000E+00  0.00000000000E+00  0.25706603290E+03  0.25706603290E+03  0.00000000000E+00 0.  1.
         21   -1    0    0  501  502 -0.00000000000E+00 -0.00000000000E+00 -0.20491447496E+03  0.20491447496E+03  0.00000000000E+00 0.  1.
      99926    2    1    2    0    0  0.00000000000E+00  0.00000000000E+00  0.52151557947E+02  0.46198050786E+03  0.45902745522E+03 0.  0.
      99925    2    3    3    0    0  0.64488512133E+02  0.88967191365E+02  0.72454618121E+02  0.29424961718E+03  0.26317149577E+03 0.  0.
         25    1    3    3    0    0 -0.64488512133E+02 -0.88967191365E+02 -0.20303060174E+02  0.16773089068E+03  0.12509000000E+03 0.  0.
         25    1    4    4    0    0 -0.96493754122E+01  0.38284648151E+02  0.35371402928E+02  0.13585826797E+03  0.12509000000E+03 0.  0.
         25    1    4    4    0    0  0.74137887545E+02  0.50682543214E+02  0.37083215193E+02  0.15839134921E+03  0.12509000000E+03 0.  0.
<mgrwt>
<rscale>  2 0.45902746E+03</rscale>
<asrwt>0</asrwt>
<pdfrwt beam="1">  1       21 0.37803828E-01 0.45902746E+03</pdfrwt>
<pdfrwt beam="2">  1       21 0.30134482E-01 0.45902746E+03</pdfrwt>
<totfact> 0.65894360E+04</totfact>
</mgrwt>
</event>
<event>
 7    0  0.4775379E-002  0.4671296E+03  0.7546771E-02  0.1022733E+00
         21   -1    0    0  502  501  0.00000000000E+00  0.00000000000E+00  0.52207993206E+02  0.52207993206E+02  0.00000000000E+00 0. -1.
         21   -1    0    0  501  502 -0.00000000000E+00 -0.00000000000E+00 -0.10449073385E+04  0.10449073385E+04  0.00000000000E+00 0. -1.
      99926    2    1    2    0    0  0.71054273576E-14  0.00000000000E+00 -0.99269934528E+03  0.10971153317E+04  0.46712959756E+03 0.  0.
      99925    2    3    3    0    0 -0.55439524533E+02  0.20347406473E+02 -0.87470309667E+03  0.91529624409E+03  0.26300978935E+03 0.  0.
         25    1    3    3    0    0  0.55439524533E+02 -0.20347406473E+02 -0.11799624862E+03  0.18181908761E+03  0.12509000000E+03 0.  0.
         25    1    4    4    0    0 -0.50828735687E+01  0.16508867059E+02 -0.31062103050E+03  0.33530778545E+03  0.12509000000E+03 0.  0.
         25    1    4    4    0    0 -0.50356650964E+02  0.38385394140E+01 -0.56408206617E+03  0.57998845864E+03  0.12509000000E+03 0.  0.
<mgrwt>
<rscale>  2 0.46712960E+03</rscale>
<asrwt>0</asrwt>
<pdfrwt beam="1">  1       21 0.76776463E-02 0.46712960E+03</pdfrwt>
<pdfrwt beam="2">  1       21 0.15366284E+00 0.46712960E+03</pdfrwt>
<totfact> 0.32416555E+04</totfact>
</mgrwt>
</event>
<event>
 7    0  0.4775379E-002  0.4546577E+03  0.7546771E-02  0.1026342E+00
         21   -1    0    0  502  501  0.00000000000E+00  0.00000000000E+00  0.21884140107E+03  0.21884140107E+03  0.00000000000E+00 0. -1.
         21   -1    0    0  501  502 -0.00000000000E+00 -0.00000000000E+00 -0.23614549027E+03  0.23614549027E+03  0.00000000000E+00 0. -1.
      99926    2    1    2    0    0  0.00000000000E+00  0.00000000000E+00 -0.17304089198E+02  0.45498689134E+03  0.45465771717E+03 0.  0.
      99925    2    3    3    0    0 -0.80127995057E+01 -0.24692612350E+02 -0.12071282690E+03  0.29062507949E+03  0.26309203749E+03 0.  0.
         25    1    3    3    0    0  0.80127995057E+01  0.24692612350E+02  0.10340873770E+03  0.16436181185E+03  0.12509000000E+03 0.  0.
         25    1    4    4    0    0 -0.19496066771E+01 -0.27784134391E+02 -0.19616613825E+02  0.12964597459E+03  0.12509000000E+03 0.  0.
         25    1    4    4    0    0 -0.60631928287E+01  0.30915220408E+01 -0.10109621307E+03  0.16097910490E+03  0.12509000000E+03 0.  0.
<mgrwt>
<rscale>  2 0.45465772E+03</rscale>
<asrwt>0</asrwt>
<pdfrwt beam="1">  1       21 0.32182559E-01 0.45465772E+03</pdfrwt>
<pdfrwt beam="2">  1       21 0.34727278E-01 0.45465772E+03</pdfrwt>
<totfact> 0.68734294E+04</totfact>
</mgrwt>
</event>
<event>
 7    0  0.4775379E-002  0.4563838E+03  0.7546771E-02  0.1025835E+00
         21   -1    0    0  502  501  0.00000000000E+00  0.00000000000E+00  0.13808515132E+04  0.13808515132E+04  0.00000000000E+00 0.  1.
         21   -1    0    0  501  502 -0.00000000000E+00 -0.00000000000E+00 -0.37709737400E+02  0.37709737400E+02  0.00000000000E+00 0.  1.
      99926    2    1    2    0    0 -0.14210854715E-13  0.00000000000E+00  0.13431417758E+04  0.14185612506E+04  0.45638382071E+03 0.  0.
      99925    2    3    3    0    0  0.74579809103E+02 -0.82353169326E+02  0.75886437993E+03  0.81080161403E+03  0.26302075538E+03 0.  0.
         25    1    3    3    0    0 -0.74579809103E+02  0.82353169326E+02  0.58427739589E+03  0.60775963659E+03  0.12509000000E+03 0.  0.
         25    1    4    4    0    0  0.41134292182E+01 -0.61344909473E+02  0.33729749826E+03  0.36496195507E+03  0.12509000000E+03 0.  0.
         25    1    4    4    0    0  0.70466379885E+02 -0.21008259852E+02  0.42156688167E+03  0.44583965895E+03  0.12509000000E+03 0.  0.
<mgrwt>
<rscale>  2 0.45638382E+03</rscale>
<asrwt>0</asrwt>
<pdfrwt beam="1">  1       21 0.20306637E+00 0.45638382E+03</pdfrwt>
<pdfrwt beam="2">  1       21 0.55455505E-02 0.45638382E+03</pdfrwt>
<totfact> 0.25565553E+04</totfact>
</mgrwt>
</event>
<event>
 7    0  0.4775379E-002  0.4461210E+03  0.7546771E-02  0.1028885E+00
         21   -1    0    0  502  501  0.00000000000E+00  0.00000000000E+00  0.78643414967E+03  0.78643414967E+03  0.00000000000E+00 0. -1.
         21   -1    0    0  501  502 -0.00000000000E+00 -0.00000000000E+00 -0.63267834512E+02  0.63267834512E+02  0.00000000000E+00 0. -1.
      99926    2    1    2    0    0  0.00000000000E+00  0.17763568394E-14  0.72316631516E+03  0.84970198418E+03  0.44612099541E+03 0.  0.
      99925    2    3    3    0    0  0.92324494516E+01 -0.15898762119E+02  0.26651466324E+03  0.37587052886E+03  0.26440608915E+03 0.  0.
         25    1    4    4    0    0 -0.91949527020E+01  0.85349957289E+01  0.79292439904E+02  0.14863442546E+03  0.12509000000E+03 0.  0.
         25    1    4    4    0    0  0.18427402154E+02 -0.24433757848E+02  0.18722222334E+03  0.22723610339E+03  0.12509000000E+03 0.  0.
         25    1    3    3    0    0 -0.92324494516E+01  0.15898762119E+02  0.45665165192E+03  0.47383145533E+03  0.12509000000E+03 0.  0.
<mgrwt>
<rscale>  2 0.44612100E+03</rscale>
<asrwt>0</asrwt>
<pdfrwt beam="1">  1       21 0.11565208E+00 0.44612100E+03</pdfrwt>
<pdfrwt beam="2">  1       21 0.93040938E-02 0.44612100E+03</pdfrwt>
<totfact> 0.48761266E+04</totfact>
</mgrwt>
</event>
<event>
 7    0  0.4775379E-002  0.4568305E+03  0.7546771E-02  0.1025704E+00
         21   -1    0    0  502  501  0.00000000000E+00  0.00000000000E+00  0.24836407079E+03  0.24836407079E+03  0.00000000000E+00 0. -1.
         21   -1    0    0  501  502 -0.00000000000E+00 -0.00000000000E+00 -0.21006873716E+03  0.21006873716E+03  0.00000000000E+00 0. -1.
      99926    2    1    2    0    0  0.00000000000E+00  0.14210854715E-13  0.38295333626E+02  0.45843280795E+03  0.45683050120E+03 0.  0.
      99925    2    3    3    0    0 -0.19116012546E+02  0.78521766846E+02  0.10602573232E+03  0.29482961480E+03  0.26296759504E+03 0.  0.
         25    1    3    3    0    0  0.19116012546E+02 -0.78521766846E+02 -0.67730398693E+02  0.16360319316E+03  0.12509000000E+03 0.  0.
         25    1    4    4    0    0 -0.49737265145E+02  0.44723026967E+02  0.50510973701E+02  0.15057493566E+03  0.12509000000E+03 0.  0.
         25    1    4    4    0    0  0.30621252599E+02  0.33798739879E+02  0.55514758617E+02  0.14425467914E+03  0.12509000000E+03 0.  0.
<mgrwt>
<rscale>  2 0.45683050E+03</rscale>
<asrwt>0</asrwt>
<pdfrwt beam="1">  1       21 0.36524128E-01 0.45683050E+03</pdfrwt>
<pdfrwt beam="2">  1       21 0.30892461E-01 0.45683050E+03</pdfrwt>
<totfact> 0.67306667E+04</totfact>
</mgrwt>
</event>
<event>
 7    0  0.4775379E-002  0.4527245E+03  0.7546771E-02  0.1026913E+00
         21   -1    0    0  502  501  0.00000000000E+00  0.00000000000E+00  0.37427294298E+02  0.37427294298E+02  0.00000000000E+00 0.  1.
         21   -1    0    0  501  502 -0.00000000000E+00 -0.00000000000E+00 -0.13690509766E+04  0.13690509766E+04  0.00000000000E+00 0.  1.
      99926    2    1    2    0    0  0.00000000000E+00 -0.14210854715E-13 -0.13316236823E+04  0.14064782709E+04  0.45272452468E+03 0.  0.
      99925    2    3    3    0    0 -0.69303444706E+02 -0.86710682327E+02 -0.82876826050E+03  0.87654167732E+03  0.26295773917E+03 0.  0.
         25    1    3    3    0    0  0.69303444706E+02  0.86710682327E+02 -0.50285542182E+03  0.52993659359E+03  0.12509000000E+03 0.  0.
         25    1    4    4    0    0 -0.59612160120E+02 -0.29712258175E+02 -0.50861822923E+03  0.52799284004E+03  0.12509000000E+03 0.  0.
         25    1    4    4    0    0 -0.96912845869E+01 -0.56998424151E+02 -0.32015003126E+03  0.34854883728E+03  0.12509000000E+03 0.  0.
<mgrwt>
<rscale>  2 0.45272452E+03</rscale>
<asrwt>0</asrwt>
<pdfrwt beam="1">  1       21 0.55040143E-02 0.45272452E+03</pdfrwt>
<pdfrwt beam="2">  1       21 0.20133101E+00 0.45272452E+03</pdfrwt>
<totfact> 0.26627625E+04</totfact>
</mgrwt>
</event>
<event>
 7    0  0.4775379E-002  0.4525155E+03  0.7546771E-02  0.1026975E+00
         21   -1    0    0  502  501  0.00000000000E+00  0.00000000000E+00  0.19644362488E+03  0.19644362488E+03  0.00000000000E+00 0. -1.
         21   -1    0    0  501  502 -0.00000000000E+00 -0.00000000000E+00 -0.26059680260E+03  0.26059680260E+03  0.00000000000E+00 0. -1.
      99926    2    1    2    0    0  0.00000000000E+00  0.17763568394E-14 -0.64153177717E+02  0.45704042748E+03  0.45251554906E+03 0.  0.
      99925    2    3    3    0    0  0.74634631548E+02 -0.55516575955E+01  0.42104158829E+02  0.27665395681E+03  0.26298954828E+03 0.  0.
         25    1    4    4    0    0  0.14812641615E+02  0.27104333112E+02  0.37232115699E+02  0.13411859589E+03  0.12509000000E+03 0.  0.
         25    1    4    4    0    0  0.59821989933E+02 -0.32655990708E+02  0.48720431305E+01  0.14253536092E+03  0.12509000000E+03 0.  0.
         25    1    3    3    0    0 -0.74634631548E+02  0.55516575955E+01 -0.10625733655E+03  0.18038647066E+03  0.12509000000E+03 0.  0.
<mgrwt>
<rscale>  2 0.45251555E+03</rscale>
<asrwt>0</asrwt>
<pdfrwt beam="1">  1       21 0.28888769E-01 0.45251555E+03</pdfrwt>
<pdfrwt beam="2">  1       21 0.38323059E-01 0.45251555E+03</pdfrwt>
<totfact> 0.69768907E+04</totfact>
</mgrwt>
</event>
<event>
 7    0  0.4775379E-002  0.4502527E+03  0.7546771E-02  0.1027647E+00
         21   -1    0    0  502  501  0.00000000000E+00  0.00000000000E+00  0.43755994257E+03  0.43755994257E+03  0.00000000000E+00 0. -1.
         21   -1    0    0  501  502 -0.00000000000E+00 -0.00000000000E+00 -0.11582842599E+03  0.11582842599E+03  0.00000000000E+00 0. -1.
      99926    2    1    2    0    0 -0.14210854715E-13  0.00000000000E+00  0.32173151658E+03  0.55338836856E+03  0.45025272647E+03 0.  0.
      99925    2    3    3    0    0  0.79955537013E+02  0.20342242537E+02  0.29026954703E+03  0.40027384162E+03  0.26297536695E+03 0.  0.
         25    1    3    3    0    0 -0.79955537013E+02 -0.20342242537E+02  0.31461969547E+02  0.15311452693E+03  0.12509000000E+03 0.  0.
         25    1    4    4    0    0  0.18268536784E+02 -0.21147535424E+02  0.11249389773E+03  0.17053839104E+03  0.12509000000E+03 0.  0.
         25    1    4    4    0    0  0.61687000229E+02  0.41489777961E+02  0.17777564930E+03  0.22973545059E+03  0.12509000000E+03 0.  0.
<mgrwt>
<rscale>  2 0.45025273E+03</rscale>
<asrwt>0</asrwt>
<pdfrwt beam="1">  1       21 0.64347050E-01 0.45025273E+03</pdfrwt>
<pdfrwt beam="2">  1       21 0.17033592E-01 0.45025273E+03</pdfrwt>
<totfact> 0.64013619E+04</totfact>
</mgrwt>
</event>
<event>
 7    0  0.4775379E-002  0.4673780E+03  0.7546771E-02  0.1022663E+00
         21   -1    0    0  502  501  0.00000000000E+00  0.00000000000E+00  0.15344511085E+04  0.15344511085E+04  0.00000000000E+00 0.  1.
         21   -1    0    0  501  502 -0.00000000000E+00 -0.00000000000E+00 -0.35589634088E+02  0.35589634088E+02  0.00000000000E+00 0.  1.
      99926    2    1    2    0    0  0.14210854715E-13  0.00000000000E+00  0.14988614744E+04  0.15700407426E+04  0.46737802036E+03 0.  0.
      99925    2    3    3    0    0  0.10933444937E+03  0.21267257578E+02  0.74563524974E+03  0.79841675923E+03  0.26285181699E+03 0.  0.
         25    1    4    4    0    0  0.24701281996E+02  0.37936634177E+02  0.37172269271E+03  0.39480958692E+03  0.12509000000E+03 0.  0.
         25    1    4    4    0    0  0.84633167377E+02 -0.16669376599E+02  0.37391255703E+03  0.40360717231E+03  0.12509000000E+03 0.  0.
         25    1    3    3    0    0 -0.10933444937E+03 -0.21267257578E+02  0.75322622470E+03  0.77162398339E+03  0.12509000000E+03 0.  0.
<mgrwt>
<rscale>  2 0.46737802E+03</rscale>
<asrwt>0</asrwt>
<pdfrwt beam="1">  1       21 0.22565453E+00 0.46737802E+03</pdfrwt>
<pdfrwt beam="2">  1       21 0.52337707E-02 0.46737802E+03</pdfrwt>
<totfact> 0.20109914E+04</totfact>
</mgrwt>
</event>
<event>
 7    0  0.4775379E-002  0.4533943E+03  0.7546771E-02  0.1026715E+00
         21   -1    0    0  502  501  0.00000000000E+00  0.00000000000E+00  0.77393739272E+03  0.77393739272E+03  0.00000000000E+00 0.  1.
         21   -1    0    0  501  502 -0.00000000000E+00 -0.00000000000E+00 -0.66402783785E+02  0.66402783785E+02  0.00000000000E+00 0.  1.
      99926    2    1    2    0    0  0.17763568394E-14 -0.14210854715E-13  0.70753460893E+03  0.84034017650E+03  0.45339429794E+03 0.  0.
      99925    2    3    3    0    0  0.40578629179E+01  0.10802177589E+03  0.39477786268E+03  0.48657547964E+03  0.26309877652E+03 0.  0.
         25    1    4    4    0    0  0.38592122792E+02  0.35107996903E+02  0.18335209188E+03  0.22800750226E+03  0.12509000000E+03 0.  0.
         25    1    3    3    0    0 -0.40578629179E+01 -0.10802177589E+03  0.31275674625E+03  0.35376469686E+03  0.12509000000E+03 0.  0.
         25    1    4    4    0    0 -0.34534259874E+02  0.72913778989E+02  0.21142577080E+03  0.25856797739E+03  0.12509000000E+03 0.  0.
<mgrwt>
<rscale>  2 0.45339430E+03</rscale>
<asrwt>0</asrwt>
<pdfrwt beam="1">  1       21 0.11381432E+00 0.45339430E+03</pdfrwt>
<pdfrwt beam="2">  1       21 0.97651157E-02 0.45339430E+03</pdfrwt>
<totfact> 0.46457109E+04</totfact>
</mgrwt>
</event>
<event>
 7    0  0.4775379E-002  0.4570818E+03  0.7546771E-02  0.1025631E+00
         21   -1    0    0  502  501  0.00000000000E+00  0.00000000000E+00  0.22554493394E+03  0.22554493394E+03  0.00000000000E+00 0. -1.
         21   -1    0    0  501  502 -0.00000000000E+00 -0.00000000000E+00 -0.23157668086E+03  0.23157668086E+03  0.00000000000E+00 0. -1.
      99926    2    1    2    0    0 -0.14210854715E-13  0.00000000000E+00 -0.60317469205E+01  0.45712161481E+03  0.45708181845E+03 0.  0.
      99925    2    3    3    0    0 -0.91596456216E+02 -0.52599088238E+02  0.41829436704E+02  0.28654970659E+03  0.26306740143E+03 0.  0.
         25    1    3    3    0    0  0.91596456216E+02  0.52599088238E+02 -0.47861183624E+02  0.17057190822E+03  0.12509000000E+03 0.  0.
         25    1    4    4    0    0 -0.50691331093E+02  0.89190817192E+01 -0.37984832247E+00  0.13526571425E+03  0.12509000000E+03 0.  0.
         25    1    4    4    0    0 -0.40905125123E+02 -0.61518169958E+02  0.42209285026E+02  0.15128399234E+03  0.12509000000E+03 0.  0.
<mgrwt>
<rscale>  2 0.45708182E+03</rscale>
<asrwt>0</asrwt>
<pdfrwt beam="1">  1       21 0.33168373E-01 0.45708182E+03</pdfrwt>
<pdfrwt beam="2">  1       21 0.34055394E-01 0.45708182E+03</pdfrwt>
<totfact> 0.67266337E+04</totfact>
</mgrwt>
</event>
<event>
 7    0  0.4775379E-002  0.4511439E+03  0.7546771E-02  0.1027381E+00
         21   -1    0    0  502  501  0.00000000000E+00  0.00000000000E+00  0.67215619938E+02  0.67215619938E+02  0.00000000000E+00 0. -1.
         21   -1    0    0  501  502 -0.00000000000E+00 -0.00000000000E+00 -0.75700715736E+03  0.75700715736E+03  0.00000000000E+00 0. -1.
      99926    2    1    2    0    0 -0.71054273576E-14 -0.17763568394E-14 -0.68979153743E+03  0.82422277730E+03  0.45114390334E+03 0.  0.
      99925    2    3    3    0    0  0.53293329438E+02  0.51640245919E+01 -0.61012379391E+03  0.66654810093E+03  0.26299901300E+03 0.  0.
         25    1    4    4    0    0  0.81260108232E+01 -0.29600417667E+02 -0.25341639583E+03  0.28427028433E+03  0.12509000000E+03 0.  0.
         25    1    4    4    0    0  0.45167318615E+02  0.34764442259E+02 -0.35670739808E+03  0.38227781660E+03  0.12509000000E+03 0.  0.
         25    1    3    3    0    0 -0.53293329438E+02 -0.51640245919E+01 -0.79667743513E+02  0.15767467637E+03  0.12509000000E+03 0.  0.
<mgrwt>
<rscale>  2 0.45114390E+03</rscale>
<asrwt>0</asrwt>
<pdfrwt beam="1">  1       21 0.98846505E-02 0.45114390E+03</pdfrwt>
<pdfrwt beam="2">  1       21 0.11132458E+00 0.45114390E+03</pdfrwt>
<totfact> 0.48052902E+04</totfact>
</mgrwt>
</event>
<event>
 7    0  0.4775379E-002  0.4576469E+03  0.7546771E-02  0.1025466E+00
         21   -1    0    0  502  501  0.00000000000E+00  0.00000000000E+00  0.20284206161E+03  0.20284206161E+03  0.00000000000E+00 0. -1.
         21   -1    0    0  501  502 -0.00000000000E+00 -0.00000000000E+00 -0.25813274288E+03  0.25813274288E+03  0.00000000000E+00 0. -1.
      99926    2    1    2    0    0 -0.10824674490E-14  0.14210854715E-13 -0.55290681269E+02  0.46097480450E+03  0.45764692826E+03 0.  0.
      99925    2    3    3    0    0 -0.18398384637E+00  0.90078435286E+02  0.38818276101E+02  0.28036981478E+03  0.26265227226E+03 0.  0.
         25    1    4    4    0    0  0.31312842682E+02  0.63439221807E+02  0.24740167790E+01  0.14373119995E+03  0.12509000000E+03 0.  0.
         25    1    3    3    0    0  0.18398384637E+00 -0.90078435286E+02 -0.94108957370E+02  0.18060498972E+03  0.12509000000E+03 0.  0.
         25    1    4    4    0    0 -0.31496826528E+02  0.26639213479E+02  0.36344259322E+02  0.13663861483E+03  0.12509000000E+03 0.  0.
<mgrwt>
<rscale>  2 0.45764693E+03</rscale>
<asrwt>0</asrwt>
<pdfrwt beam="1">  1       21 0.29829715E-01 0.45764693E+03</pdfrwt>
<pdfrwt beam="2">  1       21 0.37960697E-01 0.45764693E+03</pdfrwt>
<totfact> 0.66690601E+04</totfact>
</mgrwt>
</event>
<event>
 7    0  0.4775379E-002  0.4579049E+03  0.7546771E-02  0.1025391E+00
         21   -1    0    0  502  501  0.00000000000E+00  0.00000000000E+00  0.84815388155E+02  0.84815388155E+02  0.00000000000E+00 0. -1.
         21   -1    0    0  501  502 -0.00000000000E+00 -0.00000000000E+00 -0.61803918873E+03  0.61803918873E+03  0.00000000000E+00 0. -1.
      99926    2    1    2    0    0  0.00000000000E+00  0.00000000000E+00 -0.53322380058E+03  0.70285457689E+03  0.45790494074E+03 0.  0.
      99925    2    3    3    0    0  0.55223886060E+02  0.91513150488E+02 -0.40354065313E+03  0.49335622096E+03  0.26292768536E+03 0.  0.
         25    1    4    4    0    0 -0.68206537685E+01  0.56949353399E+02 -0.22913915297E+03  0.26728638142E+03  0.12509000000E+03 0.  0.
         25    1    4    4    0    0  0.62044539828E+02  0.34563797089E+02 -0.17440150016E+03  0.22606983954E+03  0.12509000000E+03 0.  0.
         25    1    3    3    0    0 -0.55223886060E+02 -0.91513150488E+02 -0.12968314745E+03  0.20949835593E+03  0.12509000000E+03 0.  0.
<mgrwt>
<rscale>  2 0.45790494E+03</rscale>
<asrwt>0</asrwt>
<pdfrwt beam="1">  1       21 0.12472851E-01 0.45790494E+03</pdfrwt>
<pdfrwt beam="2">  1       21 0.90888115E-01 0.45790494E+03</pdfrwt>
<totfact> 0.51559460E+04</totfact>
</mgrwt>
</event>
<event>
 7    0  0.4775379E-002  0.4689978E+03  0.7546771E-02  0.1022203E+00
         21   -1    0    0  502  501  0.00000000000E+00  0.00000000000E+00  0.17084192514E+03  0.17084192514E+03  0.00000000000E+00 0. -1.
         21   -1    0    0  501  502 -0.00000000000E+00 -0.00000000000E+00 -0.32187495606E+03  0.32187495606E+03  0.00000000000E+00 0. -1.
      99926    2    1    2    0    0  0.49960036108E-14  0.14210854715E-13 -0.15103303092E+03  0.49271688121E+03  0.46899781300E+03 0.  0.
      99925    2    3    3    0    0 -0.91776325756E+00 -0.99784266243E+02 -0.17455802710E+03  0.33098044244E+03  0.26290645936E+03 0.  0.
         25    1    4    4    0    0 -0.38402625845E+02 -0.36902023359E+02 -0.92310206684E+02  0.16433259980E+03  0.12509000000E+03 0.  0.
         25    1    4    4    0    0  0.37484862588E+02 -0.62882242884E+02 -0.82247820417E+02  0.16664784264E+03  0.12509000000E+03 0.  0.
         25    1    3    3    0    0  0.91776325756E+00  0.99784266243E+02  0.23524996180E+02  0.16173643877E+03  0.12509000000E+03 0.  0.
<mgrwt>
<rscale>  2 0.46899781E+03</rscale>
<asrwt>0</asrwt>
<pdfrwt beam="1">  1       21 0.25123812E-01 0.46899781E+03</pdfrwt>
<pdfrwt beam="2">  1       21 0.47334552E-01 0.46899781E+03</pdfrwt>
<totfact> 0.58956884E+04</totfact>
</mgrwt>
</event>
<event>
 6    0  0.4775379E-002  0.4581081E+03  0.7546771E-02  0.1025331E+00
         21   -1    0    0  502  501  0.00000000000E+00  0.00000000000E+00  0.29559828518E+02  0.29559828518E+02  0.00000000000E+00 0. -1.
         21   -1    0    0  501  502 -0.00000000000E+00 -0.00000000000E+00 -0.17749009737E+04  0.17749009737E+04  0.00000000000E+00 0. -1.
      99926    2    1    2    0    0 -0.35527136788E-14 -0.44408920985E-15 -0.17453411452E+04  0.18044608022E+04  0.45810814627E+03 0.  0.
         25    1    3    3    0    0 -0.18464269428E+01  0.13327488648E+02 -0.57737958415E+03  0.59092784969E+03  0.12509000000E+03 0.  0.
         25    1    3    3    0    0  0.30441301487E+02 -0.15473025028E+02 -0.96312543978E+03  0.97181490428E+03  0.12509000000E+03 0.  0.
         25    1    3    3    0    0 -0.28594874544E+02  0.21455363802E+01 -0.20483612125E+03  0.24171804824E+03  0.12509000000E+03 0.  0.
<mgrwt>
<rscale>  2 0.45810815E+03</rscale>
<asrwt>0</asrwt>
<pdfrwt beam="1">  1       21 0.43470332E-02 0.45810815E+03</pdfrwt>
<pdfrwt beam="2">  1       21 0.26101487E+00 0.45810815E+03</pdfrwt>
<totfact> 0.16765673E+04</totfact>
</mgrwt>
</event>
<event>
 7    0  0.4775379E-002  0.4590241E+03  0.7546771E-02  0.1025065E+00
         21   -1    0    0  502  501  0.00000000000E+00  0.00000000000E+00  0.13533269022E+03  0.13533269022E+03  0.00000000000E+00 0.  1.
         21   -1    0    0  501  502 -0.00000000000E+00 -0.00000000000E+00 -0.38923180043E+03  0.38923180043E+03  0.00000000000E+00 0.  1.
      99926    2    1    2    0    0  0.00000000000E+00  0.00000000000E+00 -0.25389911021E+03  0.52456449066E+03  0.45902412430E+03 0.  0.
      99925    2    3    3    0    0  0.90612996028E+02  0.47270196471E+02 -0.22390544588E+03  0.36027111123E+03  0.26309017155E+03 0.  0.
         25    1    3    3    0    0 -0.90612996028E+02 -0.47270196471E+02 -0.29993664337E+02  0.16429337943E+03  0.12509000000E+03 0.  0.
         25    1    4    4    0    0  0.26483128767E+02 -0.92162630255E+01 -0.78697719408E+02  0.15042318556E+03  0.12509000000E+03 0.  0.
         25    1    4    4    0    0  0.64129867261E+02  0.56486459497E+02 -0.14520772647E+03  0.20984792567E+03  0.12509000000E+03 0.  0.
<mgrwt>
<rscale>  2 0.45902412E+03</rscale>
<asrwt>0</asrwt>
<pdfrwt beam="1">  1       21 0.19901866E-01 0.45902412E+03</pdfrwt>
<pdfrwt beam="2">  1       21 0.57239970E-01 0.45902412E+03</pdfrwt>
<totfact> 0.61587517E+04</totfact>
</mgrwt>
</event>
<event>
 7    0  0.4775379E-002  0.4552193E+03  0.7546771E-02  0.1026177E+00
         21   -1    0    0  502  501  0.00000000000E+00  0.00000000000E+00  0.30560835531E+03  0.30560835531E+03  0.00000000000E+00 0.  1.
         21   -1    0    0  501  502 -0.00000000000E+00 -0.00000000000E+00 -0.16951810301E+03  0.16951810301E+03  0.00000000000E+00 0.  1.
      99926    2    1    2    0    0  0.00000000000E+00  0.17763568394E-14  0.13609025230E+03  0.47512645832E+03  0.45521928191E+03 0.  0.
      99925    2    3    3    0    0 -0.11304285807E+03 -0.89716585065E+01  0.80994346098E+02  0.29752509178E+03  0.26287243621E+03 0.  0.
         25    1    3    3    0    0  0.11304285807E+03  0.89716585065E+01  0.55095906207E+02  0.17760136654E+03  0.12509000000E+03 0.  0.
         25    1    4    4    0    0 -0.31010204860E+02 -0.33252009029E+01  0.71758719040E+02  0.14754494781E+03  0.12509000000E+03 0.  0.
         25    1    4    4    0    0 -0.82032653212E+02 -0.56464576036E+01  0.92356270580E+01  0.14998014396E+03  0.12509000000E+03 0.  0.
<mgrwt>
<rscale>  2 0.45521928E+03</rscale>
<asrwt>0</asrwt>
<pdfrwt beam="1">  1       21 0.44942405E-01 0.45521928E+03</pdfrwt>
<pdfrwt beam="2">  1       21 0.24929133E-01 0.45521928E+03</pdfrwt>
<totfact> 0.66940047E+04</totfact>
</mgrwt>
</event>
<event>
 7    0  0.4775379E-002  0.4549643E+03  0.7546771E-02  0.1026252E+00
         21   -1    0    0  502  501  0.00000000000E+00  0.00000000000E+00  0.82558961683E+03  0.82558961683E+03  0.00000000000E+00 0. -1.
         21   -1    0    0  501  502 -0.00000000000E+00 -0.00000000000E+00 -0.62680201375E+02  0.62680201375E+02  0.00000000000E+00 0. -1.
      99926    2    1    2    0    0  0.00000000000E+00  0.00000000000E+00  0.76290941545E+03  0.88826981820E+03  0.45496427744E+03 0.  0.
      99925    2    3    3    0    0 -0.16325362523E+02 -0.28974552603E+02  0.26952900837E+03  0.37819357258E+03  0.26320799727E+03 0.  0.
         25    1    3    3    0    0  0.16325362523E+02  0.28974552603E+02  0.49338040708E+03  0.51007624562E+03  0.12509000000E+03 0.  0.
         25    1    4    4    0    0 -0.24943933503E+02 -0.51261628989E+02  0.15126531061E+03  0.20439827964E+03  0.12509000000E+03 0.  0.
         25    1    4    4    0    0  0.86185709799E+01  0.22287076386E+02  0.11826369776E+03  0.17379529294E+03  0.12509000000E+03 0.  0.
<mgrwt>
<rscale>  2 0.45496428E+03</rscale>
<asrwt>0</asrwt>
<pdfrwt beam="1">  1       21 0.12141023E+00 0.45496428E+03</pdfrwt>
<pdfrwt beam="2">  1       21 0.92176771E-02 0.45496428E+03</pdfrwt>
<totfact> 0.43756994E+04</totfact>
</mgrwt>
</event>
<event>
 7    0  0.4775379E-002  0.4779796E+03  0.7546771E-02  0.1019692E+00
         21   -1    0    0  502  501  0.00000000000E+00  0.00000000000E+00  0.33805473577E+03  0.33805473577E+03  0.00000000000E+00 0.  1.
         21   -1    0    0  501  502 -0.00000000000E+00 -0.00000000000E+00 -0.16895522106E+03  0.16895522106E+03  0.00000000000E+00 0.  1.
      99926    2    1    2    0    0  0.28865798640E-14  0.00000000000E+00  0.16909951470E+03  0.50700995683E+03  0.47797955024E+03 0.  0.
      99925    2    3    3    0    0  0.18591725240E+01 -0.10184135766E+03  0.19599459037E+03  0.34346799937E+03  0.26302332309E+03 0.  0.
         25    1    4    4    0    0  0.32271214204E+02 -0.71089672110E+02  0.12480699420E+03  0.19318246983E+03  0.12509000000E+03 0.  0.
         25    1    3    3    0    0 -0.18591725240E+01  0.10184135766E+03 -0.26895075664E+02  0.16354195745E+03  0.12509000000E+03 0.  0.
         25    1    4    4    0    0 -0.30412041680E+02 -0.30751685552E+02  0.71187596170E+02  0.15028552955E+03  0.12509000000E+03 0.  0.
<mgrwt>
<rscale>  2 0.47797955E+03</rscale>
<asrwt>0</asrwt>
<pdfrwt beam="1">  1       21 0.49713932E-01 0.47797955E+03</pdfrwt>
<pdfrwt beam="2">  1       21 0.24846356E-01 0.47797955E+03</pdfrwt>
<totfact> 0.54198574E+04</totfact>
</mgrwt>
</event>
<event>
 7    0  0.4775379E-002  0.4566087E+03  0.7546771E-02  0.1025769E+00
         21   -1    0    0  502  501  0.00000000000E+00  0.00000000000E+00  0.25205725975E+03  0.25205725975E+03  0.00000000000E+00 0.  1.
         21   -1    0    0  501  502 -0.00000000000E+00 -0.00000000000E+00 -0.20678982486E+03  0.20678982486E+03  0.00000000000E+00 0.  1.
      99926    2    1    2    0    0  0.00000000000E+00  0.00000000000E+00  0.45267434889E+02  0.45884708461E+03  0.45660870161E+03 0.  0.
      99925    2    3    3    0    0 -0.36957607428E+02 -0.25566442281E+02 -0.77619923771E+02  0.27782686823E+03  0.26295134232E+03 0.  0.
         25    1    4    4    0    0 -0.58290660747E+02 -0.62017866317E+01 -0.46295656184E+02  0.14569508972E+03  0.12509000000E+03 0.  0.
         25    1    4    4    0    0  0.21333053319E+02 -0.19364655649E+02 -0.31324267587E+02  0.13213177851E+03  0.12509000000E+03 0.  0.
         25    1    3    3    0    0  0.36957607428E+02  0.25566442281E+02  0.12288735866E+03  0.18102021637E+03  0.12509000000E+03 0.  0.
<mgrwt>
<rscale>  2 0.45660870E+03</rscale>
<asrwt>0</asrwt>
<pdfrwt beam="1">  1       21 0.37067244E-01 0.45660870E+03</pdfrwt>
<pdfrwt beam="2">  1       21 0.30410268E-01 0.45660870E+03</pdfrwt>
<totfact> 0.67395670E+04</totfact>
</mgrwt>
</event>
<event>
 7    0  0.4775379E-002  0.4533533E+03  0.7546771E-02  0.1026727E+00
         21   -1    0    0  502  501  0.00000000000E+00  0.00000000000E+00  0.30049826213E+03  0.30049826213E+03  0.00000000000E+00 0.  1.
         21   -1    0    0  501  502 -0.00000000000E+00 -0.00000000000E+00 -0.17099035305E+03  0.17099035305E+03  0.00000000000E+00 0.  1.
      99926    2    1    2    0    0  0.00000000000E+00  0.00000000000E+00  0.12950790908E+03  0.47148861518E+03  0.45335330122E+03 0.  0.
      99925    2    3    3    0    0  0.31987163514E+02 -0.86507951061E+02  0.16262359055E+02  0.27918971522E+03  0.26301260147E+03 0.  0.
         25    1    4    4    0    0 -0.14016373093E+02 -0.16792332922E+02 -0.60432114792E+01  0.12713170204E+03  0.12509000000E+03 0.  0.
         25    1    3    3    0    0 -0.31987163514E+02  0.86507951061E+02  0.11324555003E+03  0.19229889996E+03  0.12509000000E+03 0.  0.
         25    1    4    4    0    0  0.46003536607E+02 -0.69715618140E+02  0.22305570534E+02  0.15205801317E+03  0.12509000000E+03 0.  0.
<mgrwt>
<rscale>  2 0.45335330E+03</rscale>
<asrwt>0</asrwt>
<pdfrwt beam="1">  1       21 0.44190921E-01 0.45335330E+03</pdfrwt>
<pdfrwt beam="2">  1       21 0.25145640E-01 0.45335330E+03</pdfrwt>
<totfact> 0.68212050E+04</totfact>
</mgrwt>
</event>
<event>
 7    0  0.4775379E-002  0.4451853E+03  0.7546771E-02  0.1029168E+00
         21   -1    0    0  502  501  0.00000000000E+00  0.00000000000E+00  0.12143253696E+03  0.12143253696E+03  0.00000000000E+00 0. -1.
         21   -1    0    0  501  502 -0.00000000000E+00 -0.00000000000E+00 -0.40802484095E+03  0.40802484095E+03  0.00000000000E+00 0. -1.
      99926    2    1    2    0    0  0.00000000000E+00  0.00000000000E+00 -0.28659230399E+03  0.52945737791E+03  0.44518531682E+03 0.  0.
      99925    2    3    3    0    0 -0.59285031600E+02 -0.42298677216E+02 -0.26982009846E+03  0.38374290353E+03  0.26296736948E+03 0.  0.
         25    1    3    3    0    0  0.59285031600E+02  0.42298677216E+02 -0.16772205534E+02  0.14571447438E+03  0.12509000000E+03 0.  0.
         25    1    4    4    0    0 -0.64372753124E+01 -0.53554272189E+02 -0.12476136929E+03  0.18472251068E+03  0.12509000000E+03 0.  0.
         25    1    4    4    0    0 -0.52847756288E+02  0.11255594973E+02 -0.14505872917E+03  0.19902039285E+03  0.12509000000E+03 0.  0.
<mgrwt>
<rscale>  2 0.44518532E+03</rscale>
<asrwt>0</asrwt>
<pdfrwt beam="1">  1       21 0.17857727E-01 0.44518532E+03</pdfrwt>
<pdfrwt beam="2">  1       21 0.60003651E-01 0.44518532E+03</pdfrwt>
<totfact> 0.68406489E+04</totfact>
</mgrwt>
</event>
<event>
 7    0  0.4775379E-002  0.4582989E+03  0.7546771E-02  0.1025276E+00
         21   -1    0    0  502  501  0.00000000000E+00  0.00000000000E+00  0.65208271291E+03  0.65208271291E+03  0.00000000000E+00 0.  1.
         21   -1    0    0  501  502 -0.00000000000E+00 -0.00000000000E+00 -0.80525773878E+02  0.80525773878E+02  0.00000000000E+00 0.  1.
      99926    2    1    2    0    0  0.00000000000E+00  0.71054273576E-14  0.57155693904E+03  0.73260848679E+03  0.45829887667E+03 0.  0.
      99925    2    3    3    0    0  0.98904385747E+02  0.60997374659E+02  0.36388393536E+03  0.46376217048E+03  0.26298493327E+03 0.  0.
         25    1    4    4    0    0  0.38678354586E+02  0.47077788826E+02  0.23877380875E+03  0.27635624321E+03  0.12509000000E+03 0.  0.
         25    1    4    4    0    0  0.60226031161E+02  0.13919585833E+02  0.12511012660E+03  0.18740592727E+03  0.12509000000E+03 0.  0.
         25    1    3    3    0    0 -0.98904385747E+02 -0.60997374659E+02  0.20767300368E+03  0.26884631631E+03  0.12509000000E+03 0.  0.
<mgrwt>
<rscale>  2 0.45829888E+03</rscale>
<asrwt>0</asrwt>
<pdfrwt beam="1">  1       21 0.95894514E-01 0.45829888E+03</pdfrwt>
<pdfrwt beam="2">  1       21 0.11842026E-01 0.45829888E+03</pdfrwt>
<totfact> 0.49862036E+04</totfact>
</mgrwt>
</event>
<event>
 7    0  0.4775379E-002  0.4583357E+03  0.7546771E-02  0.1025265E+00
         21   -1    0    0  502  501  0.00000000000E+00  0.00000000000E+00  0.53406732591E+02  0.53406732591E+02  0.00000000000E+00 0.  1.
         21   -1    0    0  501  502 -0.00000000000E+00 -0.00000000000E+00 -0.98335739531E+03  0.98335739531E+03  0.00000000000E+00 0.  1.
      99926    2    1    2    0    0  0.35527136788E-14  0.00000000000E+00 -0.92995066272E+03  0.10367641279E+04  0.45833570864E+03 0.  0.
      99925    2    3    3    0    0  0.13399804066E+02 -0.11243534081E+03 -0.52378876256E+03  0.59695023788E+03  0.26300885558E+03 0.  0.
         25    1    4    4    0    0  0.44537474998E+02 -0.41089178379E+02 -0.25081712395E+03  0.28675537488E+03  0.12509000000E+03 0.  0.
         25    1    4    4    0    0 -0.31137670931E+02 -0.71346162433E+02 -0.27297163861E+03  0.31019486300E+03  0.12509000000E+03 0.  0.
         25    1    3    3    0    0 -0.13399804066E+02  0.11243534081E+03 -0.40616190016E+03  0.43981389002E+03  0.12509000000E+03 0.  0.
<mgrwt>
<rscale>  2 0.45833571E+03</rscale>
<asrwt>0</asrwt>
<pdfrwt beam="1">  1       21 0.78539309E-02 0.45833571E+03</pdfrwt>
<pdfrwt beam="2">  1       21 0.14461139E+00 0.45833571E+03</pdfrwt>
<totfact> 0.36799213E+04</totfact>
</mgrwt>
</event>
<event>
 7    0  0.4775379E-002  0.4537403E+03  0.7546771E-02  0.1026612E+00
         21   -1    0    0  502  501  0.00000000000E+00  0.00000000000E+00  0.22519643333E+02  0.22519643333E+02  0.00000000000E+00 0.  1.
         21   -1    0    0  501  502 -0.00000000000E+00 -0.00000000000E+00 -0.22855627490E+04  0.22855627490E+04  0.00000000000E+00 0.  1.
      99926    2    1    2    0    0  0.00000000000E+00  0.00000000000E+00 -0.22630431057E+04  0.23080823924E+04  0.45374026898E+03 0.  0.
      99925    2    3    3    0    0 -0.11019351372E+03  0.15202911774E+02 -0.13577891343E+04  0.13874815017E+04  0.26294456725E+03 0.  0.
         25    1    4    4    0    0 -0.82018570791E+02 -0.90614543151E+01 -0.85497251751E+03  0.86800614612E+03  0.12509000000E+03 0.  0.
         25    1    4    4    0    0 -0.28174942927E+02  0.24264366089E+02 -0.50281661677E+03  0.51947535559E+03  0.12509000000E+03 0.  0.
         25    1    3    3    0    0  0.11019351372E+03 -0.15202911774E+02 -0.90525397142E+03  0.92060089065E+03  0.12509000000E+03 0.  0.
<mgrwt>
<rscale>  2 0.45374027E+03</rscale>
<asrwt>0</asrwt>
<pdfrwt beam="1">  1       21 0.33117108E-02 0.45374027E+03</pdfrwt>
<pdfrwt beam="2">  1       21 0.33611232E+00 0.45374027E+03</pdfrwt>
<totfact> 0.93919999E+03</totfact>
</mgrwt>
</event>
<event>
 7    0  0.4775379E-002  0.4528990E+03  0.7546771E-02  0.1026861E+00
         21   -1    0    0  502  501  0.00000000000E+00  0.00000000000E+00  0.43913255058E+03  0.43913255058E+03  0.00000000000E+00 0. -1.
         21   -1    0    0  501  502 -0.00000000000E+00 -0.00000000000E+00 -0.11677424658E+03  0.11677424658E+03  0.00000000000E+00 0. -1.
      99926    2    1    2    0    0 -0.71054273576E-14  0.00000000000E+00  0.32235830400E+03  0.55590679716E+03  0.45289898539E+03 0.  0.
      99925    2    3    3    0    0 -0.63139466583E+02 -0.73990174334E+02  0.13758172612E+03  0.31249145259E+03  0.26317491986E+03 0.  0.
         25    1    3    3    0    0  0.63139466583E+02  0.73990174334E+02  0.18477657788E+03  0.24341534457E+03  0.12509000000E+03 0.  0.
         25    1    4    4    0    0 -0.68153741899E+02 -0.30403248917E+02  0.92149057371E+02  0.17236080458E+03  0.12509000000E+03 0.  0.
         25    1    4    4    0    0  0.50142753150E+01 -0.43586925416E+02  0.45432668753E+02  0.14013064802E+03  0.12509000000E+03 0.  0.
<mgrwt>
<rscale>  2 0.45289899E+03</rscale>
<asrwt>0</asrwt>
<pdfrwt beam="1">  1       21 0.64578316E-01 0.45289899E+03</pdfrwt>
<pdfrwt beam="2">  1       21 0.17172683E-01 0.45289899E+03</pdfrwt>
<totfact> 0.62510356E+04</totfact>
</mgrwt>
</event>
<event>
 7    0  0.4775379E-002  0.4844869E+03  0.7546771E-02  0.1017909E+00
         21   -1    0    0  502  501  0.00000000000E+00  0.00000000000E+00  0.70315895004E+03  0.70315895004E+03  0.00000000000E+00 0.  1.
         21   -1    0    0  501  502 -0.00000000000E+00 -0.00000000000E+00 -0.83454652371E+02  0.83454652371E+02  0.00000000000E+00 0.  1.
      99926    2    1    2    0    0  0.00000000000E+00  0.88817841970E-15  0.61970429767E+03  0.78661360241E+03  0.48448688625E+03 0.  0.
      99925    2    3    3    0    0 -0.10459443331E+03 -0.52337466220E+01  0.52920845288E+03  0.60005424562E+03  0.26274726164E+03 0.  0.
         25    1    4    4    0    0 -0.49899273855E+02  0.83782926755E+01  0.34434603348E+03  0.36984027930E+03  0.12509000000E+03 0.  0.
         25    1    3    3    0    0  0.10459443331E+03  0.52337466220E+01  0.90495844791E+02  0.18655935679E+03  0.12509000000E+03 0.  0.
         25    1    4    4    0    0 -0.54695159455E+02 -0.13612039298E+02  0.18486241940E+03  0.23021396632E+03  0.12509000000E+03 0.  0.
<mgrwt>
<rscale>  2 0.48448689E+03</rscale>
<asrwt>0</asrwt>
<pdfrwt beam="1">  1       21 0.10340572E+00 0.48448689E+03</pdfrwt>
<pdfrwt beam="2">  1       21 0.12272743E-01 0.48448689E+03</pdfrwt>
<totfact> 0.38663963E+04</totfact>
</mgrwt>
</event>
<event>
 7    0  0.4775379E-002  0.4562293E+03  0.7546771E-02  0.1025881E+00
         21   -1    0    0  502  501  0.00000000000E+00  0.00000000000E+00  0.11505768665E+03  0.11505768665E+03  0.00000000000E+00 0. -1.
         21   -1    0    0  501  502 -0.00000000000E+00 -0.00000000000E+00 -0.45226257299E+03  0.45226257299E+03  0.00000000000E+00 0. -1.
      99926    2    1    2    0    0 -0.14210854715E-13  0.00000000000E+00 -0.33720488634E+03  0.56732025964E+03  0.45622926432E+03 0.  0.
      99925    2    3    3    0    0  0.10495762313E+03  0.23324568062E+02 -0.16404787317E+03  0.32817386631E+03  0.26310880584E+03 0.  0.
         25    1    3    3    0    0 -0.10495762313E+03 -0.23324568062E+02 -0.17315701317E+03  0.23914639332E+03  0.12509000000E+03 0.  0.
         25    1    4    4    0    0  0.72081591347E+02 -0.16602992469E+01 -0.46671374170E+02  0.15173739708E+03  0.12509000000E+03 0.  0.
         25    1    4    4    0    0  0.32876031782E+02  0.24984867309E+02 -0.11737649900E+03  0.17643646924E+03  0.12509000000E+03 0.  0.
<mgrwt>
<rscale>  2 0.45622926E+03</rscale>
<asrwt>0</asrwt>
<pdfrwt beam="1">  1       21 0.16920248E-01 0.45622926E+03</pdfrwt>
<pdfrwt beam="2">  1       21 0.66509203E-01 0.45622926E+03</pdfrwt>
<totfact> 0.60149397E+04</totfact>
</mgrwt>
</event>
<event>
 7    0  0.4775379E-002  0.4513836E+03  0.7546771E-02  0.1027310E+00
         21   -1    0    0  502  501  0.00000000000E+00  0.00000000000E+00  0.58958811444E+03  0.58958811444E+03  0.00000000000E+00 0.  1.
         21   -1    0    0  501  502 -0.00000000000E+00 -0.00000000000E+00 -0.86393857596E+02  0.86393857596E+02  0.00000000000E+00 0.  1.
      99926    2    1    2    0    0 -0.14210854715E-13  0.00000000000E+00  0.50319425684E+03  0.67598197203E+03  0.45138361335E+03 0.  0.
      99925    2    3    3    0    0  0.76448480473E+02  0.75836235063E+02  0.29173634453E+03  0.40773309227E+03  0.26370565997E+03 0.  0.
         25    1    4    4    0    0  0.74170444196E+02  0.16627785696E+02  0.15401429073E+03  0.21247505241E+03  0.12509000000E+03 0.  0.
         25    1    3    3    0    0 -0.76448480473E+02 -0.75836235063E+02  0.21145791231E+03  0.26824887976E+03  0.12509000000E+03 0.  0.
         25    1    4    4    0    0  0.22780362766E+01  0.59208449367E+02  0.13772205380E+03  0.19525803986E+03  0.12509000000E+03 0.  0.
<mgrwt>
<rscale>  2 0.45138361E+03</rscale>
<asrwt>0</asrwt>
<pdfrwt beam="1">  1       21 0.86704133E-01 0.45138361E+03</pdfrwt>
<pdfrwt beam="2">  1       21 0.12704979E-01 0.45138361E+03</pdfrwt>
<totfact> 0.55799322E+04</totfact>
</mgrwt>
</event>
<event>
 7    0  0.4775379E-002  0.4642143E+03  0.7546771E-02  0.1023566E+00
         21   -1    0    0  502  501  0.00000000000E+00  0.00000000000E+00  0.71262946595E+03  0.71262946595E+03  0.00000000000E+00 0.  1.
         21   -1    0    0  501  502 -0.00000000000E+00 -0.00000000000E+00 -0.75598502541E+02  0.75598502541E+02  0.00000000000E+00 0.  1.
      99926    2    1    2    0    0  0.00000000000E+00 -0.71054273576E-14  0.63703096341E+03  0.78822796849E+03  0.46421426300E+03 0.  0.
      99925    2    3    3    0    0 -0.47883901613E+02 -0.59523602726E+02  0.55826221609E+03  0.62183100046E+03  0.26302312428E+03 0.  0.
         25    1    4    4    0    0 -0.58362995466E+01 -0.63006338137E+02  0.25288054073E+03  0.28913653699E+03  0.12509000000E+03 0.  0.
         25    1    3    3    0    0  0.47883901613E+02  0.59523602726E+02  0.78768747322E+02  0.16639696803E+03  0.12509000000E+03 0.  0.
         25    1    4    4    0    0 -0.42047602066E+02  0.34827354113E+01  0.30538167535E+03  0.33269446348E+03  0.12509000000E+03 0.  0.
<mgrwt>
<rscale>  2 0.46421426E+03</rscale>
<asrwt>0</asrwt>
<pdfrwt beam="1">  1       21 0.10479845E+00 0.46421426E+03</pdfrwt>
<pdfrwt beam="2">  1       21 0.11117427E-01 0.46421426E+03</pdfrwt>
<totfact> 0.44996153E+04</totfact>
</mgrwt>
</event>
<event>
 7    0  0.4775379E-002  0.4574089E+03  0.7546771E-02  0.1025535E+00
         21   -1    0    0  502  501  0.00000000000E+00  0.00000000000E+00  0.39253171286E+02  0.39253171286E+02  0.00000000000E+00 0.  1.
         21   -1    0    0  501  502 -0.00000000000E+00 -0.00000000000E+00 -0.13325220911E+04  0.13325220911E+04  0.00000000000E+00 0.  1.
      99926    2    1    2    0    0  0.00000000000E+00  0.00000000000E+00 -0.12932689198E+04  0.13717752624E+04  0.45740886692E+03 0.  0.
      99925    2    3    3    0    0 -0.45272512709E+02  0.98917922780E+02 -0.92801476586E+03  0.97066123753E+03  0.26294006264E+03 0.  0.
         25    1    4    4    0    0 -0.56982797582E+02  0.35054384928E+02 -0.51942175596E+03  0.53844434976E+03  0.12509000000E+03 0.  0.
         25    1    3    3    0    0  0.45272512709E+02 -0.98917922780E+02 -0.36525415399E+03  0.40111402488E+03  0.12509000000E+03 0.  0.
         25    1    4    4    0    0  0.11710284874E+02  0.63863537853E+02 -0.40859300990E+03  0.43221688777E+03  0.12509000000E+03 0.  0.
<mgrwt>
<rscale>  2 0.45740887E+03</rscale>
<asrwt>0</asrwt>
<pdfrwt beam="1">  1       21 0.57725257E-02 0.45740887E+03</pdfrwt>
<pdfrwt beam="2">  1       21 0.19595911E+00 0.45740887E+03</pdfrwt>
<totfact> 0.26592586E+04</totfact>
</mgrwt>
</event>
<event>
 7    0  0.4775379E-002  0.4542985E+03  0.7546771E-02  0.1026448E+00
         21   -1    0    0  502  501  0.00000000000E+00  0.00000000000E+00  0.90508943588E+03  0.90508943588E+03  0.00000000000E+00 0.  1.
         21   -1    0    0  501  502 -0.00000000000E+00 -0.00000000000E+00 -0.57007375230E+02  0.57007375230E+02  0.00000000000E+00 0.  1.
      99926    2    1    2    0    0  0.00000000000E+00 -0.35527136788E-14  0.84808206065E+03  0.96209681111E+03  0.45429846175E+03 0.  0.
      99925    2    3    3    0    0 -0.74269504309E+02 -0.12011856307E+02  0.35691848549E+03  0.44970105622E+03  0.26302089408E+03 0.  0.
         25    1    3    3    0    0  0.74269504309E+02  0.12011856307E+02  0.49116357517E+03  0.51239575489E+03  0.12509000000E+03 0.  0.
         25    1    4    4    0    0 -0.10995417477E+02  0.24183549693E+02  0.14918497773E+03  0.19649277076E+03  0.12509000000E+03 0.  0.
         25    1    4    4    0    0 -0.63274086832E+02 -0.36195406000E+02  0.20773350776E+03  0.25320828546E+03  0.12509000000E+03 0.  0.
<mgrwt>
<rscale>  2 0.45429846E+03</rscale>
<asrwt>0</asrwt>
<pdfrwt beam="1">  1       21 0.13310138E+00 0.45429846E+03</pdfrwt>
<pdfrwt beam="2">  1       21 0.83834381E-02 0.45429846E+03</pdfrwt>
<totfact> 0.40878610E+04</totfact>
</mgrwt>
</event>
<event>
 7    0  0.4775379E-002  0.4449394E+03  0.7546771E-02  0.1029242E+00
         21   -1    0    0  502  501  0.00000000000E+00  0.00000000000E+00  0.41934311661E+02  0.41934311661E+02  0.00000000000E+00 0. -1.
         21   -1    0    0  501  502 -0.00000000000E+00 -0.00000000000E+00 -0.11802449190E+04  0.11802449190E+04  0.00000000000E+00 0. -1.
      99926    2    1    2    0    0  0.00000000000E+00  0.00000000000E+00 -0.11383106073E+04  0.12221792307E+04  0.44493935888E+03 0.  0.
      99925    2    3    3    0    0 -0.42657270344E+02 -0.93829175282E+02 -0.74075787775E+03  0.79285506671E+03  0.26319834064E+03 0.  0.
         25    1    4    4    0    0 -0.41951881817E+02 -0.82981745034E+02 -0.44672237018E+03  0.47313244923E+03  0.12509000000E+03 0.  0.
         25    1    4    4    0    0 -0.70538852667E+00 -0.10847430248E+02 -0.29403550757E+03  0.31972261748E+03  0.12509000000E+03 0.  0.
         25    1    3    3    0    0  0.42657270344E+02  0.93829175282E+02 -0.39755272958E+03  0.42932416394E+03  0.12509000000E+03 0.  0.
<mgrwt>
<rscale>  2 0.44493936E+03</rscale>
<asrwt>0</asrwt>
<pdfrwt beam="1">  1       21 0.61668108E-02 0.44493936E+03</pdfrwt>
<pdfrwt beam="2">  1       21 0.17356542E+00 0.44493936E+03</pdfrwt>
<totfact> 0.34051418E+04</totfact>
</mgrwt>
</event>
<event>
 7    0  0.4775379E-002  0.4558761E+03  0.7546771E-02  0.1025984E+00
         21   -1    0    0  502  501  0.00000000000E+00  0.00000000000E+00  0.17899858941E+03  0.17899858941E+03  0.00000000000E+00 0.  1.
         21   -1    0    0  501  502 -0.00000000000E+00 -0.00000000000E+00 -0.29025788123E+03  0.29025788123E+03  0.00000000000E+00 0.  1.
      99926    2    1    2    0    0  0.00000000000E+00 -0.14210854715E-13 -0.11125929182E+03  0.46925647064E+03  0.45587608538E+03 0.  0.
      99925    2    3    3    0    0 -0.84744469870E+02 -0.71092212005E+02 -0.41228533944E+02  0.28818316247E+03  0.26289544564E+03 0.  0.
         25    1    4    4    0    0 -0.49496234960E+02 -0.68920841016E+02  0.21113722510E+01  0.15116853374E+03  0.12509000000E+03 0.  0.
         25    1    4    4    0    0 -0.35248234911E+02 -0.21713709882E+01 -0.43339906195E+02  0.13701462873E+03  0.12509000000E+03 0.  0.
         25    1    3    3    0    0  0.84744469870E+02  0.71092212005E+02 -0.70030757873E+02  0.18107330816E+03  0.12509000000E+03 0.  0.
<mgrwt>
<rscale>  2 0.45587609E+03</rscale>
<asrwt>0</asrwt>
<pdfrwt beam="1">  1       21 0.26323323E-01 0.45587609E+03</pdfrwt>
<pdfrwt beam="2">  1       21 0.42684982E-01 0.45587609E+03</pdfrwt>
<totfact> 0.67024123E+04</totfact>
</mgrwt>
</event>
<event>
 7    0  0.4775379E-002  0.4550112E+03  0.7546771E-02  0.1026238E+00
         21   -1    0    0  502  501  0.00000000000E+00  0.00000000000E+00  0.17976512086E+03  0.17976512086E+03  0.00000000000E+00 0.  1.
         21   -1    0    0  501  502 -0.00000000000E+00 -0.00000000000E+00 -0.28792458154E+03  0.28792458154E+03  0.00000000000E+00 0.  1.
      99926    2    1    2    0    0 -0.35527136788E-14 -0.35527136788E-14 -0.10815946068E+03  0.46768970240E+03  0.45501119635E+03 0.  0.
      99925    2    3    3    0    0 -0.30996096825E+02 -0.18438198760E+02 -0.17819900267E+03  0.31985949326E+03  0.26316247013E+03 0.  0.
         25    1    4    4    0    0 -0.36381975692E+02 -0.29457185284E+02 -0.56876972635E+02  0.14516842644E+03  0.12509000000E+03 0.  0.
         25    1    4    4    0    0  0.53858788661E+01  0.11018986523E+02 -0.12132203003E+03  0.17469106682E+03  0.12509000000E+03 0.  0.
         25    1    3    3    0    0  0.30996096825E+02  0.18438198760E+02  0.70039541992E+02  0.14783020914E+03  0.12509000000E+03 0.  0.
<mgrwt>
<rscale>  2 0.45501120E+03</rscale>
<asrwt>0</asrwt>
<pdfrwt beam="1">  1       21 0.26436047E-01 0.45501120E+03</pdfrwt>
<pdfrwt beam="2">  1       21 0.42341850E-01 0.45501120E+03</pdfrwt>
<totfact> 0.67602083E+04</totfact>
</mgrwt>
</event>
<event>
 7    0  0.4775379E-002  0.4550434E+03  0.7546771E-02  0.1026229E+00
         21   -1    0    0  502  501  0.00000000000E+00  0.00000000000E+00  0.14279195898E+04  0.14279195898E+04  0.00000000000E+00 0.  1.
         21   -1    0    0  501  502 -0.00000000000E+00 -0.00000000000E+00 -0.36252820689E+02  0.36252820689E+02  0.00000000000E+00 0.  1.
      99926    2    1    2    0    0  0.00000000000E+00  0.00000000000E+00  0.13916667691E+04  0.14641724105E+04  0.45504335112E+03 0.  0.
      99925    2    3    3    0    0  0.29788562136E+02 -0.83724431822E+02  0.65000582179E+03  0.70680485916E+03  0.26299886247E+03 0.  0.
         25    1    3    3    0    0 -0.29788562136E+02  0.83724431822E+02  0.74166094734E+03  0.75736755135E+03  0.12509000000E+03 0.  0.
         25    1    4    4    0    0 -0.91935306376E+01 -0.39358355067E+02  0.40043764550E+03  0.42146342326E+03  0.12509000000E+03 0.  0.
         25    1    4    4    0    0  0.38982092774E+02 -0.44366076755E+02  0.24956817629E+03  0.28534143590E+03  0.12509000000E+03 0.  0.
<mgrwt>
<rscale>  2 0.45504335E+03</rscale>
<asrwt>0</asrwt>
<pdfrwt beam="1">  1       21 0.20998814E+00 0.45504335E+03</pdfrwt>
<pdfrwt beam="2">  1       21 0.53312981E-02 0.45504335E+03</pdfrwt>
<totfact> 0.24662495E+04</totfact>
</mgrwt>
</event>
<event>
 7    0  0.4775379E-002  0.3967102E+03  0.7546771E-02  0.1044925E+00
         21   -1    0    0  502  501  0.00000000000E+00  0.00000000000E+00  0.22975483680E+03  0.22975483680E+03  0.00000000000E+00 0. -1.
         21   -1    0    0  501  502 -0.00000000000E+00 -0.00000000000E+00 -0.17124666045E+03  0.17124666045E+03  0.00000000000E+00 0. -1.
      99926    2    1    2    0    0  0.00000000000E+00  0.00000000000E+00  0.58508176356E+02  0.40100149725E+03  0.39671021426E+03 0.  0.
      99925    2    3    3    0    0  0.26448026728E+02 -0.62656333807E+01  0.66812052053E+02  0.27272360075E+03  0.26301246326E+03 0.  0.
         25    1    4    4    0    0  0.19379280355E+02 -0.11254579934E+02 -0.69078173885E+01  0.12726919548E+03  0.12509000000E+03 0.  0.
         25    1    3    3    0    0 -0.26448026728E+02  0.62656333807E+01 -0.83038756971E+01  0.12827789650E+03  0.12509000000E+03 0.  0.
         25    1    4    4    0    0  0.70687463729E+01  0.49889465528E+01  0.73719869441E+02  0.14545440527E+03  0.12509000000E+03 0.  0.
<mgrwt>
<rscale>  2 0.39671021E+03</rscale>
<asrwt>0</asrwt>
<pdfrwt beam="1">  1       21 0.33787476E-01 0.39671021E+03</pdfrwt>
<pdfrwt beam="2">  1       21 0.25183332E-01 0.39671021E+03</pdfrwt>
<totfact> 0.11920436E+05</totfact>
</mgrwt>
</event>
<event>
 7    0  0.4775379E-002  0.4577502E+03  0.7546771E-02  0.1025436E+00
         21   -1    0    0  502  501  0.00000000000E+00  0.00000000000E+00  0.43272493608E+03  0.43272493608E+03  0.00000000000E+00 0.  1.
         21   -1    0    0  501  502 -0.00000000000E+00 -0.00000000000E+00 -0.12105569766E+03  0.12105569766E+03  0.00000000000E+00 0.  1.
      99926    2    1    2    0    0  0.00000000000E+00  0.17763568394E-14  0.31166923842E+03  0.55378063375E+03  0.45775023335E+03 0.  0.
      99925    2    3    3    0    0 -0.99846948821E+02  0.81445304423E+01  0.12574429564E+03  0.30831915202E+03  0.26308425466E+03 0.  0.
         25    1    4    4    0    0 -0.50029799359E+02  0.39741187119E+02  0.41868889028E+02  0.14657030649E+03  0.12509000000E+03 0.  0.
         25    1    4    4    0    0 -0.49817149462E+02 -0.31596656677E+02  0.83875406612E+02  0.16174884552E+03  0.12509000000E+03 0.  0.
         25    1    3    3    0    0  0.99846948821E+02 -0.81445304423E+01  0.18592494278E+03  0.24546148173E+03  0.12509000000E+03 0.  0.
<mgrwt>
<rscale>  2 0.45775023E+03</rscale>
<asrwt>0</asrwt>
<pdfrwt beam="1">  1       21 0.63636019E-01 0.45775023E+03</pdfrwt>
<pdfrwt beam="2">  1       21 0.17802309E-01 0.45775023E+03</pdfrwt>
<totfact> 0.60294756E+04</totfact>
</mgrwt>
</event>
<event>
 7    0  0.4775379E-002  0.4612626E+03  0.7546771E-02  0.1024416E+00
         21   -1    0    0  502  501  0.00000000000E+00  0.00000000000E+00  0.12115698225E+03  0.12115698225E+03  0.00000000000E+00 0. -1.
         21   -1    0    0  501  502 -0.00000000000E+00 -0.00000000000E+00 -0.43902380772E+03  0.43902380772E+03  0.00000000000E+00 0. -1.
      99926    2    1    2    0    0  0.00000000000E+00  0.14210854715E-13 -0.31786682546E+03  0.56018078997E+03  0.46126261362E+03 0.  0.
      99925    2    3    3    0    0  0.25377427045E+02 -0.75020217243E+02 -0.30674803259E+03  0.41171132357E+03  0.26294450300E+03 0.  0.
         25    1    4    4    0    0  0.21797796076E+02 -0.67865222304E+02 -0.20370768339E+03  0.24944971575E+03  0.12509000000E+03 0.  0.
         25    1    4    4    0    0  0.35796309690E+01 -0.71549949390E+01 -0.10304034920E+03  0.16226160782E+03  0.12509000000E+03 0.  0.
         25    1    3    3    0    0 -0.25377427045E+02  0.75020217243E+02 -0.11118792871E+02  0.14846946640E+03  0.12509000000E+03 0.  0.
<mgrwt>
<rscale>  2 0.46126261E+03</rscale>
<asrwt>0</asrwt>
<pdfrwt beam="1">  1       21 0.17817204E-01 0.46126261E+03</pdfrwt>
<pdfrwt beam="2">  1       21 0.64562324E-01 0.46126261E+03</pdfrwt>
<totfact> 0.58258679E+04</totfact>
</mgrwt>
</event>
<event>
 7    0  0.4775379E-002  0.4558153E+03  0.7546771E-02  0.1026002E+00
         21   -1    0    0  502  501  0.00000000000E+00  0.00000000000E+00  0.24962348751E+03  0.24962348751E+03  0.00000000000E+00 0. -1.
         21   -1    0    0  501  502 -0.00000000000E+00 -0.00000000000E+00 -0.20808092565E+03  0.20808092565E+03  0.00000000000E+00 0. -1.
      99926    2    1    2    0    0  0.00000000000E+00  0.00000000000E+00  0.41542561865E+02  0.45770441316E+03  0.45581525356E+03 0.  0.
      99925    2    3    3    0    0  0.49517865911E+02 -0.61036600687E+02  0.10884308404E+03  0.29536417153E+03  0.26308875159E+03 0.  0.
         25    1    4    4    0    0 -0.43221951065E+00 -0.60557537394E+02  0.67247159552E+02  0.15439265111E+03  0.12509000000E+03 0.  0.
         25    1    4    4    0    0  0.49950085422E+02 -0.47906329234E+00  0.41595924488E+02  0.14097152042E+03  0.12509000000E+03 0.  0.
         25    1    3    3    0    0 -0.49517865911E+02  0.61036600687E+02 -0.67300522175E+02  0.16234024163E+03  0.12509000000E+03 0.  0.
<mgrwt>
<rscale>  2 0.45581525E+03</rscale>
<asrwt>0</asrwt>
<pdfrwt beam="1">  1       21 0.36709336E-01 0.45581525E+03</pdfrwt>
<pdfrwt beam="2">  1       21 0.30600136E-01 0.45581525E+03</pdfrwt>
<totfact> 0.67905364E+04</totfact>
</mgrwt>
</event>
<event>
 6    0  0.4775379E-002  0.4496864E+03  0.7546771E-02  0.1027816E+00
         21   -1    0    0  502  501  0.00000000000E+00  0.00000000000E+00  0.23215824678E+03  0.23215824678E+03  0.00000000000E+00 0.  1.
         21   -1    0    0  501  502 -0.00000000000E+00 -0.00000000000E+00 -0.21775868545E+03  0.21775868545E+03  0.00000000000E+00 0.  1.
      99926    2    1    2    0    0 -0.35527136788E-14  0.00000000000E+00  0.14399561333E+02  0.44991693224E+03  0.44968644470E+03 0.  0.
         25    1    3    3    0    0 -0.20859388691E+02  0.26521042408E+01  0.18311698991E+01  0.12685822416E+03  0.12509000000E+03 0.  0.
         25    1    3    3    0    0 -0.10039734598E+02 -0.37226415869E+02 -0.86494352921E+02  0.15689290454E+03  0.12509000000E+03 0.  0.
         25    1    3    3    0    0  0.30899123289E+02  0.34574311628E+02  0.99062744355E+02  0.16616580353E+03  0.12509000000E+03 0.  0.
<mgrwt>
<rscale>  2 0.44968644E+03</rscale>
<asrwt>0</asrwt>
<pdfrwt beam="1">  1       21 0.34140919E-01 0.44968644E+03</pdfrwt>
<pdfrwt beam="2">  1       21 0.32023336E-01 0.44968644E+03</pdfrwt>
<totfact> 0.71920969E+04</totfact>
</mgrwt>
</event>
<event>
 7    0  0.4775379E-002  0.4498203E+03  0.7546771E-02  0.1027776E+00
         21   -1    0    0  502  501  0.00000000000E+00  0.00000000000E+00  0.43728343058E+03  0.43728343058E+03  0.00000000000E+00 0.  1.
         21   -1    0    0  501  502 -0.00000000000E+00 -0.00000000000E+00 -0.11567915769E+03  0.11567915769E+03  0.00000000000E+00 0.  1.
      99926    2    1    2    0    0  0.00000000000E+00  0.00000000000E+00  0.32160427289E+03  0.55296258827E+03  0.44982031489E+03 0.  0.
      99925    2    3    3    0    0 -0.58345318418E+02  0.72241458912E+02  0.13430353113E+03  0.30933976395E+03  0.26273683890E+03 0.  0.
         25    1    4    4    0    0 -0.54252627180E+02  0.57295425436E+02  0.10058929372E+03  0.17886259375E+03  0.12509000000E+03 0.  0.
         25    1    3    3    0    0  0.58345318418E+02 -0.72241458912E+02  0.18730074176E+03  0.24362282432E+03  0.12509000000E+03 0.  0.
         25    1    4    4    0    0 -0.40926912383E+01  0.14946033477E+02  0.33714237405E+02  0.13047717019E+03  0.12509000000E+03 0.  0.
<mgrwt>
<rscale>  2 0.44982031E+03</rscale>
<asrwt>0</asrwt>
<pdfrwt beam="1">  1       21 0.64306386E-01 0.44982031E+03</pdfrwt>
<pdfrwt beam="2">  1       21 0.17011641E-01 0.44982031E+03</pdfrwt>
<totfact> 0.64264363E+04</totfact>
</mgrwt>
</event>
<event>
 7    0  0.4775379E-002  0.4480382E+03  0.7546771E-02  0.1028309E+00
         21   -1    0    0  502  501  0.00000000000E+00  0.00000000000E+00  0.23401007496E+04  0.23401007496E+04  0.00000000000E+00 0. -1.
         21   -1    0    0  501  502 -0.00000000000E+00 -0.00000000000E+00 -0.21445464348E+02  0.21445464348E+02  0.00000000000E+00 0. -1.
      99926    2    1    2    0    0  0.00000000000E+00  0.00000000000E+00  0.23186552853E+04  0.23615462140E+04  0.44803815550E+03 0.  0.
      99925    2    3    3    0    0  0.83369138172E+02 -0.42416403615E+02  0.17360743745E+04  0.17583898576E+04  0.26311802128E+03 0.  0.
         25    1    3    3    0    0 -0.83369138172E+02  0.42416403615E+02  0.58258091076E+03  0.60315635633E+03  0.12509000000E+03 0.  0.
         25    1    4    4    0    0  0.79002472003E+02 -0.10007584691E+02  0.10224884521E+04  0.10331852134E+04  0.12509000000E+03 0.  0.
         25    1    4    4    0    0  0.43666661695E+01 -0.32408818924E+02  0.71358592236E+03  0.72520464423E+03  0.12509000000E+03 0.  0.
<mgrwt>
<rscale>  2 0.44803816E+03</rscale>
<asrwt>0</asrwt>
<pdfrwt beam="1">  1       21 0.34413229E+00 0.44803816E+03</pdfrwt>
<pdfrwt beam="2">  1       21 0.31537464E-02 0.44803816E+03</pdfrwt>
<totfact> 0.91386792E+03</totfact>
</mgrwt>
</event>
<event>
 7    0  0.4775379E-002  0.4493950E+03  0.7546771E-02  0.1027903E+00
         21   -1    0    0  502  501  0.00000000000E+00  0.00000000000E+00  0.14076630505E+03  0.14076630505E+03  0.00000000000E+00 0. -1.
         21   -1    0    0  501  502 -0.00000000000E+00 -0.00000000000E+00 -0.35867227369E+03  0.35867227369E+03  0.00000000000E+00 0. -1.
      99926    2    1    2    0    0  0.00000000000E+00  0.00000000000E+00 -0.21790596864E+03  0.49943857874E+03  0.44939501863E+03 0.  0.
      99925    2    3    3    0    0 -0.68626435193E+02  0.66826663490E+02 -0.83199536449E+02  0.29214959801E+03  0.26316123231E+03 0.  0.
         25    1    4    4    0    0 -0.63438892024E+02  0.27193235395E+02 -0.72985795988E+02  0.16043191574E+03  0.12509000000E+03 0.  0.
         25    1    4    4    0    0 -0.51875431686E+01  0.39633428095E+02 -0.10213740461E+02  0.13171768226E+03  0.12509000000E+03 0.  0.
         25    1    3    3    0    0  0.68626435193E+02 -0.66826663490E+02 -0.13470643219E+03  0.20728898074E+03  0.12509000000E+03 0.  0.
<mgrwt>
<rscale>  2 0.44939502E+03</rscale>
<asrwt>0</asrwt>
<pdfrwt beam="1">  1       21 0.20700928E-01 0.44939502E+03</pdfrwt>
<pdfrwt beam="2">  1       21 0.52745921E-01 0.44939502E+03</pdfrwt>
<totfact> 0.68298550E+04</totfact>
</mgrwt>
</event>
<event>
 7    0  0.4775379E-002  0.4505140E+03  0.7546771E-02  0.1027569E+00
         21   -1    0    0  502  501  0.00000000000E+00  0.00000000000E+00  0.68329721194E+03  0.68329721194E+03  0.00000000000E+00 0.  1.
         21   -1    0    0  501  502 -0.00000000000E+00 -0.00000000000E+00 -0.74258619570E+02  0.74258619570E+02  0.00000000000E+00 0.  1.
      99926    2    1    2    0    0  0.00000000000E+00  0.00000000000E+00  0.60903859237E+03  0.75755583151E+03  0.45051396300E+03 0.  0.
      99925    2    3    3    0    0 -0.59693173412E+02 -0.85127320196E+02  0.43845903836E+03  0.52185511462E+03  0.26320428709E+03 0.  0.
         25    1    3    3    0    0  0.59693173412E+02  0.85127320196E+02  0.17057955402E+03  0.23570071689E+03  0.12509000000E+03 0.  0.
         25    1    4    4    0    0 -0.89118251234E+01 -0.47519398973E+02  0.15035795124E+03  0.20147589311E+03  0.12509000000E+03 0.  0.
         25    1    4    4    0    0 -0.50781348288E+02 -0.37607921223E+02  0.28810108712E+03  0.32037922151E+03  0.12509000000E+03 0.  0.
<mgrwt>
<rscale>  2 0.45051396E+03</rscale>
<asrwt>0</asrwt>
<pdfrwt beam="1">  1       21 0.10048488E+00 0.45051396E+03</pdfrwt>
<pdfrwt beam="2">  1       21 0.10920386E-01 0.45051396E+03</pdfrwt>
<totfact> 0.51682170E+04</totfact>
</mgrwt>
</event>
<event>
 7    0  0.4775379E-002  0.4538102E+03  0.7546771E-02  0.1026592E+00
         21   -1    0    0  502  501  0.00000000000E+00  0.00000000000E+00  0.55352766042E+02  0.55352766042E+02  0.00000000000E+00 0.  1.
         21   -1    0    0  501  502 -0.00000000000E+00 -0.00000000000E+00 -0.93014203759E+03  0.93014203759E+03  0.00000000000E+00 0.  1.
      99926    2    1    2    0    0  0.00000000000E+00  0.00000000000E+00 -0.87478927155E+03  0.98549480363E+03  0.45381024490E+03 0.  0.
      99925    2    3    3    0    0 -0.95424952555E+02 -0.53106598625E+02 -0.49700563008E+03  0.57282760085E+03  0.26304112147E+03 0.  0.
         25    1    3    3    0    0  0.95424952555E+02  0.53106598625E+02 -0.37778364147E+03  0.41266720278E+03  0.12509000000E+03 0.  0.
         25    1    4    4    0    0 -0.64138980152E+02 -0.64529581508E+02 -0.29022135431E+03  0.32886747827E+03  0.12509000000E+03 0.  0.
         25    1    4    4    0    0 -0.31285972403E+02  0.11422982883E+02 -0.20678427577E+03  0.24396012258E+03  0.12509000000E+03 0.  0.
<mgrwt>
<rscale>  2 0.45381024E+03</rscale>
<asrwt>0</asrwt>
<pdfrwt beam="1">  1       21 0.81401130E-02 0.45381024E+03</pdfrwt>
<pdfrwt beam="2">  1       21 0.13678559E+00 0.45381024E+03</pdfrwt>
<totfact> 0.40107067E+04</totfact>
</mgrwt>
</event>
<event>
 7    0  0.4775379E-002  0.4461630E+03  0.7546771E-02  0.1028872E+00
         21   -1    0    0  502  501  0.00000000000E+00  0.00000000000E+00  0.25312524207E+03  0.25312524207E+03  0.00000000000E+00 0.  1.
         21   -1    0    0  501  502 -0.00000000000E+00 -0.00000000000E+00 -0.19660368571E+03  0.19660368571E+03  0.00000000000E+00 0.  1.
      99926    2    1    2    0    0  0.71054273576E-14 -0.14210854715E-13  0.56521556355E+02  0.44972892778E+03  0.44616299953E+03 0.  0.
      99925    2    3    3    0    0  0.50156835919E+02 -0.91880652765E+02  0.36202877555E+02  0.28535703435E+03  0.26298331918E+03 0.  0.
         25    1    4    4    0    0  0.42602673531E+02 -0.11599366823E+02  0.20917162771E+01  0.13267033007E+03  0.12509000000E+03 0.  0.
         25    1    4    4    0    0  0.75541623879E+01 -0.80281285942E+02  0.34111161278E+02  0.15268670429E+03  0.12509000000E+03 0.  0.
         25    1    3    3    0    0 -0.50156835919E+02  0.91880652765E+02  0.20318678800E+02  0.16437189343E+03  0.12509000000E+03 0.  0.
<mgrwt>
<rscale>  2 0.44616300E+03</rscale>
<asrwt>0</asrwt>
<pdfrwt beam="1">  1       21 0.37224301E-01 0.44616300E+03</pdfrwt>
<pdfrwt beam="2">  1       21 0.28912307E-01 0.44616300E+03</pdfrwt>
<totfact> 0.74015906E+04</totfact>
</mgrwt>
</event>
<event>
 7    0  0.4775379E-002  0.4487816E+03  0.7546771E-02  0.1028086E+00
         21   -1    0    0  502  501  0.00000000000E+00  0.00000000000E+00  0.41015736130E+02  0.41015736130E+02  0.00000000000E+00 0.  1.
         21   -1    0    0  501  502 -0.00000000000E+00 -0.00000000000E+00 -0.12276077875E+04  0.12276077875E+04  0.00000000000E+00 0.  1.
      99926    2    1    2    0    0 -0.35527136788E-14  0.00000000000E+00 -0.11865920514E+04  0.12686235236E+04  0.44878162655E+03 0.  0.
      99925    2    3    3    0    0  0.21722189265E+02 -0.84323683335E+02 -0.57433883225E+03  0.63768466011E+03  0.26304808388E+03 0.  0.
         25    1    3    3    0    0 -0.21722189265E+02  0.84323683335E+02 -0.61225321912E+03  0.63093886352E+03  0.12509000000E+03 0.  0.
         25    1    4    4    0    0  0.31718906483E+02 -0.39259580423E+02 -0.20873470111E+03  0.24852582809E+03  0.12509000000E+03 0.  0.
         25    1    4    4    0    0 -0.99967172177E+01 -0.45064102912E+02 -0.36560413115E+03  0.38915883202E+03  0.12509000000E+03 0.  0.
<mgrwt>
<rscale>  2 0.44878163E+03</rscale>
<asrwt>0</asrwt>
<pdfrwt beam="1">  1       21 0.60317250E-02 0.44878163E+03</pdfrwt>
<pdfrwt beam="2">  1       21 0.18053058E+00 0.44878163E+03</pdfrwt>
<totfact> 0.31538228E+04</totfact>
</mgrwt>
</event>
<event>
 7    0  0.4775379E-002  0.4231480E+03  0.7546771E-02  0.1036047E+00
         21   -1    0    0  502  501  0.00000000000E+00  0.00000000000E+00  0.17089469920E+03  0.17089469920E+03  0.00000000000E+00 0. -1.
         21   -1    0    0  501  502 -0.00000000000E+00 -0.00000000000E+00 -0.26193646808E+03  0.26193646808E+03  0.00000000000E+00 0. -1.
      99926    2    1    2    0    0  0.00000000000E+00  0.00000000000E+00 -0.91041768879E+02  0.43283116728E+03  0.42314798321E+03 0.  0.
      99925    2    3    3    0    0 -0.50665211823E+02  0.61434218015E+02 -0.58977114066E+02  0.28111835629E+03  0.26307433061E+03 0.  0.
         25    1    3    3    0    0  0.50665211823E+02 -0.61434218015E+02 -0.32064654814E+02  0.15171281100E+03  0.12509000000E+03 0.  0.
         25    1    4    4    0    0 -0.71990502143E+01  0.38401869223E+00 -0.42634906985E+01  0.12537008913E+03  0.12509000000E+03 0.  0.
         25    1    4    4    0    0 -0.43466161608E+02  0.61050199322E+02 -0.54713623367E+02  0.15574826716E+03  0.12509000000E+03 0.  0.
<mgrwt>
<rscale>  2 0.42314798E+03</rscale>
<asrwt>0</asrwt>
<pdfrwt beam="1">  1       21 0.25131574E-01 0.42314798E+03</pdfrwt>
<pdfrwt beam="2">  1       21 0.38520068E-01 0.42314798E+03</pdfrwt>
<totfact> 0.91267086E+04</totfact>
</mgrwt>
</event>
<event>
 7    0  0.4775379E-002  0.4582590E+03  0.7546771E-02  0.1025287E+00
         21   -1    0    0  502  501  0.00000000000E+00  0.00000000000E+00  0.18365347675E+03  0.18365347675E+03  0.00000000000E+00 0. -1.
         21   -1    0    0  501  502 -0.00000000000E+00 -0.00000000000E+00 -0.28586627823E+03  0.28586627823E+03  0.00000000000E+00 0. -1.
      99926    2    1    2    0    0  0.00000000000E+00  0.14210854715E-13 -0.10221280148E+03  0.46951975499E+03  0.45825903541E+03 0.  0.
      99925    2    3    3    0    0  0.50369471703E+02  0.72781521031E+02 -0.14122377975E+03  0.31139449449E+03  0.26303638864E+03 0.  0.
         25    1    3    3    0    0 -0.50369471703E+02 -0.72781521031E+02  0.39010978267E+02  0.15812526050E+03  0.12509000000E+03 0.  0.
         25    1    4    4    0    0  0.45005662488E+02  0.73905471956E+02 -0.71321808014E+02  0.16799356190E+03  0.12509000000E+03 0.  0.
         25    1    4    4    0    0  0.53638092146E+01 -0.11239509242E+01 -0.69901971732E+02  0.14340093259E+03  0.12509000000E+03 0.  0.
<mgrwt>
<rscale>  2 0.45825904E+03</rscale>
<asrwt>0</asrwt>
<pdfrwt beam="1">  1       21 0.27007864E-01 0.45825904E+03</pdfrwt>
<pdfrwt beam="2">  1       21 0.42039158E-01 0.45825904E+03</pdfrwt>
<totfact> 0.65755394E+04</totfact>
</mgrwt>
</event>
<event>
 7    0  0.4775379E-002  0.4556088E+03  0.7546771E-02  0.1026063E+00
         21   -1    0    0  502  501  0.00000000000E+00  0.00000000000E+00  0.25103282791E+03  0.25103282791E+03  0.00000000000E+00 0. -1.
         21   -1    0    0  501  502 -0.00000000000E+00 -0.00000000000E+00 -0.20672536629E+03  0.20672536629E+03  0.00000000000E+00 0. -1.
      99926    2    1    2    0    0  0.00000000000E+00  0.00000000000E+00  0.44307461617E+02  0.45775819420E+03  0.45560883793E+03 0.  0.
      99925    2    3    3    0    0  0.87023377827E+02 -0.64523329310E+02  0.62643470987E+02  0.29126481399E+03  0.26301075852E+03 0.  0.
         25    1    3    3    0    0 -0.87023377827E+02  0.64523329310E+02 -0.18336009370E+02  0.16649338021E+03  0.12509000000E+03 0.  0.
         25    1    4    4    0    0  0.27497077480E+02 -0.53662015691E+02  0.56337567276E-01  0.13886400711E+03  0.12509000000E+03 0.  0.
         25    1    4    4    0    0  0.59526300347E+02 -0.10861313619E+02  0.62587133419E+02  0.15240080687E+03  0.12509000000E+03 0.  0.
<mgrwt>
<rscale>  2 0.45560884E+03</rscale>
<asrwt>0</asrwt>
<pdfrwt beam="1">  1       21 0.36916592E-01 0.45560884E+03</pdfrwt>
<pdfrwt beam="2">  1       21 0.30400789E-01 0.45560884E+03</pdfrwt>
<totfact> 0.68013214E+04</totfact>
</mgrwt>
</event>
<event>
 7    0  0.4775379E-002  0.4614496E+03  0.7546771E-02  0.1024362E+00
         21   -1    0    0  502  501  0.00000000000E+00  0.00000000000E+00  0.19829201576E+03  0.19829201576E+03  0.00000000000E+00 0. -1.
         21   -1    0    0  501  502 -0.00000000000E+00 -0.00000000000E+00 -0.26846229784E+03  0.26846229784E+03  0.00000000000E+00 0. -1.
      99926    2    1    2    0    0  0.00000000000E+00  0.00000000000E+00 -0.70170282071E+02  0.46675431360E+03  0.46144958639E+03 0.  0.
      99925    2    3    3    0    0  0.74580194911E+02 -0.90425288100E+02 -0.21817438198E+02  0.28864074362E+03  0.26286601162E+03 0.  0.
         25    1    4    4    0    0  0.65003010600E+01 -0.22073241561E+02 -0.29204226795E+02  0.13049857037E+03  0.12509000000E+03 0.  0.
         25    1    3    3    0    0 -0.74580194911E+02  0.90425288100E+02 -0.48352843873E+02  0.17811356998E+03  0.12509000000E+03 0.  0.
         25    1    4    4    0    0  0.68079893851E+02 -0.68352046538E+02  0.73867885970E+01  0.15814217324E+03  0.12509000000E+03 0.  0.
<mgrwt>
<rscale>  2 0.46144959E+03</rscale>
<asrwt>0</asrwt>
<pdfrwt beam="1">  1       21 0.29160591E-01 0.46144959E+03</pdfrwt>
<pdfrwt beam="2">  1       21 0.39479749E-01 0.46144959E+03</pdfrwt>
<totfact> 0.64318647E+04</totfact>
</mgrwt>
</event>
<event>
 7    0  0.4775379E-002  0.4554180E+03  0.7546771E-02  0.1026119E+00
         21   -1    0    0  502  501  0.00000000000E+00  0.00000000000E+00  0.12669529943E+03  0.12669529943E+03  0.00000000000E+00 0.  1.
         21   -1    0    0  501  502 -0.00000000000E+00 -0.00000000000E+00 -0.40926062635E+03  0.40926062635E+03  0.00000000000E+00 0.  1.
      99926    2    1    2    0    0 -0.35527136788E-14 -0.14210854715E-13 -0.28256532692E+03  0.53595592578E+03  0.45541803917E+03 0.  0.
      99925    2    3    3    0    0  0.22665060939E+02  0.91379215314E+02 -0.25268911066E+03  0.37656972068E+03  0.26284805860E+03 0.  0.
         25    1    4    4    0    0  0.16742602694E+02  0.38796469254E+01 -0.12080454367E+03  0.17474728117E+03  0.12509000000E+03 0.  0.
         25    1    3    3    0    0 -0.22665060939E+02 -0.91379215314E+02 -0.29876216259E+02  0.15938620510E+03  0.12509000000E+03 0.  0.
         25    1    4    4    0    0  0.59224582451E+01  0.87499568388E+02 -0.13188456699E+03  0.20182243951E+03  0.12509000000E+03 0.  0.
<mgrwt>
<rscale>  2 0.45541804E+03</rscale>
<asrwt>0</asrwt>
<pdfrwt beam="1">  1       21 0.18631662E-01 0.45541804E+03</pdfrwt>
<pdfrwt beam="2">  1       21 0.60185385E-01 0.45541804E+03</pdfrwt>
<totfact> 0.62596834E+04</totfact>
</mgrwt>
</event>
<event>
 7    0  0.4775379E-002  0.4535871E+03  0.7546771E-02  0.1026658E+00
         21   -1    0    0  502  501  0.00000000000E+00  0.00000000000E+00  0.64522637125E+03  0.64522637125E+03  0.00000000000E+00 0.  1.
         21   -1    0    0  501  502 -0.00000000000E+00 -0.00000000000E+00 -0.79716706739E+02  0.79716706739E+02  0.00000000000E+00 0.  1.
      99926    2    1    2    0    0  0.00000000000E+00  0.00000000000E+00  0.56550966451E+03  0.72494307799E+03  0.45358713128E+03 0.  0.
      99925    2    3    3    0    0  0.72804209354E+02  0.78604574021E+02  0.30587717581E+03  0.41747654445E+03  0.26314765157E+03 0.  0.
         25    1    4    4    0    0  0.60794800876E+02  0.67869025832E+01  0.14350378840E+03  0.19995728355E+03  0.12509000000E+03 0.  0.
         25    1    3    3    0    0 -0.72804209354E+02 -0.78604574021E+02  0.25963248870E+03  0.30746653354E+03  0.12509000000E+03 0.  0.
         25    1    4    4    0    0  0.12009408479E+02  0.71817671438E+02  0.16237338741E+03  0.21751926090E+03  0.12509000000E+03 0.  0.
<mgrwt>
<rscale>  2 0.45358713E+03</rscale>
<asrwt>0</asrwt>
<pdfrwt beam="1">  1       21 0.94886228E-01 0.45358713E+03</pdfrwt>
<pdfrwt beam="2">  1       21 0.11723045E-01 0.45358713E+03</pdfrwt>
<totfact> 0.52146608E+04</totfact>
</mgrwt>
</event>
<event>
 7    0  0.4775379E-002  0.4573753E+03  0.7546771E-02  0.1025545E+00
         21   -1    0    0  502  501  0.00000000000E+00  0.00000000000E+00  0.69217761004E+02  0.69217761004E+02  0.00000000000E+00 0.  1.
         21   -1    0    0  501  502 -0.00000000000E+00 -0.00000000000E+00 -0.75555799546E+03  0.75555799546E+03  0.00000000000E+00 0.  1.
      99926    2    1    2    0    0  0.00000000000E+00  0.00000000000E+00 -0.68634023446E+03  0.82477575647E+03  0.45737526280E+03 0.  0.
      99925    2    3    3    0    0 -0.65287742130E+02  0.94153425298E+02 -0.45332308383E+03  0.53655386737E+03  0.26317461406E+03 0.  0.
         25    1    4    4    0    0 -0.10176702145E+02  0.81737990267E+02 -0.23496869180E+03  0.27864396377E+03  0.12509000000E+03 0.  0.
         25    1    3    3    0    0  0.65287742130E+02 -0.94153425298E+02 -0.23301715063E+03  0.28822188910E+03  0.12509000000E+03 0.  0.
         25    1    4    4    0    0 -0.55111039985E+02  0.12415435031E+02 -0.21835439203E+03  0.25790990360E+03  0.12509000000E+03 0.  0.
<mgrwt>
<rscale>  2 0.45737526E+03</rscale>
<asrwt>0</asrwt>
<pdfrwt beam="1">  1       21 0.10179083E-01 0.45737526E+03</pdfrwt>
<pdfrwt beam="2">  1       21 0.11111147E+00 0.45737526E+03</pdfrwt>
<totfact> 0.45731393E+04</totfact>
</mgrwt>
</event>
<event>
 7    0  0.4775379E-002  0.4528327E+03  0.7546771E-02  0.1026881E+00
         21   -1    0    0  502  501  0.00000000000E+00  0.00000000000E+00  0.32062600721E+03  0.32062600721E+03  0.00000000000E+00 0. -1.
         21   -1    0    0  501  502 -0.00000000000E+00 -0.00000000000E+00 -0.15988832773E+03  0.15988832773E+03  0.00000000000E+00 0. -1.
      99926    2    1    2    0    0  0.35527136788E-14  0.00000000000E+00  0.16073767948E+03  0.48051433494E+03  0.45283266720E+03 0.  0.
      99925    2    3    3    0    0 -0.17207211042E+02 -0.65052088831E+02  0.19512390770E+03  0.33437131197E+03  0.26306457865E+03 0.  0.
         25    1    4    4    0    0 -0.18227767970E+02 -0.73324327625E+02  0.10258003123E+03  0.17854657502E+03  0.12509000000E+03 0.  0.
         25    1    3    3    0    0  0.17207211042E+02  0.65052088831E+02 -0.34386228220E+02  0.14614302297E+03  0.12509000000E+03 0.  0.
         25    1    4    4    0    0  0.10205569287E+01  0.82722387939E+01  0.92543876473E+02  0.15582473694E+03  0.12509000000E+03 0.  0.
<mgrwt>
<rscale>  2 0.45283267E+03</rscale>
<asrwt>0</asrwt>
<pdfrwt beam="1">  1       21 0.47150884E-01 0.45283267E+03</pdfrwt>
<pdfrwt beam="2">  1       21 0.23512989E-01 0.45283267E+03</pdfrwt>
<totfact> 0.67821996E+04</totfact>
</mgrwt>
</event>
<event>
 7    0  0.4775379E-002  0.4578239E+03  0.7546771E-02  0.1025414E+00
         21   -1    0    0  502  501  0.00000000000E+00  0.00000000000E+00  0.13357933337E+04  0.13357933337E+04  0.00000000000E+00 0. -1.
         21   -1    0    0  501  502 -0.00000000000E+00 -0.00000000000E+00 -0.39228129080E+02  0.39228129080E+02  0.00000000000E+00 0. -1.
      99926    2    1    2    0    0  0.00000000000E+00  0.00000000000E+00  0.12965652046E+04  0.13750214627E+04  0.45782386708E+03 0.  0.
      99925    2    3    3    0    0  0.77608543966E+02 -0.79865014433E+02  0.90929356903E+03  0.95308742236E+03  0.26298162171E+03 0.  0.
         25    1    4    4    0    0  0.38156344008E+02 -0.55373439002E+02  0.59362101577E+03  0.61037328153E+03  0.12509000000E+03 0.  0.
         25    1    3    3    0    0 -0.77608543966E+02  0.79865014433E+02  0.38727163555E+03  0.42193404037E+03  0.12509000000E+03 0.  0.
         25    1    4    4    0    0  0.39452199958E+02 -0.24491575430E+02  0.31567255325E+03  0.34271414083E+03  0.12509000000E+03 0.  0.
<mgrwt>
<rscale>  2 0.45782387E+03</rscale>
<asrwt>0</asrwt>
<pdfrwt beam="1">  1       21 0.19644017E+00 0.45782387E+03</pdfrwt>
<pdfrwt beam="2">  1       21 0.57688434E-02 0.45782387E+03</pdfrwt>
<totfact> 0.26420676E+04</totfact>
</mgrwt>
</event>
<event>
 7    0  0.4775379E-002  0.4288912E+03  0.7546771E-02  0.1034211E+00
         21   -1    0    0  502  501  0.00000000000E+00  0.00000000000E+00  0.17906767394E+03  0.17906767394E+03  0.00000000000E+00 0. -1.
         21   -1    0    0  501  502 -0.00000000000E+00 -0.00000000000E+00 -0.25681300999E+03  0.25681300999E+03  0.00000000000E+00 0. -1.
      99926    2    1    2    0    0  0.00000000000E+00 -0.88817841970E-15 -0.77745336053E+02  0.43588068393E+03  0.42889116725E+03 0.  0.
      99925    2    3    3    0    0 -0.86130682850E+02 -0.70476135695E+01 -0.56179208829E+02  0.28232037224E+03  0.26283174407E+03 0.  0.
         25    1    4    4    0    0 -0.62378988940E+02 -0.19222424972E+02 -0.62366388538E+02  0.15426507836E+03  0.12509000000E+03 0.  0.
         25    1    3    3    0    0  0.86130682850E+02  0.70476135695E+01 -0.21566127225E+02  0.15356031170E+03  0.12509000000E+03 0.  0.
         25    1    4    4    0    0 -0.23751693910E+02  0.12174811403E+02  0.61871797098E+01  0.12805529387E+03  0.12509000000E+03 0.  0.
<mgrwt>
<rscale>  2 0.42889117E+03</rscale>
<asrwt>0</asrwt>
<pdfrwt beam="1">  1       21 0.26333482E-01 0.42889117E+03</pdfrwt>
<pdfrwt beam="2">  1       21 0.37766619E-01 0.42889117E+03</pdfrwt>
<totfact> 0.86655549E+04</totfact>
</mgrwt>
</event>
<event>
 7    0  0.4775379E-002  0.4509946E+03  0.7546771E-02  0.1027426E+00
         21   -1    0    0  502  501  0.00000000000E+00  0.00000000000E+00  0.68818472808E+02  0.68818472808E+02  0.00000000000E+00 0. -1.
         21   -1    0    0  501  502 -0.00000000000E+00 -0.00000000000E+00 -0.73888635976E+03  0.73888635976E+03  0.00000000000E+00 0. -1.
      99926    2    1    2    0    0  0.00000000000E+00 -0.71054273576E-14 -0.67006788695E+03  0.80770483257E+03  0.45099459357E+03 0.  0.
      99925    2    3    3    0    0  0.77981318078E+02 -0.63796527205E+02 -0.49928962994E+03  0.57326122737E+03  0.26303463153E+03 0.  0.
         25    1    4    4    0    0  0.77786475249E+02 -0.36723189656E+02 -0.23774518018E+03  0.28208085222E+03  0.12509000000E+03 0.  0.
         25    1    3    3    0    0 -0.77981318078E+02  0.63796527205E+02 -0.17077825701E+03  0.23444360520E+03  0.12509000000E+03 0.  0.
         25    1    4    4    0    0  0.19484282840E+00 -0.27073337549E+02 -0.26154444976E+03  0.29118037514E+03  0.12509000000E+03 0.  0.
<mgrwt>
<rscale>  2 0.45099459E+03</rscale>
<asrwt>0</asrwt>
<pdfrwt beam="1">  1       21 0.10120363E-01 0.45099459E+03</pdfrwt>
<pdfrwt beam="2">  1       21 0.10865977E+00 0.45099459E+03</pdfrwt>
<totfact> 0.48913817E+04</totfact>
</mgrwt>
</event>
<event>
 7    0  0.4775379E-002  0.4272551E+03  0.7546771E-02  0.1034731E+00
         21   -1    0    0  502  501  0.00000000000E+00  0.00000000000E+00  0.18333443317E+03  0.18333443317E+03  0.00000000000E+00 0.  1.
         21   -1    0    0  501  502 -0.00000000000E+00 -0.00000000000E+00 -0.24892612342E+03  0.24892612342E+03  0.00000000000E+00 0.  1.
      99926    2    1    2    0    0  0.00000000000E+00  0.00000000000E+00 -0.65591690257E+02  0.43226055659E+03  0.42725509822E+03 0.  0.
      99925    2    3    3    0    0 -0.54859874165E+02  0.60436639812E+02 -0.20055104537E+02  0.27610908537E+03  0.26300537368E+03 0.  0.
         25    1    4    4    0    0 -0.55235722098E+02  0.61065739745E+02 -0.19446089143E+02  0.15101545633E+03  0.12509000000E+03 0.  0.
         25    1    4    4    0    0  0.37584793231E+00 -0.62909993274E+00 -0.60901539423E+00  0.12509362905E+03  0.12509000000E+03 0.  0.
         25    1    3    3    0    0  0.54859874165E+02 -0.60436639812E+02 -0.45536585719E+02  0.15615147122E+03  0.12509000000E+03 0.  0.
<mgrwt>
<rscale>  2 0.42725510E+03</rscale>
<asrwt>0</asrwt>
<pdfrwt beam="1">  1       21 0.26960946E-01 0.42725510E+03</pdfrwt>
<pdfrwt beam="2">  1       21 0.36606783E-01 0.42725510E+03</pdfrwt>
<totfact> 0.88210298E+04</totfact>
</mgrwt>
</event>
<event>
 7    0  0.4775379E-002  0.4659602E+03  0.7546771E-02  0.1023067E+00
         21   -1    0    0  502  501  0.00000000000E+00  0.00000000000E+00  0.25189910665E+02  0.25189910665E+02  0.00000000000E+00 0.  1.
         21   -1    0    0  501  502 -0.00000000000E+00 -0.00000000000E+00 -0.21548197848E+04  0.21548197848E+04  0.00000000000E+00 0.  1.
      99926    2    1    2    0    0  0.00000000000E+00  0.00000000000E+00 -0.21296298742E+04  0.21800096955E+04  0.46596016087E+03 0.  0.
      99925    2    3    3    0    0  0.30382824881E+02 -0.66398439604E+02 -0.86382325415E+03  0.90594306607E+03  0.26307861131E+03 0.  0.
         25    1    3    3    0    0 -0.30382824881E+02  0.66398439604E+02 -0.12658066200E+04  0.12740666294E+04  0.12509000000E+03 0.  0.
         25    1    4    4    0    0  0.24731917515E+02 -0.52450370962E+02 -0.33387901026E+03  0.36122764394E+03  0.12509000000E+03 0.  0.
         25    1    4    4    0    0  0.56509073661E+01 -0.13948068642E+02 -0.52994424389E+03  0.54471542213E+03  0.12509000000E+03 0.  0.
<mgrwt>
<rscale>  2 0.46596016E+03</rscale>
<asrwt>0</asrwt>
<pdfrwt beam="1">  1       21 0.37043985E-02 0.46596016E+03</pdfrwt>
<pdfrwt beam="2">  1       21 0.31688527E+00 0.46596016E+03</pdfrwt>
<totfact> 0.10099888E+04</totfact>
</mgrwt>
</event>
<event>
 7    0  0.4775379E-002  0.4582836E+03  0.7546771E-02  0.1025280E+00
         21   -1    0    0  502  501  0.00000000000E+00  0.00000000000E+00  0.13196430152E+03  0.13196430152E+03  0.00000000000E+00 0. -1.
         21   -1    0    0  501  502 -0.00000000000E+00 -0.00000000000E+00 -0.39788014227E+03  0.39788014227E+03  0.00000000000E+00 0. -1.
      99926    2    1    2    0    0  0.00000000000E+00  0.00000000000E+00 -0.26591584076E+03  0.52984444379E+03  0.45828364607E+03 0.  0.
      99925    2    3    3    0    0 -0.42681850890E+02 -0.16738800494E+02 -0.29025960117E+03  0.39441160210E+03  0.26307403514E+03 0.  0.
         25    1    4    4    0    0 -0.44425353417E+02 -0.29540320212E+02 -0.11154607645E+03  0.17588711669E+03  0.12509000000E+03 0.  0.
         25    1    3    3    0    0  0.42681850890E+02  0.16738800494E+02  0.24343760415E+02  0.13543284169E+03  0.12509000000E+03 0.  0.
         25    1    4    4    0    0  0.17435025272E+01  0.12801519719E+02 -0.17871352472E+03  0.21852448541E+03  0.12509000000E+03 0.  0.
<mgrwt>
<rscale>  2 0.45828365E+03</rscale>
<asrwt>0</asrwt>
<pdfrwt beam="1">  1       21 0.19406515E-01 0.45828365E+03</pdfrwt>
<pdfrwt beam="2">  1       21 0.58511785E-01 0.45828365E+03</pdfrwt>
<totfact> 0.61598120E+04</totfact>
</mgrwt>
</event>
<event>
 7    0  0.4775379E-002  0.4545555E+03  0.7546771E-02  0.1026372E+00
         21   -1    0    0  502  501  0.00000000000E+00  0.00000000000E+00  0.40091896913E+02  0.40091896913E+02  0.00000000000E+00 0. -1.
         21   -1    0    0  501  502 -0.00000000000E+00 -0.00000000000E+00 -0.12884195178E+04  0.12884195178E+04  0.00000000000E+00 0. -1.
      99926    2    1    2    0    0  0.17763568394E-14 -0.71054273576E-14 -0.12483276209E+04  0.13285114147E+04  0.45455553011E+03 0.  0.
      99925    2    3    3    0    0  0.10582599560E+02 -0.47327770305E+02 -0.48807453627E+03  0.55651130459E+03  0.26293757801E+03 0.  0.
         25    1    4    4    0    0  0.22202655819E+02 -0.14009196176E+02 -0.31597544080E+03  0.34084777070E+03  0.12509000000E+03 0.  0.
         25    1    3    3    0    0 -0.10582599560E+02  0.47327770305E+02 -0.76025308461E+03  0.77200011012E+03  0.12509000000E+03 0.  0.
         25    1    4    4    0    0 -0.11620056259E+02 -0.33318574129E+02 -0.17209909547E+03  0.21566353390E+03  0.12509000000E+03 0.  0.
<mgrwt>
<rscale>  2 0.45455553E+03</rscale>
<asrwt>0</asrwt>
<pdfrwt beam="1">  1       21 0.58958674E-02 0.45455553E+03</pdfrwt>
<pdfrwt beam="2">  1       21 0.18947345E+00 0.45455553E+03</pdfrwt>
<totfact> 0.28395827E+04</totfact>
</mgrwt>
</event>
<event>
 7    0  0.4775379E-002  0.4776099E+03  0.7546771E-02  0.1019794E+00
         21   -1    0    0  502  501  0.00000000000E+00  0.00000000000E+00  0.16174998825E+03  0.16174998825E+03  0.00000000000E+00 0.  1.
         21   -1    0    0  501  502 -0.00000000000E+00 -0.00000000000E+00 -0.35256765838E+03  0.35256765838E+03  0.00000000000E+00 0.  1.
      99926    2    1    2    0    0 -0.14210854715E-13  0.00000000000E+00 -0.19081767013E+03  0.51431764662E+03  0.47760994377E+03 0.  0.
      99925    2    3    3    0    0  0.10813588296E+03  0.24308339780E+02 -0.37978535370E+02  0.28784121566E+03  0.26291810838E+03 0.  0.
         25    1    4    4    0    0  0.88627517248E+02  0.12569230112E+01 -0.42455466650E+02  0.15907982719E+03  0.12509000000E+03 0.  0.
         25    1    4    4    0    0  0.19508365716E+02  0.23051416769E+02  0.44769312803E+01  0.12876138847E+03  0.12509000000E+03 0.  0.
         25    1    3    3    0    0 -0.10813588296E+03 -0.24308339780E+02 -0.15283913476E+03  0.22647643096E+03  0.12509000000E+03 0.  0.
<mgrwt>
<rscale>  2 0.47760994E+03</rscale>
<asrwt>0</asrwt>
<pdfrwt beam="1">  1       21 0.23786763E-01 0.47760994E+03</pdfrwt>
<pdfrwt beam="2">  1       21 0.51848185E-01 0.47760994E+03</pdfrwt>
<totfact> 0.53928041E+04</totfact>
</mgrwt>
</event>
<event>
 7    0  0.4775379E-002  0.4578453E+03  0.7546771E-02  0.1025408E+00
         21   -1    0    0  502  501  0.00000000000E+00  0.00000000000E+00  0.15516825029E+03  0.15516825029E+03  0.00000000000E+00 0.  1.
         21   -1    0    0  501  502 -0.00000000000E+00 -0.00000000000E+00 -0.33773396482E+03  0.33773396482E+03  0.00000000000E+00 0.  1.
      99926    2    1    2    0    0 -0.17763568394E-14  0.35527136788E-14 -0.18256571453E+03  0.49290221511E+03  0.45784533801E+03 0.  0.
      99925    2    3    3    0    0 -0.91901653298E+01 -0.13020771274E+02  0.88099776153E+01  0.26371634455E+03  0.26308685838E+03 0.  0.
         25    1    4    4    0    0 -0.22305896359E+02 -0.36187293850E+02 -0.17127127418E+02  0.13322131902E+03  0.12509000000E+03 0.  0.
         25    1    3    3    0    0  0.91901653298E+01  0.13020771274E+02 -0.19137569214E+03  0.22918587056E+03  0.12509000000E+03 0.  0.
         25    1    4    4    0    0  0.13115731029E+02  0.23166522576E+02  0.25937105033E+02  0.13049502552E+03  0.12509000000E+03 0.  0.
<mgrwt>
<rscale>  2 0.45784534E+03</rscale>
<asrwt>0</asrwt>
<pdfrwt beam="1">  1       21 0.22818861E-01 0.45784534E+03</pdfrwt>
<pdfrwt beam="2">  1       21 0.49666759E-01 0.45784534E+03</pdfrwt>
<totfact> 0.64307322E+04</totfact>
</mgrwt>
</event>
<event>
 7    0  0.4775379E-002  0.4580839E+03  0.7546771E-02  0.1025338E+00
         21   -1    0    0  502  501  0.00000000000E+00  0.00000000000E+00  0.30782482071E+03  0.30782482071E+03  0.00000000000E+00 0. -1.
         21   -1    0    0  501  502 -0.00000000000E+00 -0.00000000000E+00 -0.17042231822E+03  0.17042231822E+03  0.00000000000E+00 0. -1.
      99926    2    1    2    0    0  0.00000000000E+00  0.35527136788E-14  0.13740250250E+03  0.47824713893E+03  0.45808392048E+03 0.  0.
      99925    2    3    3    0    0  0.59670806457E+02  0.31643425120E+02 -0.12001861586E+02  0.27201648261E+03  0.26322425921E+03 0.  0.
         25    1    3    3    0    0 -0.59670806457E+02 -0.31643425120E+02  0.14940436408E+03  0.20623065631E+03  0.12509000000E+03 0.  0.
         25    1    4    4    0    0  0.43420533414E+02  0.19871019289E+01 -0.42154615076E+02  0.13897413777E+03  0.12509000000E+03 0.  0.
         25    1    4    4    0    0  0.16250273042E+02  0.29656323191E+02  0.30152753489E+02  0.13304234485E+03  0.12509000000E+03 0.  0.
<mgrwt>
<rscale>  2 0.45808392E+03</rscale>
<asrwt>0</asrwt>
<pdfrwt beam="1">  1       21 0.45268356E-01 0.45808392E+03</pdfrwt>
<pdfrwt beam="2">  1       21 0.25062106E-01 0.45808392E+03</pdfrwt>
<totfact> 0.65217045E+04</totfact>
</mgrwt>
</event>
<event>
 7    0  0.4775379E-002  0.4550468E+03  0.7546771E-02  0.1026228E+00
         21   -1    0    0  502  501  0.00000000000E+00  0.00000000000E+00  0.25087567991E+03  0.25087567991E+03  0.00000000000E+00 0. -1.
         21   -1    0    0  501  502 -0.00000000000E+00 -0.00000000000E+00 -0.20634486572E+03  0.20634486572E+03  0.00000000000E+00 0. -1.
      99926    2    1    2    0    0  0.00000000000E+00 -0.14210854715E-13  0.44530814185E+02  0.45722054563E+03  0.45504684806E+03 0.  0.
      99925    2    3    3    0    0  0.39403077735E+02  0.10307727912E+03  0.26341219671E+01  0.28523110140E+03  0.26300630145E+03 0.  0.
         25    1    4    4    0    0  0.65943016523E+01  0.91138365194E+02 -0.64351005040E+01  0.15504388102E+03  0.12509000000E+03 0.  0.
         25    1    4    4    0    0  0.32808776083E+02  0.11938913923E+02  0.90692224711E+01  0.13018722038E+03  0.12509000000E+03 0.  0.
         25    1    3    3    0    0 -0.39403077735E+02 -0.10307727912E+03  0.41896692218E+02  0.17198944422E+03  0.12509000000E+03 0.  0.
<mgrwt>
<rscale>  2 0.45504685E+03</rscale>
<asrwt>0</asrwt>
<pdfrwt beam="1">  1       21 0.36893482E-01 0.45504685E+03</pdfrwt>
<pdfrwt beam="2">  1       21 0.30344833E-01 0.45504685E+03</pdfrwt>
<totfact> 0.68357866E+04</totfact>
</mgrwt>
</event>
<event>
 7    0  0.4775379E-002  0.4538863E+03  0.7546771E-02  0.1026569E+00
         21   -1    0    0  502  501  0.00000000000E+00  0.00000000000E+00  0.29679028284E+04  0.29679028284E+04  0.00000000000E+00 0. -1.
         21   -1    0    0  501  502 -0.00000000000E+00 -0.00000000000E+00 -0.17353398677E+02  0.17353398677E+02  0.00000000000E+00 0. -1.
      99926    2    1    2    0    0  0.00000000000E+00 -0.14210854715E-13  0.29505494297E+04  0.29852562271E+04  0.45388633386E+03 0.  0.
      99925    2    3    3    0    0 -0.38183303802E+02  0.10516999341E+03  0.18115593930E+04  0.18339680338E+04  0.26300688642E+03 0.  0.
         25    1    3    3    0    0  0.38183303802E+02 -0.10516999341E+03  0.11389900367E+04  0.11512881933E+04  0.12509000000E+03 0.  0.
         25    1    4    4    0    0  0.44752921652E+01  0.52806645123E+02  0.10991171225E+04  0.11074811633E+04  0.12509000000E+03 0.  0.
         25    1    4    4    0    0 -0.42658595967E+02  0.52363348289E+02  0.71244227054E+03  0.72648687050E+03  0.12509000000E+03 0.  0.
<mgrwt>
<rscale>  2 0.45388633E+03</rscale>
<asrwt>0</asrwt>
<pdfrwt beam="1">  1       21 0.43645595E+00 0.45388633E+03</pdfrwt>
<pdfrwt beam="2">  1       21 0.25519724E-02 0.45388633E+03</pdfrwt>
<totfact> 0.33592506E+03</totfact>
</mgrwt>
</event>
<event>
 7    0  0.4775379E-002  0.4562656E+03  0.7546771E-02  0.1025870E+00
         21   -1    0    0  502  501  0.00000000000E+00  0.00000000000E+00  0.42919376840E+03  0.42919376840E+03  0.00000000000E+00 0.  1.
         21   -1    0    0  501  502 -0.00000000000E+00 -0.00000000000E+00 -0.12126126990E+03  0.12126126990E+03  0.00000000000E+00 0.  1.
      99926    2    1    2    0    0 -0.14210854715E-13  0.71054273576E-14  0.30793249850E+03  0.55045503830E+03  0.45626563048E+03 0.  0.
      99925    2    3    3    0    0  0.87174484601E+02 -0.55293270043E+02  0.13418863993E+03  0.31277632035E+03  0.26299372427E+03 0.  0.
         25    1    4    4    0    0  0.79209550404E+02 -0.29361968601E+02  0.47711440237E+02  0.15830403566E+03  0.12509000000E+03 0.  0.
         25    1    4    4    0    0  0.79649341962E+01 -0.25931301442E+02  0.86477199695E+02  0.15447228469E+03  0.12509000000E+03 0.  0.
         25    1    3    3    0    0 -0.87174484601E+02  0.55293270043E+02  0.17374385857E+03  0.23767871796E+03  0.12509000000E+03 0.  0.
<mgrwt>
<rscale>  2 0.45626563E+03</rscale>
<asrwt>0</asrwt>
<pdfrwt beam="1">  1       21 0.63116730E-01 0.45626563E+03</pdfrwt>
<pdfrwt beam="2">  1       21 0.17832540E-01 0.45626563E+03</pdfrwt>
<totfact> 0.61221111E+04</totfact>
</mgrwt>
</event>
